Title
81314
    1CHL1    C3    1   1.201   0.912  10.275  0.0004  0.9389 -0.0040
    1CHL1    H3    2   1.090   0.919  10.276 -0.1220 -0.6823  1.1327
    1CHL1    O3    3   1.245   0.862  10.401 -0.5600 -0.2808  0.1859
    1CHL1   H3'    4   1.189   0.790  10.431 -3.2895  1.6725  0.1647
    1CHL1    C4    5   1.253   0.809  10.169 -0.4390  0.1002 -0.2963
    1CHL1   H4A    6   1.363   0.808  10.186 -0.2748  0.4153 -1.3266
    1CHL1   H4B    7   1.210   0.711  10.199  0.2366 -0.0067  0.3675
    1CHL1    C5    8   1.238   0.849  10.028  0.3455 -0.2869 -0.1263
    1CHL1    C6    9   1.171   0.761   9.950  0.5539 -0.2714  0.1883
    1CHL1    H6   10   1.131   0.665   9.987 -0.7745 -0.0108 -0.4835
    1CHL1    C7   11   1.148   0.792   9.802  0.0263 -0.7841  0.6206
    1CHL1   H7A   12   1.173   0.704   9.739  4.2023 -0.2980  1.3646
    1CHL1   H7B   13   1.041   0.820   9.786 -0.3255 -1.4985  1.6196
    1CHL1    C8   14   1.234   0.910   9.754 -0.4166 -0.5719  0.7267
    1CHL1    H8   15   1.341   0.883   9.743 -0.3857 -0.7840  1.4698
    1CHL1   C14   16   1.179   0.961   9.615 -0.1816 -0.0450  0.2370
    1CHL1   H14   17   1.078   0.994   9.648 -0.9275 -1.8280 -0.1211
    1CHL1   C15   18   1.153   0.862   9.501 -0.1766  0.1649  0.0095
    1CHL1  H15A   19   1.240   0.795   9.484  0.1847  0.7760 -0.6212
    1CHL1  H15B   20   1.062   0.801   9.520 -0.4589 -0.0340 -1.7682
    1CHL1   C16   21   1.134   0.941   9.372 -0.4652 -0.6505 -0.4606
    1CHL1  H16A   22   1.204   0.904   9.293 -0.3592  0.9055 -1.1238
    1CHL1  H16B   23   1.031   0.934   9.331 -1.2522  0.9002  1.1439
    1CHL1   C17   24   1.172   1.087   9.417  0.2161 -0.0559  0.0903
    1CHL1   H17   25   1.072   1.124   9.449 -0.9375 -2.2731 -0.7393
    1CHL1   C13   26   1.253   1.074   9.547 -0.2916 -0.3474  0.3627
    1CHL1   C18   27   1.392   1.033   9.509 -0.5785  0.5905 -0.5256
    1CHL1  H18A   28   1.448   1.007   9.601  1.4510  2.1856 -1.2300
    1CHL1  H18B   29   1.389   0.955   9.430 -0.2247  0.1522 -0.1118
    1CHL1  H18C   30   1.438   1.121   9.461  1.3503 -1.8158 -3.4519
    1CHL1   C12   31   1.250   1.194   9.644 -0.2911 -0.0771  0.0427
    1CHL1  H12A   32   1.300   1.289   9.615 -2.7568  1.1243 -0.5563
    1CHL1  H12B   33   1.149   1.238   9.653  0.3562  1.6319 -0.5295
    1CHL1   C11   34   1.305   1.150   9.782 -0.3974  0.0917 -0.3840
    1CHL1  H11A   35   1.414   1.133   9.771 -0.3898 -0.0995 -0.0289
    1CHL1  H11B   36   1.290   1.243   9.841  2.9245  1.5697 -1.6590
    1CHL1    C9   37   1.238   1.023   9.848 -0.0495 -0.4954 -0.4131
    1CHL1    H9   38   1.130   1.043   9.865 -0.4123 -2.0142 -0.7238
    1CHL1   C10   39   1.288   0.988   9.990  0.5995 -0.3797  0.2526
    1CHL1   C19   40   1.445   0.983   9.994 -0.2524  0.6819 -0.2321
    1CHL1  H19A   41   1.493   0.950  10.089  0.6589  0.9506 -0.5898
    1CHL1  H19B   42   1.478   0.911   9.916  1.1315  1.5871 -0.5107
    1CHL1  H19C   43   1.485   1.084   9.972 -0.6136  0.9715  0.4324
    1CHL1    C1   44   1.234   1.095  10.089  0.1655 -0.9253 -0.1070
    1CHL1   H1A   45   1.282   1.193  10.069  1.0313 -1.5671 -1.2720
    1CHL1   H1B   46   1.126   1.105  10.066 -0.5224 -4.0037  1.1735
    1CHL1    C2   47   1.264   1.055  10.241  0.6881  0.0424  0.2414
    1CHL1   H2A   48   1.226   1.135  10.306 -0.3328 -0.3331  0.1212
    1CHL1   H2B   49   1.374   1.049  10.257  1.1266  2.9021 -1.0430
    1CHL1   C20   50   1.222   1.175   9.307 -1.2498 -0.2312  0.5570
    1CHL1   H20   51   1.322   1.143   9.273 -0.2366  0.4934  2.6886
    1CHL1   C21   52   1.245   1.332   9.351 -0.3907  0.8969  0.0475
    1CHL1  H21A   53   1.339   1.331   9.410  0.8149 -2.9286 -1.6628
    1CHL1  H21B   54   1.163   1.377   9.411  2.0410  1.1249  3.4930
    1CHL1  H21C   55   1.249   1.398   9.262 -1.1692  0.5123 -0.2849
    1CHL1   C22   56   1.145   1.174   9.173  0.8600  0.0905 -0.0779
    1CHL1  H22A   57   1.034   1.175   9.182  0.8818  1.7515  0.3390
    1CHL1  H22B   58   1.184   1.272   9.135 -2.6433  1.6127 -0.1490
    1CHL1   C23   59   1.175   1.059   9.075 -0.2158  1.0328 -0.4886
    1CHL1  H23A   60   1.283   1.033   9.069 -0.7339 -1.3015 -0.8108
    1CHL1  H23B   61   1.130   0.964   9.111  0.1586  1.3917  0.9705
    1CHL1   C24   62   1.116   1.081   8.931  0.2512 -0.0850 -0.1761
    1CHL1  H24A   63   1.109   0.986   8.875 -1.5434  0.8445 -1.6679
    1CHL1  H24B   64   1.013   1.118   8.953  0.6021  2.8638 -2.7249
    1CHL1   C25   65   1.196   1.190   8.849  0.5870  0.2500 -0.3062
    1CHL1   H25   66   1.216   1.279   8.913 -1.3454  1.6764 -1.5985
    1CHL1   C26   67   1.324   1.118   8.798  0.3828 -0.0048 -0.0494
    1CHL1  H26A   68   1.304   1.033   8.730 -0.3092 -0.5462  0.8148
    1CHL1  H26B   69   1.381   1.193   8.739  1.0344 -0.0874  0.4611
    1CHL1  H26C   70   1.379   1.073   8.884  2.5081 -1.9919 -2.3041
    1CHL1   C27   71   1.113   1.237   8.728  0.0798  0.8349 -0.2953
    1CHL1  H27A   72   1.125   1.166   8.644  0.2352 -0.6893  0.9678
    1CHL1  H27B   73   1.003   1.237   8.746  0.2093 -2.2383  0.9364
    1CHL1  H27C   74   1.153   1.335   8.693 -1.7614  1.1483 -1.6858
    2CHL1    C3   75   2.328   6.659  10.107  0.4435  0.0657  0.5464
    2CHL1    H3   76   2.431   6.680  10.073  0.9768 -3.1278 -0.1491
    2CHL1    O3   77   2.298   6.714  10.236  0.0296 -0.4419  0.0760
    2CHL1   H3'   78   2.204   6.728  10.247  0.0379 -0.8149  0.6404
    2CHL1    C4   79   2.227   6.724  10.012 -0.5653  0.3170  0.5519
    2CHL1   H4A   80   2.128   6.689  10.048  0.2679 -3.1530 -0.2008
    2CHL1   H4B   81   2.233   6.835  10.009 -1.0149  0.3180 -1.3023
    2CHL1    C5   82   2.237   6.667   9.875  0.1325  0.4613  0.9916
    2CHL1    C6   83   2.263   6.746   9.773 -0.1780 -0.3542  0.3683
    2CHL1    H6   84   2.266   6.851   9.805 -2.8874  0.6252 -2.1130
    2CHL1    C7   85   2.269   6.709   9.626  0.1484  0.0157 -0.7468
    2CHL1   H7A   86   2.201   6.771   9.564 -1.4068 -0.6522  0.2189
    2CHL1   H7B   87   2.375   6.719   9.595 -0.1517  1.8787 -1.3143
    2CHL1    C8   88   2.214   6.564   9.601 -0.1284  0.1866 -0.2460
    2CHL1    H8   89   2.104   6.566   9.615  0.0397 -0.5736  1.3839
    2CHL1   C14   90   2.256   6.512   9.461  0.5776 -0.0459  0.4540
    2CHL1   H14   91   2.367   6.514   9.461  0.5753  1.3344  1.4954
    2CHL1   C15   92   2.210   6.593   9.340  0.3714 -0.0099  0.0164
    2CHL1  H15A   93   2.105   6.622   9.360  1.0143  0.2919  3.5320
    2CHL1  H15B   94   2.274   6.683   9.324  0.2791 -0.2377 -1.9532
    2CHL1   C16   95   2.228   6.495   9.222  0.1348  1.1812 -0.0394
    2CHL1  H16A   96   2.132   6.459   9.178  0.9052  0.0468 -0.8287
    2CHL1  H16B   97   2.300   6.524   9.143 -0.7820  2.0393 -0.5913
    2CHL1   C17   98   2.286   6.359   9.290  0.3530 -0.3447  0.0992
    2CHL1   H17   99   2.394   6.380   9.306 -0.1377  1.0100  1.9208
    2CHL1   C13  100   2.235   6.362   9.434 -0.2110  0.9729  0.2697
    2CHL1   C18  101   2.085   6.337   9.444 -0.4163  0.0059  1.0371
    2CHL1  H18A  102   2.052   6.387   9.538 -1.0917  2.2988 -0.3371
    2CHL1  H18B  103   2.016   6.380   9.369 -1.8055 -1.0110  1.6932
    2CHL1  H18C  104   2.063   6.228   9.450 -0.2396 -0.0816  0.1659
    2CHL1   C12  105   2.302   6.285   9.552 -0.3963 -0.2140 -0.4547
    2CHL1  H12A  106   2.291   6.174   9.550 -0.7580 -0.2203  0.7374
    2CHL1  H12B  107   2.407   6.318   9.555 -0.5134  0.1861 -0.7565
    2CHL1   C11  108   2.249   6.323   9.689  0.4289 -0.3379 -0.1539
    2CHL1  H11A  109   2.143   6.290   9.701  0.4361  0.1153  1.3610
    2CHL1  H11B  110   2.291   6.252   9.764  2.1143  0.5975 -0.1755
    2CHL1    C9  111   2.268   6.475   9.717 -0.3290  0.0359 -0.4272
    2CHL1    H9  112   2.377   6.499   9.712 -0.6656  2.0500  0.6509
    2CHL1   C10  113   2.228   6.515   9.863  1.0870  0.6396  0.1468
    2CHL1   C19  114   2.086   6.477   9.882  0.3149 -0.2198  0.3665
    2CHL1  H19A  115   2.031   6.501   9.788  1.1359  2.0607  0.3984
    2CHL1  H19B  116   2.075   6.369   9.905  2.3098 -0.4790  0.2630
    2CHL1  H19C  117   2.039   6.532   9.966 -1.3327 -0.5626 -0.2917
    2CHL1    C1  118   2.323   6.448   9.965  0.4038  0.2727  0.6580
    2CHL1   H1A  119   2.298   6.340   9.961 -1.9289  0.7897 -1.1561
    2CHL1   H1B  120   2.426   6.456   9.922 -0.5401 -0.7166 -1.9998
    2CHL1    C2  121   2.317   6.508  10.110  0.1644 -0.2074 -0.4079
    2CHL1   H2A  122   2.390   6.461  10.178 -1.0749 -1.2245  0.2726
    2CHL1   H2B  123   2.212   6.488  10.143  0.2793  1.8298  1.4343
    2CHL1   C20  124   2.266   6.229   9.203  1.1704 -0.7525  0.5090
    2CHL1   H20  125   2.158   6.205   9.192  1.1294 -1.2604  1.8276
    2CHL1   C21  126   2.328   6.097   9.262 -0.2447  0.3981 -0.2453
    2CHL1  H21A  127   2.266   6.062   9.348  1.8831 -1.6914  0.5350
    2CHL1  H21B  128   2.426   6.128   9.303 -0.4189 -1.0785  1.4103
    2CHL1  H21C  129   2.336   6.017   9.186 -0.6099 -0.4193  0.5620
    2CHL1   C22  130   2.307   6.254   9.059 -0.7556 -0.3447 -0.3547
    2CHL1  H22A  131   2.312   6.157   9.004  0.9950 -1.4753  1.6212
    2CHL1  H22B  132   2.244   6.322   9.000  0.3824 -0.2743 -1.5278
    2CHL1   C23  133   2.461   6.292   9.058 -0.1424 -0.0948  0.0278
    2CHL1  H23A  134   2.486   6.386   9.111 -0.0683  0.3971 -0.8708
    2CHL1  H23B  135   2.515   6.207   9.104 -0.7832 -1.5700 -1.7772
    2CHL1   C24  136   2.503   6.305   8.906  0.4903  0.4864  0.0253
    2CHL1  H24A  137   2.466   6.212   8.856 -1.6172  1.3354 -0.0993
    2CHL1  H24B  138   2.451   6.390   8.859 -0.4387  1.2016  2.2340
    2CHL1   C25  139   2.655   6.309   8.890  0.3621 -0.5234  0.7341
    2CHL1   H25  140   2.690   6.397   8.949 -0.7004  0.8824 -0.6423
    2CHL1   C26  141   2.728   6.188   8.951 -0.8377  0.6477  0.1371
    2CHL1  H26A  142   2.696   6.084   8.925  2.5307 -0.2275 -1.0884
    2CHL1  H26B  143   2.829   6.192   8.903  0.0228  0.3203  1.8534
    2CHL1  H26C  144   2.747   6.200   9.060  1.9510  1.1548 -0.3268
    2CHL1   C27  145   2.701   6.335   8.743 -0.1417  0.1846  0.2032
    2CHL1  H27A  146   2.812   6.335   8.747 -0.1457  1.4483  3.4837
    2CHL1  H27B  147   2.659   6.261   8.671  1.9163  0.9375 -1.9059
    2CHL1  H27C  148   2.661   6.430   8.702 -2.8452 -1.2780 -0.7886
    3CHL1    C3  149   2.140   0.406  10.355  0.0102  0.2898 -0.1520
    3CHL1    H3  150   2.251   0.409  10.363 -0.1076  1.4092  1.6082
    3CHL1    O3  151   2.087   0.405  10.490  0.3356 -0.1036  0.5167
    3CHL1   H3'  152   1.994   0.426  10.479  0.0528 -1.9678 -1.0596
    3CHL1    C4  153   2.092   0.536  10.275 -0.3414 -0.0971  0.0300
    3CHL1   H4A  154   1.985   0.541  10.301 -0.2722  1.4441  0.1023
    3CHL1   H4B  155   2.146   0.617  10.329 -0.5810 -1.2425  2.0915
    3CHL1    C5  156   2.116   0.537  10.123  0.3903  0.0505 -0.3843
    3CHL1    C6  157   2.174   0.638  10.056 -0.2437  0.2474 -0.0653
    3CHL1    H6  158   2.213   0.719  10.119  1.5061 -0.1620 -0.5688
    3CHL1    C7  159   2.197   0.641   9.910 -0.1336  0.4700 -0.4347
    3CHL1   H7A  160   2.172   0.743   9.873  1.6596  1.7700  1.6934
    3CHL1   H7B  161   2.298   0.626   9.867 -0.0786 -0.0841 -0.1191
    3CHL1    C8  162   2.102   0.548   9.841  0.0571  0.1934 -0.4500
    3CHL1    H8  163   1.998   0.582   9.860 -0.0570 -0.0378 -0.6415
    3CHL1   C14  164   2.137   0.533   9.697  0.0386 -0.5130  0.0693
    3CHL1   H14  165   2.244   0.503   9.699  0.1381 -0.1851 -0.3324
    3CHL1   C15  166   2.148   0.670   9.618 -0.1185 -0.4234  1.1172
    3CHL1  H15A  167   2.062   0.728   9.658 -0.8741 -1.9794  1.8560
    3CHL1  H15B  168   2.248   0.715   9.634  0.0849  0.0872 -1.2200
    3CHL1   C16  169   2.128   0.623   9.471  0.0033 -0.6697 -0.2397
    3CHL1  H16A  170   2.041   0.669   9.420  1.6980  1.2472 -1.5548
    3CHL1  H16B  171   2.214   0.662   9.411  1.2072  1.0339  2.4172
    3CHL1   C17  172   2.110   0.467   9.471  0.4683 -0.0636 -0.7079
    3CHL1   H17  173   2.213   0.424   9.472  0.4684 -0.2349 -3.0015
    3CHL1   C13  174   2.052   0.436   9.612 -0.7506 -0.0819  0.4390
    3CHL1   C18  175   1.901   0.480   9.619 -0.0541 -0.4581 -0.1598
    3CHL1  H18A  176   1.884   0.580   9.574 -0.9437 -0.6607 -0.2987
    3CHL1  H18B  177   1.855   0.413   9.544  0.9982 -0.1858 -1.0787
    3CHL1  H18C  178   1.859   0.477   9.722  0.0261 -2.4087 -0.1512
    3CHL1   C12  179   2.088   0.296   9.680  0.4883 -0.0306  0.1792
    3CHL1  H12A  180   2.055   0.208   9.622  2.6022 -1.4131  0.9541
    3CHL1  H12B  181   2.199   0.296   9.674  0.8330 -3.3368  3.2965
    3CHL1   C11  182   2.049   0.285   9.828 -0.2064  0.2320  0.4324
    3CHL1  H11A  183   1.938   0.286   9.832 -0.2007  1.1204  0.7431
    3CHL1  H11B  184   2.087   0.187   9.864 -0.7392 -0.1470 -0.0293
    3CHL1    C9  185   2.104   0.407   9.908 -0.4829 -0.0261 -0.2233
    3CHL1    H9  186   2.212   0.384   9.906 -0.4735 -0.4098  1.8556
    3CHL1   C10  187   2.060   0.414  10.058  0.6172  0.2620  0.8035
    3CHL1   C19  188   1.906   0.421  10.060 -0.5830  0.3008 -0.3551
    3CHL1  H19A  189   1.875   0.426  10.167  2.4729  1.0554  0.5985
    3CHL1  H19B  190   1.875   0.520  10.018  0.1012  1.7137  2.2250
    3CHL1  H19C  191   1.847   0.344  10.006 -2.2600  0.7309  0.7621
    3CHL1    C1  192   2.117   0.290  10.138 -0.2607 -0.2544  1.0573
    3CHL1   H1A  193   2.073   0.196  10.100  0.6593 -0.2814  0.0181
    3CHL1   H1B  194   2.227   0.296  10.121  0.2257  0.5115  3.9518
    3CHL1    C2  195   2.078   0.288  10.286  0.1623  0.0223 -0.0297
    3CHL1   H2A  196   2.116   0.201  10.343 -0.3353  0.4066  0.9297
    3CHL1   H2B  197   1.968   0.294  10.299 -0.0952  0.5951 -2.1326
    3CHL1   C20  198   2.055   0.419   9.341  0.0683 -0.9654 -0.5793
    3CHL1   H20  199   1.962   0.476   9.321 -0.0294 -1.2345 -0.8875
    3CHL1   C21  200   2.025   0.271   9.364 -0.8617 -0.0964  0.0005
    3CHL1  H21A  201   2.005   0.216   9.270  2.3248 -2.9020  0.7787
    3CHL1  H21B  202   1.933   0.258   9.424 -2.0867 -0.7446 -1.9273
    3CHL1  H21C  203   2.114   0.223   9.411 -1.6668  0.5412  2.3233
    3CHL1   C22  204   2.155   0.444   9.226  0.2284  0.5469  0.1887
    3CHL1  H22A  205   2.175   0.553   9.220 -4.6825  1.7863  1.6134
    3CHL1  H22B  206   2.250   0.392   9.248 -0.1909 -0.6879 -0.7271
    3CHL1   C23  207   2.112   0.419   9.083  0.6548 -0.4139 -0.1407
    3CHL1  H23A  208   2.202   0.449   9.024  1.8033 -0.4597  1.5274
    3CHL1  H23B  209   2.082   0.315   9.060  0.5257 -0.1540 -1.1889
    3CHL1   C24  210   1.988   0.509   9.050  0.2153 -0.1720 -0.4898
    3CHL1  H24A  211   1.904   0.493   9.121  1.2016 -0.2849  0.6708
    3CHL1  H24B  212   2.032   0.608   9.074 -0.6199  0.2438 -0.5995
    3CHL1   C25  213   1.951   0.486   8.901  0.9438 -0.0725  0.1428
    3CHL1   H25  214   1.885   0.571   8.875 -0.5959 -1.2565  0.0151
    3CHL1   C26  215   2.066   0.503   8.800 -0.2027  0.4632 -0.1947
    3CHL1  H26A  216   2.132   0.416   8.822 -0.6880 -0.0914 -0.8819
    3CHL1  H26B  217   2.036   0.472   8.698 -1.3676  1.4143 -0.1570
    3CHL1  H26C  218   2.104   0.607   8.806 -2.4581  1.2564  1.8793
    3CHL1   C27  219   1.863   0.365   8.872  0.1929 -0.8030  0.2802
    3CHL1  H27A  220   1.777   0.366   8.943  0.1277  0.3881  0.2027
    3CHL1  H27B  221   1.826   0.367   8.768  2.0133 -1.8327 -0.4353
    3CHL1  H27C  222   1.914   0.267   8.880 -2.6274 -2.4474 -0.4520
    4CHL1    C3  223   2.092   2.782  10.700  0.0046 -0.8431 -1.2463
    4CHL1    H3  224   2.115   2.883  10.737 -3.1431 -1.0661  1.7904
    4CHL1    O3  225   2.105   2.698  10.817 -0.5734  0.1550 -0.0231
    4CHL1   H3'  226   2.082   2.606  10.801  1.6681 -0.6533  1.0207
    4CHL1    C4  227   1.947   2.790  10.649  0.3594  0.7698 -0.4046
    4CHL1   H4A  228   1.919   2.683  10.643  2.5807 -0.2624  3.6625
    4CHL1   H4B  229   1.884   2.840  10.726  1.4633 -0.2058  1.1946
    4CHL1    C5  230   1.934   2.860  10.516 -0.5873  0.8504  0.0596
    4CHL1    C6  231   1.861   2.969  10.486  0.9749  0.6386 -0.2743
    4CHL1    H6  232   1.792   3.003  10.565  0.3161 -0.0299 -0.5502
    4CHL1    C7  233   1.852   3.041  10.357 -0.1031 -0.2307  0.1327
    4CHL1   H7A  234   1.747   3.074  10.341 -0.7904 -2.4576 -0.2380
    4CHL1   H7B  235   1.906   3.138  10.367 -2.1012  0.9631 -0.1651
    4CHL1    C8  236   1.899   2.952  10.245  0.0513 -0.0356  0.0430
    4CHL1    H8  237   1.830   2.868  10.225 -1.6212  1.6448 -1.6657
    4CHL1   C14  238   1.913   3.033  10.119 -0.0736  0.5297 -0.1992
    4CHL1   H14  239   1.986   3.113  10.142 -0.3519  1.3024 -1.9121
    4CHL1   C15  240   1.784   3.105  10.061 -1.3000 -0.5115  0.4449
    4CHL1  H15A  241   1.702   3.032  10.077 -1.0313 -0.3923  2.7635
    4CHL1  H15B  242   1.757   3.198  10.116  1.3591  0.5808  0.0716
    4CHL1   C16  243   1.809   3.126   9.915 -0.3114  0.6735 -0.7450
    4CHL1  H16A  244   1.729   3.076   9.855  1.1628 -1.4484 -1.0510
    4CHL1  H16B  245   1.799   3.234   9.890 -1.4355  1.0028  0.9858
    4CHL1   C17  246   1.949   3.063   9.887  0.1592 -0.7584  0.1482
    4CHL1   H17  247   2.017   3.148   9.908 -0.9493 -0.3218  2.2099
    4CHL1   C13  248   1.970   2.959  10.002  0.4166 -0.0821  0.2223
    4CHL1   C18  249   1.878   2.838   9.972  0.0488  0.5861 -0.5061
    4CHL1  H18A  250   1.920   2.787   9.882  1.0072  1.6414 -0.6762
    4CHL1  H18B  251   1.869   2.762  10.052  1.6532 -1.6652 -2.3144
    4CHL1  H18C  252   1.776   2.876   9.953  0.4235  1.1074 -1.6183
    4CHL1   C12  253   2.116   2.919  10.040  0.9951 -0.6211 -0.1060
    4CHL1  H12A  254   2.167   2.861   9.960  0.2979 -0.6700 -0.5213
    4CHL1  H12B  255   2.182   3.004  10.069  2.6945 -1.4747 -1.3251
    4CHL1   C11  256   2.110   2.834  10.162 -1.0402  0.4806 -0.0386
    4CHL1  H11A  257   2.076   2.732  10.135  1.2042  0.0255 -1.3703
    4CHL1  H11B  258   2.214   2.815  10.197 -0.0209  0.5096 -2.8549
    4CHL1    C9  259   2.034   2.894  10.283 -0.0024 -0.2142  0.5914
    4CHL1    H9  260   2.099   2.978  10.315  0.3899  0.8695 -2.7080
    4CHL1   C10  261   2.024   2.809  10.404  0.0562  0.8827 -0.3422
    4CHL1   C19  262   1.978   2.658  10.371  0.3107 -0.1785  0.0901
    4CHL1  H19A  263   1.971   2.590  10.459  0.1108 -1.8385 -1.1559
    4CHL1  H19B  264   1.876   2.666  10.327 -1.0566  0.2186  3.0870
    4CHL1  H19C  265   2.033   2.610  10.287 -0.9041 -1.4309 -0.0267
    4CHL1    C1  266   2.173   2.799  10.462 -0.4557  0.1206 -0.6878
    4CHL1   H1A  267   2.234   2.732  10.398  1.7716 -0.7991  2.2192
    4CHL1   H1B  268   2.221   2.899  10.458  0.9830 -0.5369 -0.4367
    4CHL1    C2  269   2.197   2.731  10.596 -0.3822 -0.3919 -0.9701
    4CHL1   H2A  270   2.300   2.745  10.637 -0.1775 -2.9125 -0.4539
    4CHL1   H2B  271   2.172   2.623  10.589 -0.7675 -0.3164 -0.7437
    4CHL1   C20  272   1.976   3.004   9.746 -0.0009 -0.4947 -0.4679
    4CHL1   H20  273   2.033   2.909   9.757 -1.0172 -1.0672  0.0259
    4CHL1   C21  274   2.068   3.119   9.679 -0.2017 -0.0531  0.4479
    4CHL1  H21A  275   2.145   3.146   9.753  0.4742 -4.6139  1.7523
    4CHL1  H21B  276   1.999   3.199   9.646 -1.5497 -0.7000  1.5826
    4CHL1  H21C  277   2.117   3.091   9.583 -1.0135  0.4487 -0.1364
    4CHL1   C22  278   1.852   2.972   9.655  0.0436 -0.2938 -0.8689
    4CHL1  H22A  279   1.805   2.896   9.720  1.8644 -0.6035  0.1555
    4CHL1  H22B  280   1.801   3.071   9.657  2.5215  1.0811  0.2531
    4CHL1   C23  281   1.890   2.918   9.521 -0.3133  0.2966 -0.4037
    4CHL1  H23A  282   1.926   3.007   9.464 -2.5429  0.2683 -1.9830
    4CHL1  H23B  283   1.973   2.848   9.544  0.7879  2.0002  1.0400
    4CHL1   C24  284   1.770   2.861   9.436 -0.6093 -0.3912 -0.1515
    4CHL1  H24A  285   1.731   2.761   9.467 -2.1682  0.2590  0.0920
    4CHL1  H24B  286   1.690   2.935   9.458 -0.5492 -0.3232 -0.1642
    4CHL1   C25  287   1.805   2.860   9.289 -0.0841  0.1187  0.7333
    4CHL1   H25  288   1.862   2.951   9.262 -0.7038  0.3616  0.2006
    4CHL1   C26  289   1.894   2.740   9.241  0.0048 -0.3834  0.4353
    4CHL1  H26A  290   1.971   2.764   9.165 -0.1535 -0.1701  0.3415
    4CHL1  H26B  291   1.936   2.700   9.336  0.7027 -3.1337 -0.9176
    4CHL1  H26C  292   1.845   2.651   9.194  1.4079  0.4652 -2.9429
    4CHL1   C27  293   1.673   2.864   9.209 -0.6739  0.0059  0.3914
    4CHL1  H27A  294   1.711   2.893   9.108  2.3013  0.1784  1.4526
    4CHL1  H27B  295   1.622   2.767   9.193  0.2095 -0.6558  1.4802
    4CHL1  H27C  296   1.605   2.948   9.235 -1.0445 -0.0833 -0.2686
    5CHL1    C3  297   2.669   3.991  10.372  0.2723 -0.0815 -0.4414
    5CHL1    H3  298   2.734   3.910  10.333 -1.3199 -0.0083 -3.6348
    5CHL1    O3  299   2.675   3.994  10.515  0.4417 -0.1385  0.0745
    5CHL1   H3'  300   2.586   4.025  10.536  0.9806  3.7184 -2.4345
    5CHL1    C4  301   2.720   4.131  10.315  0.1312 -0.6760 -0.1455
    5CHL1   H4A  302   2.644   4.206  10.345 -1.4327 -2.3040  0.1364
    5CHL1   H4B  303   2.818   4.162  10.356 -0.0364 -0.0082 -0.2406
    5CHL1    C5  304   2.730   4.133  10.161 -0.0496 -0.1802 -0.3824
    5CHL1    C6  305   2.848   4.142  10.094 -0.3205 -0.6051 -0.5057
    5CHL1    H6  306   2.936   4.183  10.146  0.1573 -1.6182 -0.5076
    5CHL1    C7  307   2.859   4.154   9.946  0.0924  0.1557  0.2056
    5CHL1   H7A  308   2.920   4.234   9.899 -0.4928 -0.1814 -1.1832
    5CHL1   H7B  309   2.916   4.062   9.919  1.0559  1.3619 -2.1526
    5CHL1    C8  310   2.723   4.135   9.871 -0.5782  0.0193 -0.0283
    5CHL1    H8  311   2.680   4.237   9.854 -0.6889 -0.0497 -0.1654
    5CHL1   C14  312   2.750   4.074   9.736 -0.6984  0.3511 -0.1899
    5CHL1   H14  313   2.790   3.972   9.751  0.2750  1.0256  2.2427
    5CHL1   C15  314   2.853   4.142   9.651  0.2826  0.7459 -0.1506
    5CHL1  H15A  315   2.849   4.253   9.638  2.8556  0.9042 -0.1789
    5CHL1  H15B  316   2.956   4.125   9.689  0.2804  4.5543  2.1425
    5CHL1   C16  317   2.826   4.072   9.514 -0.0300 -0.0763  0.2363
    5CHL1  H16A  318   2.831   4.145   9.430  0.6762 -0.8227 -0.3975
    5CHL1  H16B  319   2.897   3.996   9.474 -1.4186  1.1919 -5.5748
    5CHL1   C17  320   2.694   4.009   9.519 -0.5183  0.3435  0.2545
    5CHL1   H17  321   2.699   3.902   9.549 -0.6167 -0.0428 -1.0758
    5CHL1   C13  322   2.628   4.062   9.645  0.1056 -0.0458  0.1833
    5CHL1   C18  323   2.559   4.196   9.627 -0.0278 -0.5487  0.6087
    5CHL1  H18A  324   2.519   4.242   9.720  0.5989  1.4586 -0.0575
    5CHL1  H18B  325   2.630   4.276   9.598  0.4412 -1.0618  0.3246
    5CHL1  H18C  326   2.472   4.197   9.558 -1.5096  2.4137  2.3002
    5CHL1   C12  327   2.531   3.965   9.713  0.0535  0.7685 -0.1206
    5CHL1  H12A  328   2.440   3.974   9.650  0.3982  0.1276 -0.7252
    5CHL1  H12B  329   2.579   3.865   9.708  0.3562  0.6958  2.5800
    5CHL1   C11  330   2.500   3.998   9.864 -0.4946  0.1344 -0.4533
    5CHL1  H11A  331   2.425   4.079   9.878 -1.4696 -0.4334 -2.1541
    5CHL1  H11B  332   2.468   3.912   9.927 -2.4042 -0.6035 -2.3480
    5CHL1    C9  333   2.627   4.041   9.949  0.0932  1.1383 -0.3800
    5CHL1    H9  334   2.685   3.951   9.979 -1.4508 -0.1145 -1.0170
    5CHL1   C10  335   2.596   4.091  10.094 -0.7643 -0.2196 -0.0745
    5CHL1   C19  336   2.510   4.223  10.089 -0.2143 -0.4260 -0.2397
    5CHL1  H19A  337   2.541   4.281  10.000  0.0725 -0.2407 -0.0203
    5CHL1  H19B  338   2.403   4.194  10.080 -0.4075  0.2506 -0.1918
    5CHL1  H19C  339   2.514   4.285  10.181 -2.3957 -2.2679  1.2285
    5CHL1    C1  340   2.528   3.971  10.168  0.1393 -0.0754 -0.1268
    5CHL1   H1A  341   2.426   3.960  10.126 -0.3515  0.3384  0.9253
    5CHL1   H1B  342   2.581   3.876  10.147  1.1831  0.0577  1.7307
    5CHL1    C2  343   2.524   3.969  10.321  0.4136  0.2181 -0.0653
    5CHL1   H2A  344   2.468   3.883  10.362 -1.8206  1.2524 -0.7460
    5CHL1   H2B  345   2.472   4.063  10.352 -0.1724 -0.4626  1.0616
    5CHL1   C20  346   2.611   4.009   9.387  0.4384 -0.3537  0.0284
    5CHL1   H20  347   2.512   3.970   9.416  0.4463  0.6728  1.6001
    5CHL1   C21  348   2.679   3.909   9.297  0.6600 -0.0994 -0.6707
    5CHL1  H21A  349   2.677   3.810   9.348  0.0475 -0.6959 -1.8012
    5CHL1  H21B  350   2.781   3.938   9.265  1.0768 -3.3667 -2.7154
    5CHL1  H21C  351   2.624   3.888   9.202  0.3355  1.4813 -0.8528
    5CHL1   C22  352   2.591   4.139   9.312  0.0669  0.1191  0.4489
    5CHL1  H22A  353   2.563   4.230   9.370  1.2502  0.0150  1.2324
    5CHL1  H22B  354   2.688   4.174   9.270  0.2914  0.3422  1.1343
    5CHL1   C23  355   2.499   4.121   9.184  0.3907 -0.0090 -0.1627
    5CHL1  H23A  356   2.549   4.060   9.105 -1.0757 -1.5832  0.0698
    5CHL1  H23B  357   2.409   4.065   9.217 -0.7195  1.1388 -1.1251
    5CHL1   C24  358   2.456   4.256   9.121  0.2199 -0.2838 -0.3953
    5CHL1  H24A  359   2.383   4.231   9.042 -0.5312  0.8645 -0.0855
    5CHL1  H24B  360   2.393   4.314   9.192 -3.2726 -5.1075  0.9799
    5CHL1   C25  361   2.569   4.353   9.069  0.8942 -0.6177  1.0862
    5CHL1   H25  362   2.646   4.381   9.144 -0.4849  0.4760  2.1322
    5CHL1   C26  363   2.632   4.283   8.952 -0.0478 -0.6048  0.2402
    5CHL1  H26A  364   2.688   4.192   8.981  1.6860 -0.4091 -2.1810
    5CHL1  H26B  365   2.572   4.274   8.860  2.5458 -0.6938 -1.5361
    5CHL1  H26C  366   2.710   4.352   8.913 -0.2523 -1.8379 -2.5638
    5CHL1   C27  367   2.511   4.484   9.019  0.6215 -0.0139 -0.4665
    5CHL1  H27A  368   2.482   4.545   9.106  2.7226  0.9485 -0.3738
    5CHL1  H27B  369   2.584   4.548   8.964  2.7808 -2.3843 -0.5773
    5CHL1  H27C  370   2.420   4.461   8.959  0.2982 -1.4708  0.5236
    6CHL1    C3  371   0.215   1.461  10.384  0.8655  0.1391  0.7301
    6CHL1    H3  372   0.159   1.369  10.357  0.7652  0.6680 -0.9281
    6CHL1    O3  373   0.237   1.479  10.529  0.3008 -1.1684 -0.0911
    6CHL1   H3'  374   0.264   1.567  10.555  0.8239 -1.8849  1.9807
    6CHL1    C4  375   0.342   1.463  10.310 -0.0897 -0.3748  0.5155
    6CHL1   H4A  376   0.392   1.561  10.325 -0.9429  0.3422 -1.1689
    6CHL1   H4B  377   0.416   1.386  10.341  1.9800  0.1605 -2.7035
    6CHL1    C5  378   0.321   1.451  10.159 -0.1773  0.3523 -0.0742
    6CHL1    C6  379   0.386   1.363  10.082  0.1303  0.6625  0.3031
    6CHL1    H6  380   0.449   1.291  10.137  1.8282  2.0014  0.1888
    6CHL1    C7  381   0.378   1.345   9.934 -0.1705 -0.1102 -0.4756
    6CHL1   H7A  382   0.478   1.326   9.889  0.6957  3.6317 -0.4318
    6CHL1   H7B  383   0.326   1.250   9.910  1.2353 -1.3147  1.0067
    6CHL1    C8  384   0.311   1.468   9.865  0.4116  0.4780 -0.8443
    6CHL1    H8  385   0.390   1.545   9.884  1.8529 -1.6569  3.0155
    6CHL1   C14  386   0.274   1.437   9.717 -0.0987 -0.1346  0.4759
    6CHL1   H14  387   0.204   1.351   9.718 -1.3312  0.8273 -0.0740
    6CHL1   C15  388   0.399   1.404   9.633  0.0530  0.4901  0.2624
    6CHL1  H15A  389   0.488   1.460   9.670 -0.0486 -1.2711  3.5118
    6CHL1  H15B  390   0.422   1.296   9.622 -0.5360  0.4950 -1.3273
    6CHL1   C16  391   0.361   1.442   9.489  0.1838  0.9333 -1.0192
    6CHL1  H16A  392   0.430   1.518   9.446 -0.1658  0.8545 -1.7455
    6CHL1  H16B  393   0.369   1.357   9.418  0.7877  1.0602 -1.1061
    6CHL1   C17  394   0.215   1.511   9.506 -0.2290  0.3611  0.5535
    6CHL1   H17  395   0.139   1.430   9.499  0.7331 -0.5064 -0.2609
    6CHL1   C13  396   0.204   1.557   9.652 -0.0910  0.0314 -0.5182
    6CHL1   C18  397   0.287   1.681   9.674  0.6729  0.0576  1.4054
    6CHL1  H18A  398   0.304   1.704   9.782  1.5441 -0.5795  1.4106
    6CHL1  H18B  399   0.387   1.670   9.629  0.5231  0.2297  1.0274
    6CHL1  H18C  400   0.230   1.768   9.635 -1.5791 -1.6690  0.6597
    6CHL1   C12  401   0.062   1.557   9.717  0.0421  0.6376  0.4206
    6CHL1  H12A  402  -0.001   1.640   9.679  0.8667  0.5275 -1.3154
    6CHL1  H12B  403   0.025   1.454   9.698  3.7860 -1.0839  1.4542
    6CHL1   C11  404   0.081   1.593   9.861  0.4231 -0.6583 -0.0071
    6CHL1  H11A  405   0.114   1.699   9.860 -1.1933 -0.0917  1.6114
    6CHL1  H11B  406  -0.013   1.587   9.920 -1.2243  2.2663 -2.0638
    6CHL1    C9  407   0.185   1.506   9.946 -0.2747 -0.5849 -0.7264
    6CHL1    H9  408   0.125   1.413   9.954 -1.7730  0.3008 -1.1981
    6CHL1   C10  409   0.222   1.551  10.098  0.3296  0.0424 -0.4107
    6CHL1   C19  410   0.279   1.692  10.093  0.2271  0.3493  0.1613
    6CHL1  H19A  411   0.353   1.694  10.010  2.4273 -2.3735  1.8697
    6CHL1  H19B  412   0.191   1.757  10.076 -0.1250 -0.0631  0.3859
    6CHL1  H19C  413   0.328   1.725  10.187  0.4596  0.9754 -0.1755
    6CHL1    C1  414   0.091   1.549  10.182  0.5406  0.7571 -0.2091
    6CHL1   H1A  415   0.021   1.627  10.145  0.4059 -0.1482 -1.9688
    6CHL1   H1B  416   0.048   1.447  10.170 -0.4365  1.2870 -1.4125
    6CHL1    C2  417   0.119   1.569  10.333  0.2063 -0.1445 -0.2736
    6CHL1   H2A  418   0.026   1.562  10.394  0.2411 -0.1621 -0.2234
    6CHL1   H2B  419   0.155   1.673  10.343  0.2690 -0.0151 -1.5946
    6CHL1   C20  420   0.189   1.610   9.392  0.2409  0.4137  0.3834
    6CHL1   H20  421   0.261   1.693   9.405  0.5010  0.7814 -2.6853
    6CHL1   C21  422   0.052   1.666   9.396  0.2189  0.5795  0.1459
    6CHL1  H21A  423   0.050   1.743   9.476 -1.2891 -0.2506  0.9481
    6CHL1  H21B  424  -0.021   1.585   9.417  1.7954 -1.2711 -1.1336
    6CHL1  H21C  425   0.018   1.713   9.301 -1.4090 -4.1679 -1.8871
    6CHL1   C22  426   0.226   1.547   9.251 -0.2744  0.2157 -0.1941
    6CHL1  H22A  427   0.333   1.516   9.256 -0.1749  0.6969  2.9663
    6CHL1  H22B  428   0.157   1.463   9.232 -2.7378  1.8070  1.0995
    6CHL1   C23  429   0.218   1.641   9.130 -0.4563 -0.1374  0.9344
    6CHL1  H23A  430   0.110   1.655   9.104 -0.2722 -2.4403 -1.3921
    6CHL1  H23B  431   0.260   1.740   9.160  1.3675  0.1445 -2.1391
    6CHL1   C24  432   0.300   1.601   9.011 -0.0758 -0.0808  0.0422
    6CHL1  H24A  433   0.406   1.622   9.041 -0.4544  1.5127  0.3750
    6CHL1  H24B  434   0.291   1.493   8.988  0.3688  0.2284 -1.6939
    6CHL1   C25  435   0.276   1.676   8.878 -0.3037 -0.2944  0.3767
    6CHL1   H25  436   0.272   1.786   8.897  1.2744 -0.2481  0.5903
    6CHL1   C26  437   0.404   1.658   8.790 -0.0324 -0.0678 -0.1991
    6CHL1  H26A  438   0.402   1.718   8.697 -0.5949  0.0247 -0.1323
    6CHL1  H26B  439   0.498   1.686   8.841  0.0433  1.2101 -0.9962
    6CHL1  H26C  440   0.406   1.550   8.765 -1.8309 -0.1420 -0.1401
    6CHL1   C27  441   0.155   1.640   8.795  0.0923 -0.2060 -0.9714
    6CHL1  H27A  442   0.065   1.639   8.861  0.2368  0.6555 -0.7440
    6CHL1  H27B  443   0.129   1.713   8.716  0.9927  1.4834  0.2290
    6CHL1  H27C  444   0.160   1.537   8.753 -2.0608 -0.2075 -1.3476
    7CHL1    C3  445   4.357   6.614  10.624  0.6163  0.1560 -0.0011
    7CHL1    H3  446   4.437   6.690  10.610 -1.2719  2.1117 -0.5666
    7CHL1    O3  447   4.370   6.545  10.742  0.6473 -0.0382 -0.0321
    7CHL1   H3'  448   4.283   6.505  10.747  0.8087 -0.4795 -0.6759
    7CHL1    C4  449   4.219   6.675  10.623  0.5266  0.4570 -0.6789
    7CHL1   H4A  450   4.134   6.614  10.658  0.3361  0.8545 -0.4356
    7CHL1   H4B  451   4.223   6.751  10.705  0.5427 -1.1266  0.8375
    7CHL1    C5  452   4.190   6.738  10.487 -0.6578 -0.2837 -0.0539
    7CHL1    C6  453   4.155   6.866  10.469 -0.0642  0.2064 -0.1832
    7CHL1    H6  454   4.136   6.934  10.554 -0.8968  0.1780 -0.3331
    7CHL1    C7  455   4.126   6.932  10.330  0.2147  0.4022 -0.0006
    7CHL1   H7A  456   4.033   6.994  10.328 -0.4806 -0.5937  0.3752
    7CHL1   H7B  457   4.214   6.993  10.301 -0.1066  0.9335  0.1259
    7CHL1    C8  458   4.109   6.825  10.216 -0.3774 -0.5127 -0.9497
    7CHL1    H8  459   4.003   6.790  10.215 -0.0421 -1.7726  1.1643
    7CHL1   C14  460   4.139   6.889  10.083 -0.1535 -0.0529 -0.1226
    7CHL1   H14  461   4.248   6.907  10.086 -0.3303  2.1445 -2.8220
    7CHL1   C15  462   4.078   7.025  10.042  0.4462  0.5438  0.0646
    7CHL1  H15A  463   3.973   7.018  10.078  0.4884  0.2091  0.1207
    7CHL1  H15B  464   4.119   7.111  10.099 -2.3817  1.4123  0.9625
    7CHL1   C16  465   4.082   7.032   9.888 -0.2903 -0.4029 -0.3762
    7CHL1  H16A  466   3.977   7.041   9.854 -0.3899 -1.4269 -0.3577
    7CHL1  H16B  467   4.127   7.123   9.843  2.3914 -1.5320 -0.1667
    7CHL1   C17  468   4.153   6.904   9.848  0.2907 -0.3765  0.1955
    7CHL1   H17  469   4.263   6.924   9.843  0.0019  1.0811 -1.1025
    7CHL1   C13  470   4.114   6.802   9.962 -0.1146  0.4024  0.4663
    7CHL1   C18  471   3.964   6.768   9.937  0.3131  0.1136 -0.1764
    7CHL1  H18A  472   3.956   6.707   9.844 -1.9984  1.2995 -0.8450
    7CHL1  H18B  473   3.915   6.720  10.025 -0.9659  3.5446  1.1397
    7CHL1  H18C  474   3.897   6.855   9.924 -0.7018 -0.5511  0.4693
    7CHL1   C12  475   4.198   6.683   9.973 -0.2210  0.1400 -0.7322
    7CHL1  H12A  476   4.167   6.607   9.898  1.9969  0.3836 -2.0052
    7CHL1  H12B  477   4.306   6.710   9.968 -0.0554 -0.6155 -1.7568
    7CHL1   C11  478   4.177   6.610  10.112  0.0408 -0.8616 -0.5475
    7CHL1  H11A  479   4.072   6.575  10.107 -0.3288  0.2367 -0.6989
    7CHL1  H11B  480   4.249   6.526  10.112  2.8814  1.3049  2.5444
    7CHL1    C9  481   4.197   6.707  10.229 -0.7971  0.4487 -0.7563
    7CHL1    H9  482   4.301   6.741  10.211 -0.8323  0.7055 -0.4718
    7CHL1   C10  483   4.195   6.642  10.370 -0.5911 -0.4025  0.3925
    7CHL1   C19  484   4.070   6.546  10.377  0.0579  0.9938  0.2429
    7CHL1  H19A  485   4.060   6.504  10.479  2.3919  2.2323  1.0595
    7CHL1  H19B  486   3.977   6.606  10.363 -1.0409 -0.8390 -0.6580
    7CHL1  H19C  487   4.077   6.466  10.300 -2.4785  0.4559  0.4910
    7CHL1    C1  488   4.332   6.562  10.377 -0.3716  0.7059  0.0391
    7CHL1   H1A  489   4.323   6.469  10.317  1.2203  0.0347  0.8024
    7CHL1   H1B  490   4.415   6.618  10.328  1.5207  1.5443  3.8359
    7CHL1    C2  491   4.371   6.512  10.513  0.8184  0.6993 -0.5192
    7CHL1   H2A  492   4.476   6.476  10.517  0.6203 -0.1086 -1.8986
    7CHL1   H2B  493   4.297   6.432  10.531 -2.2785  3.2625 -0.7750
    7CHL1   C20  494   4.127   6.880   9.699 -0.0448  0.4100 -0.2759
    7CHL1   H20  495   4.018   6.882   9.677  0.4435 -1.9862 -3.6280
    7CHL1   C21  496   4.177   6.742   9.643 -0.8816  0.0790 -0.2683
    7CHL1  H21A  497   4.143   6.711   9.542  0.9489  0.3878 -1.0229
    7CHL1  H21B  498   4.147   6.661   9.713  2.2384  0.5961  1.8806
    7CHL1  H21C  499   4.288   6.742   9.644 -0.8051  2.5872 -1.0946
    7CHL1   C22  500   4.194   6.989   9.609  0.1990  0.0687 -0.3543
    7CHL1  H22A  501   4.165   7.093   9.632  0.3768 -0.0168  0.2579
    7CHL1  H22B  502   4.304   6.991   9.627 -0.0248  3.2499  1.3967
    7CHL1   C23  503   4.178   6.973   9.456 -0.2104 -0.2721  0.8235
    7CHL1  H23A  504   4.225   7.051   9.393  1.7940 -1.0371  1.2877
    7CHL1  H23B  505   4.232   6.878   9.433  2.1323  0.8991  1.1526
    7CHL1   C24  506   4.036   6.957   9.409  0.1271  0.2063 -0.0548
    7CHL1  H24A  507   3.990   6.890   9.485  2.5038  0.2372  1.5137
    7CHL1  H24B  508   4.001   7.062   9.410  1.6122  0.7516  1.7649
    7CHL1   C25  509   4.003   6.902   9.270  0.0546 -0.5782 -0.2936
    7CHL1   H25  510   4.033   6.796   9.254  2.4506 -0.0509  0.2920
    7CHL1   C26  511   3.850   6.892   9.243 -0.1298 -0.8002  0.0051
    7CHL1  H26A  512   3.837   6.853   9.140  0.4430  2.4779 -1.4370
    7CHL1  H26B  513   3.808   6.833   9.327  0.2462  0.3688  1.0413
    7CHL1  H26C  514   3.816   6.997   9.229  1.3078 -0.5044 -1.6536
    7CHL1   C27  515   4.069   6.988   9.169  0.3717  0.2551 -0.1107
    7CHL1  H27A  516   4.057   7.095   9.195  1.0395  0.5818 -1.0940
    7CHL1  H27B  517   4.175   6.958   9.150  0.6654  1.0296  0.2599
    7CHL1  H27C  518   4.015   6.981   9.073  0.4542  0.6573 -0.1874
    8CHL1    C3  519   5.053   1.877  10.415 -0.1058 -0.3129  0.2721
    8CHL1    H3  520   4.950   1.907  10.385  0.5179 -0.0607 -1.7800
    8CHL1    O3  521   5.067   1.901  10.555 -0.3777 -0.0046 -0.2584
    8CHL1   H3'  522   5.122   1.827  10.581  1.3192  1.0116 -0.7967
    8CHL1    C4  523   5.076   1.732  10.381  0.1212  0.5547 -0.0130
    8CHL1   H4A  524   5.176   1.713  10.425  0.1337  0.4087 -0.1025
    8CHL1   H4B  525   5.004   1.668  10.437  0.5470 -0.6312 -0.7734
    8CHL1    C5  526   5.059   1.705  10.227 -0.0198 -0.4759 -0.4769
    8CHL1    C6  527   4.968   1.628  10.175 -0.2224  0.5254 -0.3513
    8CHL1    H6  528   4.901   1.568  10.238 -0.4591 -1.2863 -2.2105
    8CHL1    C7  529   4.938   1.607  10.030 -0.7053 -0.2713  0.4478
    8CHL1   H7A  530   4.919   1.499  10.014 -0.1789 -0.0866 -1.6675
    8CHL1   H7B  531   4.841   1.653  10.002 -0.7354 -0.8341 -0.4134
    8CHL1    C8  532   5.056   1.655   9.945  0.0762  0.1538  0.9190
    8CHL1    H8  533   5.140   1.583   9.956  0.4567 -0.1340 -2.7279
    8CHL1   C14  534   5.016   1.657   9.796 -0.2291 -0.4203 -0.1851
    8CHL1   H14  535   4.939   1.736   9.787  0.4002  0.5496  2.2046
    8CHL1   C15  536   4.944   1.533   9.741 -0.4455  0.0021  1.1428
    8CHL1  H15A  537   4.994   1.445   9.786 -0.3775 -0.5849 -0.0202
    8CHL1  H15B  538   4.834   1.533   9.757 -0.4322  1.4486  1.3617
    8CHL1   C16  539   4.972   1.541   9.587  0.1789 -0.2453 -0.4323
    8CHL1  H16A  540   5.039   1.455   9.564 -0.4240 -0.9095  0.2195
    8CHL1  H16B  541   4.883   1.526   9.523 -0.6794  0.1918  0.6171
    8CHL1   C17  542   5.053   1.669   9.565 -0.3955 -0.6469 -0.1352
    8CHL1   H17  543   4.977   1.748   9.546  0.8373  0.3157 -1.2772
    8CHL1   C13  544   5.126   1.690   9.699  0.0959  0.1806  0.1688
    8CHL1   C18  545   5.244   1.574   9.714 -0.2162  0.0382  0.9487
    8CHL1  H18A  546   5.206   1.471   9.697 -2.2136  1.1043 -1.6330
    8CHL1  H18B  547   5.330   1.604   9.651 -1.7449  0.7550 -0.8603
    8CHL1  H18C  548   5.284   1.575   9.818  4.2609 -0.8999 -0.5463
    8CHL1   C12  549   5.172   1.830   9.735 -0.0596 -0.5436  0.1800
    8CHL1  H12A  550   5.259   1.858   9.671 -0.9142  1.4756 -0.1381
    8CHL1  H12B  551   5.093   1.902   9.705  0.3537  0.7874  2.0855
    8CHL1   C11  552   5.212   1.844   9.879  1.3297  0.3077  0.3985
    8CHL1  H11A  553   5.306   1.788   9.896  0.6107 -1.0527  0.0260
    8CHL1  H11B  554   5.237   1.950   9.901 -0.5461  1.1141 -1.0684
    8CHL1    C9  555   5.103   1.795   9.981 -0.1771  0.7113 -0.8137
    8CHL1    H9  556   5.018   1.863   9.958 -0.6364  0.2202 -0.5806
    8CHL1   C10  557   5.144   1.800  10.132 -0.2409  0.7065 -0.0514
    8CHL1   C19  558   5.292   1.749  10.143 -0.5285 -0.0080  0.0778
    8CHL1  H19A  559   5.360   1.819  10.090 -1.3857  0.0412 -0.9871
    8CHL1  H19B  560   5.328   1.742  10.248 -0.5347 -0.7932  0.0334
    8CHL1  H19C  561   5.300   1.648  10.097  1.2336 -0.2100  0.7497
    8CHL1    C1  562   5.126   1.943  10.181  0.0784 -0.1588  0.0484
    8CHL1   H1A  563   5.184   2.019  10.124  0.7436 -0.4267  0.3624
    8CHL1   H1B  564   5.022   1.971  10.156  0.2454 -0.5240 -1.1025
    8CHL1    C2  565   5.144   1.967  10.335  0.1485  0.3198  0.1102
    8CHL1   H2A  566   5.124   2.074  10.355  1.4945  0.4278  1.0145
    8CHL1   H2B  567   5.253   1.951  10.350  0.7484  2.7818 -1.2111
    8CHL1   C20  568   5.143   1.659   9.439  0.4594  0.4286  0.0406
    8CHL1   H20  569   5.234   1.603   9.471  0.9364  0.0037 -1.8868
    8CHL1   C21  570   5.198   1.795   9.399  0.6554 -0.8441 -0.1862
    8CHL1  H21A  571   5.115   1.860   9.362  1.5591 -0.7482 -2.1960
    8CHL1  H21B  572   5.272   1.781   9.317  0.2438 -1.4588 -0.4594
    8CHL1  H21C  573   5.240   1.846   9.488 -0.4990 -0.4778  0.1755
    8CHL1   C22  574   5.075   1.605   9.316  0.2003  0.8658 -0.0795
    8CHL1  H22A  575   5.042   1.507   9.356  1.3452  0.8959  0.9778
    8CHL1  H22B  576   4.981   1.660   9.299 -1.0716 -1.1947 -0.0445
    8CHL1   C23  577   5.171   1.585   9.192 -0.4082 -0.7545  0.2875
    8CHL1  H23A  578   5.185   1.686   9.149  0.6056 -1.4228 -1.0430
    8CHL1  H23B  579   5.264   1.548   9.240 -0.0166  0.0374  0.1455
    8CHL1   C24  580   5.130   1.495   9.075 -0.0004  0.1343 -0.2798
    8CHL1  H24A  581   5.092   1.397   9.113 -1.3662  0.2868 -1.1813
    8CHL1  H24B  582   5.043   1.540   9.023  1.0002  0.9748 -1.2673
    8CHL1   C25  583   5.235   1.465   8.969 -0.2559 -0.0044  0.1962
    8CHL1   H25  584   5.326   1.433   9.024 -0.1699 -1.4150 -0.7043
    8CHL1   C26  585   5.178   1.364   8.871  0.4367  0.2222 -0.4756
    8CHL1  H26A  586   5.087   1.398   8.818 -1.1204 -1.0018  1.2414
    8CHL1  H26B  587   5.250   1.332   8.793  1.2217  1.7711 -0.4062
    8CHL1  H26C  588   5.141   1.275   8.927 -1.1087  0.4987 -1.0048
    8CHL1   C27  589   5.270   1.592   8.890  0.0185  0.1797 -0.1871
    8CHL1  H27A  590   5.348   1.566   8.816 -1.2502 -2.9136 -0.5610
    8CHL1  H27B  591   5.182   1.612   8.826  0.5802 -1.6072 -1.5707
    8CHL1  H27C  592   5.283   1.676   8.962 -0.1337 -1.0232  1.2836
    9CHL1    C3  593   0.695   3.887  10.289 -0.4375  0.3364  0.6221
    9CHL1    H3  594   0.728   3.782  10.299  0.7703  0.8720  2.8501
    9CHL1    O3  595   0.710   3.959  10.412 -0.1954  0.2039 -0.6793
    9CHL1   H3'  596   0.698   4.050  10.385 -0.7804  0.6101  0.8685
    9CHL1    C4  597   0.783   3.958  10.185 -0.1529 -0.0632 -0.0041
    9CHL1   H4A  598   0.755   4.066  10.186 -0.0299  0.0029  2.4404
    9CHL1   H4B  599   0.886   3.947  10.225 -1.1388 -0.0249  2.7657
    9CHL1    C5  600   0.769   3.882  10.055  0.5885 -1.4111  0.1567
    9CHL1    C6  601   0.872   3.823   9.995  0.1140  0.0437 -0.7347
    9CHL1    H6  602   0.970   3.835  10.044  0.2316  0.1161 -0.9855
    9CHL1    C7  603   0.867   3.766   9.856  0.2293  0.7811 -0.3522
    9CHL1   H7A  604   0.961   3.805   9.813  0.0136  1.2414 -0.4149
    9CHL1   H7B  605   0.882   3.656   9.862  2.8454  1.1555  1.5599
    9CHL1    C8  606   0.739   3.805   9.779  0.9972 -0.0141 -0.5666
    9CHL1    H8  607   0.746   3.914   9.755 -1.0289  0.2402 -0.1884
    9CHL1   C14  608   0.735   3.723   9.653 -0.0913  0.7408 -0.6260
    9CHL1   H14  609   0.742   3.615   9.678 -0.8000  0.8904  0.2567
    9CHL1   C15  610   0.844   3.743   9.549  0.9991  0.1250 -0.0687
    9CHL1  H15A  611   0.861   3.850   9.525  0.5564  0.4359  0.9587
    9CHL1  H15B  612   0.939   3.712   9.597  1.1832  1.6361  0.5898
    9CHL1   C16  613   0.792   3.666   9.431  0.5032 -0.0347  0.1944
    9CHL1  H16A  614   0.815   3.713   9.333 -0.1745  0.9673  0.5029
    9CHL1  H16B  615   0.841   3.566   9.441  1.7574  0.6433  1.2383
    9CHL1   C17  616   0.633   3.648   9.455 -0.1317 -0.5076  0.4926
    9CHL1   H17  617   0.612   3.546   9.494 -0.5387 -0.1265  1.3167
    9CHL1   C13  618   0.606   3.737   9.570 -0.1826  0.2895 -0.1078
    9CHL1   C18  619   0.602   3.890   9.523  0.0187 -0.0277 -1.0444
    9CHL1  H18A  620   0.686   3.899   9.451  1.5980 -2.9984  0.2377
    9CHL1  H18B  621   0.500   3.904   9.481  0.5095 -0.0261 -2.2665
    9CHL1  H18C  622   0.607   3.960   9.609  0.8911 -0.8883 -0.3618
    9CHL1   C12  623   0.489   3.698   9.658  0.1506  0.4506 -0.8845
    9CHL1  H12A  624   0.394   3.725   9.608 -0.0606  0.1387 -0.6508
    9CHL1  H12B  625   0.491   3.591   9.689 -1.8740  0.3638 -0.9680
    9CHL1   C11  626   0.482   3.786   9.789 -0.3158  1.2395 -0.1681
    9CHL1  H11A  627   0.458   3.890   9.759 -0.4644  1.5992  1.1392
    9CHL1  H11B  628   0.395   3.759   9.854  0.2364  0.5567  0.3132
    9CHL1    C9  629   0.616   3.780   9.870  0.4518  0.3057 -0.4659
    9CHL1    H9  630   0.615   3.675   9.904 -0.8981  0.2693 -0.5569
    9CHL1   C10  631   0.626   3.875   9.997  0.5777  0.4818 -0.2696
    9CHL1   C19  632   0.591   4.021   9.960 -0.0392  0.7539  0.8618
    9CHL1  H19A  633   0.578   4.089  10.047  2.1544  1.3677  0.7759
    9CHL1  H19B  634   0.669   4.072   9.900  1.1800  0.8398  2.4425
    9CHL1  H19C  635   0.492   4.021   9.910  1.1111 -0.5825 -1.6283
    9CHL1    C1  636   0.530   3.826  10.115  0.3943 -0.9476 -0.7238
    9CHL1   H1A  637   0.426   3.835  10.076  0.4933  1.4796 -0.5205
    9CHL1   H1B  638   0.563   3.720  10.123  3.0745 -0.1947 -0.7870
    9CHL1    C2  639   0.554   3.889  10.253  0.7517 -0.6012 -0.7039
    9CHL1   H2A  640   0.493   3.832  10.326 -0.2255  0.4450 -0.6813
    9CHL1   H2B  641   0.519   3.994  10.256 -0.4968 -1.0081 -0.3796
    9CHL1   C20  642   0.555   3.667   9.323 -0.0284 -0.7724  0.1056
    9CHL1   H20  643   0.589   3.764   9.281 -2.6304 -0.0827 -0.5513
    9CHL1   C21  644   0.398   3.668   9.333  0.4927 -0.4355 -0.2550
    9CHL1  H21A  645   0.361   3.578   9.385  0.8669  0.6886  2.0607
    9CHL1  H21B  646   0.349   3.678   9.234 -0.9123 -3.5221  0.0058
    9CHL1  H21C  647   0.353   3.745   9.399 -1.1370 -0.6957 -1.0039
    9CHL1   C22  648   0.599   3.565   9.217 -0.0750  0.3199 -0.5996
    9CHL1  H22A  649   0.704   3.581   9.183  0.1131 -0.4967 -0.4190
    9CHL1  H22B  650   0.585   3.462   9.256 -1.2720  0.2970 -1.0575
    9CHL1   C23  651   0.516   3.555   9.085 -0.3899  0.4882  0.3952
    9CHL1  H23A  652   0.411   3.525   9.105 -0.4896 -0.0231 -0.8353
    9CHL1  H23B  653   0.510   3.660   9.048 -0.6396 -0.1028 -1.3322
    9CHL1   C24  654   0.580   3.464   8.982  0.6860  0.3506  0.4510
    9CHL1  H24A  655   0.667   3.518   8.939  0.8399 -0.9807 -1.0083
    9CHL1  H24B  656   0.617   3.369   9.026  0.3198  0.8109  1.7957
    9CHL1   C25  657   0.476   3.429   8.870 -0.0605 -0.7493 -0.6106
    9CHL1   H25  658   0.401   3.363   8.918  0.7468 -0.9347  0.4161
    9CHL1   C26  659   0.420   3.557   8.803  0.2695  0.3885 -0.3156
    9CHL1  H26A  660   0.342   3.527   8.730  0.0400  0.1153  0.0392
    9CHL1  H26B  661   0.370   3.625   8.875  1.1897  1.1190 -0.3516
    9CHL1  H26C  662   0.500   3.618   8.756  1.1544  0.7318  1.5199
    9CHL1   C27  663   0.544   3.340   8.767 -0.5802 -0.0905  0.1189
    9CHL1  H27A  664   0.493   3.320   8.670  1.3192  1.5943 -1.3229
    9CHL1  H27B  665   0.642   3.378   8.733 -0.8718 -0.9344 -1.8266
    9CHL1  H27C  666   0.565   3.243   8.816  1.8117 -0.5445 -1.6143
   10CHL1    C3  667   6.480   1.442  10.228  0.5751  0.3646  0.3654
   10CHL1    H3  668   6.583   1.424  10.190 -0.4754 -2.0600 -1.6443
   10CHL1    O3  669   6.455   1.369  10.346 -0.0497 -0.0711 -0.2591
   10CHL1   H3'  670   6.382   1.417  10.386 -1.0189  1.3633 -3.4352
   10CHL1    C4  671   6.447   1.591  10.246 -0.4961 -0.1826 -0.3052
   10CHL1   H4A  672   6.342   1.610  10.274 -0.2565  0.6429  0.0614
   10CHL1   H4B  673   6.509   1.631  10.329 -1.8343 -0.4860  0.8806
   10CHL1    C5  674   6.469   1.664  10.116 -0.2640 -0.8733  0.7749
   10CHL1    C6  675   6.556   1.768  10.105 -0.6837  1.1882 -0.3629
   10CHL1    H6  676   6.607   1.808  10.195  3.1275  0.7499 -2.1222
   10CHL1    C7  677   6.575   1.843   9.977 -0.1767  0.2088 -0.3897
   10CHL1   H7A  678   6.586   1.951  10.000 -0.9563  0.1269  0.4108
   10CHL1   H7B  679   6.676   1.814   9.941  0.6232  1.1395  1.0328
   10CHL1    C8  680   6.471   1.817   9.868  0.5368  0.6334  0.4856
   10CHL1    H8  681   6.370   1.862   9.883 -0.2922 -0.9079 -0.1674
   10CHL1   C14  682   6.521   1.862   9.735 -0.1336 -0.0626  0.6121
   10CHL1   H14  683   6.612   1.801   9.717  1.2131  2.1053 -0.3194
   10CHL1   C15  684   6.573   2.003   9.717  0.0229 -0.5592 -0.4145
   10CHL1  H15A  685   6.518   2.069   9.787  2.0112 -1.0131  1.6998
   10CHL1  H15B  686   6.678   2.019   9.751 -0.3478 -0.2004  0.6050
   10CHL1   C16  687   6.559   2.030   9.564  0.1656 -0.4538 -0.1749
   10CHL1  H16A  688   6.485   2.113   9.565 -0.7339 -1.2218  1.9212
   10CHL1  H16B  689   6.652   2.056   9.508 -0.9494  0.0588 -1.8814
   10CHL1   C17  690   6.499   1.910   9.498  0.3632 -0.1223 -0.7521
   10CHL1   H17  691   6.589   1.849   9.473  0.5491 -2.3355  4.0023
   10CHL1   C13  692   6.426   1.837   9.615  0.3287  0.0688  0.0898
   10CHL1   C18  693   6.296   1.908   9.637  0.5486 -0.0432  0.4394
   10CHL1  H18A  694   6.220   1.874   9.564  1.1200  1.2871 -0.8275
   10CHL1  H18B  695   6.254   1.885   9.737  0.4435  0.3407  0.4841
   10CHL1  H18C  696   6.302   2.018   9.629 -0.5865 -0.1052 -2.5946
   10CHL1   C12  697   6.402   1.687   9.601 -0.3001 -0.1479  0.4915
   10CHL1  H12A  698   6.328   1.668   9.521  0.0773  0.6581 -0.0680
   10CHL1  H12B  699   6.498   1.645   9.563 -1.2235 -1.9909  0.0832
   10CHL1   C11  700   6.356   1.619   9.729 -0.4922 -0.6919 -0.1925
   10CHL1  H11A  701   6.258   1.657   9.765  0.4867  0.0629  1.8654
   10CHL1  H11B  702   6.347   1.508   9.724 -2.0116 -0.6746  1.1016
   10CHL1    C9  703   6.438   1.665   9.856  0.1358 -0.6477 -0.0760
   10CHL1    H9  704   6.538   1.621   9.836  0.4764  1.0837 -2.6803
   10CHL1   C10  705   6.387   1.611   9.995 -0.0872 -0.0886  0.6030
   10CHL1   C19  706   6.242   1.667  10.015  0.0275 -0.2057  0.3015
   10CHL1  H19A  707   6.227   1.767   9.968  2.1580  1.3459  2.6741
   10CHL1  H19B  708   6.173   1.591   9.971  1.8932 -1.7857 -0.0264
   10CHL1  H19C  709   6.208   1.688  10.118 -0.8721  0.5049 -0.1250
   10CHL1    C1  710   6.379   1.452   9.990  0.5700 -0.8530  0.1400
   10CHL1   H1A  711   6.293   1.417   9.928  1.3708 -3.0301  0.1810
   10CHL1   H1B  712   6.463   1.407   9.933  0.6457 -1.4782  0.7393
   10CHL1    C2  713   6.369   1.389  10.134  0.0607  0.5845 -0.6392
   10CHL1   H2A  714   6.387   1.280  10.125 -0.1505  0.2435  2.2829
   10CHL1   H2B  715   6.269   1.399  10.180 -0.2450 -1.8585 -0.6577
   10CHL1   C20  716   6.418   1.937   9.369  0.2955  0.4494 -0.4365
   10CHL1   H20  717   6.327   1.994   9.397  0.3607  0.3751 -0.0682
   10CHL1   C21  718   6.387   1.811   9.298  0.1199  0.1782  0.9151
   10CHL1  H21A  719   6.303   1.756   9.344 -0.8058  2.4237  2.0965
   10CHL1  H21B  720   6.479   1.751   9.280 -0.3141 -0.2155 -0.0571
   10CHL1  H21C  721   6.354   1.840   9.196  0.6341  0.0475  0.7096
   10CHL1   C22  722   6.493   2.037   9.281 -0.7957 -0.1243  0.3005
   10CHL1  H22A  723   6.433   2.055   9.189 -1.1183  2.8166  1.0141
   10CHL1  H22B  724   6.515   2.131   9.334  0.2074 -0.5517  0.6660
   10CHL1   C23  725   6.629   1.985   9.226 -0.3478  0.3970  0.4047
   10CHL1  H23A  726   6.686   1.935   9.307 -1.7753 -0.8826  0.6645
   10CHL1  H23B  727   6.606   1.910   9.147  0.1844  0.7800 -0.1197
   10CHL1   C24  728   6.700   2.088   9.138  0.1354  0.7792 -0.0745
   10CHL1  H24A  729   6.625   2.117   9.060 -0.5554  1.2455  0.7418
   10CHL1  H24B  730   6.716   2.184   9.191  0.1659  0.1461  1.0854
   10CHL1   C25  731   6.839   2.043   9.089  0.2127  0.3185  1.1467
   10CHL1   H25  732   6.824   1.947   9.036  0.0718  1.1190 -0.2960
   10CHL1   C26  733   6.884   2.147   8.987  0.1306  0.4588  0.2494
   10CHL1  H26A  734   6.989   2.134   8.954 -0.0571  0.1334 -0.2177
   10CHL1  H26B  735   6.819   2.129   8.899  1.0022 -2.5506  0.1120
   10CHL1  H26C  736   6.861   2.247   9.030 -0.0461  1.4849 -2.0998
   10CHL1   C27  737   6.942   2.018   9.199 -0.0676 -0.5639 -0.3198
   10CHL1  H27A  738   6.960   2.113   9.255 -0.4991  0.1166 -1.3113
   10CHL1  H27B  739   6.917   1.938   9.272 -1.3750 -0.1622 -0.3121
   10CHL1  H27C  740   7.041   2.001   9.152  0.1869 -0.7212  0.2527
   11CHL1    C3  741   3.352   4.447  10.171 -0.7490 -0.3037  0.2724
   11CHL1    H3  742   3.423   4.363  10.161 -0.1381  0.3857 -1.4752
   11CHL1    O3  743   3.349   4.474  10.309 -0.2984 -0.1669  0.6907
   11CHL1   H3'  744   3.257   4.471  10.337 -0.6581  2.0841 -0.0835
   11CHL1    C4  745   3.413   4.558  10.080  0.3718 -0.2039  0.3434
   11CHL1   H4A  746   3.356   4.653  10.087 -1.4818 -1.1680 -0.7213
   11CHL1   H4B  747   3.514   4.577  10.121 -0.0967  0.3532  1.2733
   11CHL1    C5  748   3.404   4.515   9.933 -0.6430  0.6146  0.0511
   11CHL1    C6  749   3.513   4.520   9.855 -0.1546 -0.1846  0.2141
   11CHL1    H6  750   3.613   4.547   9.892  0.4807  0.2848 -1.7279
   11CHL1    C7  751   3.512   4.489   9.710 -0.5684 -0.6493 -0.1818
   11CHL1   H7A  752   3.582   4.550   9.648  0.6576  0.0490  1.8094
   11CHL1   H7B  753   3.548   4.384   9.696 -0.8945 -0.9391  1.0819
   11CHL1    C8  754   3.373   4.507   9.656  0.0078  0.5827 -0.2811
   11CHL1    H8  755   3.337   4.612   9.654  1.0990  1.0611  2.1271
   11CHL1   C14  756   3.365   4.458   9.513 -0.4906 -0.2822 -0.4370
   11CHL1   H14  757   3.405   4.355   9.524 -2.8379 -1.2876 -0.7597
   11CHL1   C15  758   3.458   4.517   9.402 -0.4230 -0.2613  0.8191
   11CHL1  H15A  759   3.444   4.627   9.398 -2.0424 -0.4492  0.5578
   11CHL1  H15B  760   3.565   4.496   9.423 -0.6368 -0.1669  2.1290
   11CHL1   C16  761   3.405   4.465   9.268  0.3587 -0.9772 -0.4953
   11CHL1  H16A  762   3.372   4.556   9.213 -1.1060 -0.6792  0.8009
   11CHL1  H16B  763   3.473   4.409   9.201  2.4141 -0.0641  0.7314
   11CHL1   C17  764   3.275   4.388   9.302  1.4202 -0.2783 -0.2879
   11CHL1   H17  765   3.288   4.279   9.315  1.3947 -0.2269  0.1821
   11CHL1   C13  766   3.232   4.443   9.442 -0.1878  0.3739 -0.2910
   11CHL1   C18  767   3.158   4.581   9.439  0.3296 -0.7434  0.1220
   11CHL1  H18A  768   3.062   4.574   9.383 -0.2865  0.5137  0.9708
   11CHL1  H18B  769   3.130   4.608   9.543 -3.1965 -2.3066 -0.2727
   11CHL1  H18C  770   3.232   4.648   9.391  2.1330 -2.4546  0.3897
   11CHL1   C12  771   3.161   4.335   9.526  0.4402 -0.1672 -1.2115
   11CHL1  H12A  772   3.056   4.318   9.493 -0.1315  0.6591  0.0971
   11CHL1  H12B  773   3.220   4.242   9.512  0.9296  0.2088 -1.6879
   11CHL1   C11  774   3.150   4.371   9.676  0.5602  1.2114 -0.4386
   11CHL1  H11A  775   3.069   4.446   9.682  0.7541  1.4466 -0.7761
   11CHL1  H11B  776   3.123   4.277   9.730  0.5345  1.3155 -0.2691
   11CHL1    C9  777   3.283   4.412   9.742  0.8618  0.0324  0.3443
   11CHL1    H9  778   3.340   4.318   9.757 -0.9488 -0.8606  2.2064
   11CHL1   C10  779   3.267   4.472   9.886  0.2688  0.7715  0.2130
   11CHL1   C19  780   3.176   4.596   9.882 -0.1733  0.9690  0.1809
   11CHL1  H19A  781   3.159   4.632   9.986  0.1005  0.1857  0.5057
   11CHL1  H19B  782   3.213   4.682   9.822  0.6781  0.3151 -0.2484
   11CHL1  H19C  783   3.078   4.573   9.835 -0.1575  0.1607  0.5284
   11CHL1    C1  784   3.206   4.361   9.976 -0.1788  0.9619 -0.6643
   11CHL1   H1A  785   3.108   4.320   9.944 -0.2539 -1.1926  1.8997
   11CHL1   H1B  786   3.274   4.273   9.970 -1.6572 -0.8357  4.1130
   11CHL1    C2  787   3.212   4.405  10.124 -0.4328 -0.3229 -0.4293
   11CHL1   H2A  788   3.183   4.326  10.196 -1.1216  0.2964 -0.0050
   11CHL1   H2B  789   3.139   4.488  10.138  0.4398  0.9323 -2.7943
   11CHL1   C20  790   3.172   4.388   9.186 -0.4247  0.4195  1.3374
   11CHL1   H20  791   3.122   4.487   9.180  2.2856  1.9464  2.4444
   11CHL1   C21  792   3.064   4.288   9.216  0.1202 -0.0868  0.8166
   11CHL1  H21A  793   3.018   4.329   9.309 -1.3923 -0.5068  0.2912
   11CHL1  H21B  794   3.091   4.180   9.218 -1.6182 -0.6130 -0.6776
   11CHL1  H21C  795   2.980   4.287   9.143 -1.0945  2.4178  2.0777
   11CHL1   C22  796   3.240   4.355   9.046 -0.1262  0.3938 -0.5821
   11CHL1  H22A  797   3.319   4.429   9.023  0.7523 -0.9653 -2.1861
   11CHL1  H22B  798   3.291   4.256   9.050 -0.0020  0.3685 -2.3190
   11CHL1   C23  799   3.142   4.335   8.926  1.2955 -0.3217 -0.1281
   11CHL1  H23A  800   3.062   4.260   8.942 -0.3188  1.0361 -1.4508
   11CHL1  H23B  801   3.083   4.428   8.913 -1.1528 -1.5792  1.4630
   11CHL1   C24  802   3.214   4.311   8.793  0.7949  0.5255 -0.6079
   11CHL1  H24A  803   3.155   4.342   8.704  0.7077 -0.6236 -0.9560
   11CHL1  H24B  804   3.303   4.378   8.786  0.3018  1.0357 -3.3539
   11CHL1   C25  805   3.272   4.169   8.783 -0.3562  0.5469  0.8118
   11CHL1   H25  806   3.336   4.140   8.869  1.9872 -0.9019 -1.3180
   11CHL1   C26  807   3.157   4.065   8.764 -0.8803 -0.3259 -0.2505
   11CHL1  H26A  808   3.092   4.055   8.854  0.5046 -2.0122  0.6366
   11CHL1  H26B  809   3.086   4.111   8.693 -1.2999  3.3688  2.3076
   11CHL1  H26C  810   3.197   3.962   8.747 -0.3978 -0.4096  1.2629
   11CHL1   C27  811   3.369   4.164   8.656  0.6691  0.4722 -0.2277
   11CHL1  H27A  812   3.320   4.208   8.566  1.0820 -1.9189 -1.7096
   11CHL1  H27B  813   3.470   4.207   8.671  1.6686 -1.7216 -0.3962
   11CHL1  H27C  814   3.393   4.058   8.634  1.3067  0.7404 -0.8493
   12CHL1    C3  815   4.820   1.159  10.368  0.3137  0.0058  1.7381
   12CHL1    H3  816   4.736   1.198  10.306 -0.6709 -2.6664  1.2538
   12CHL1    O3  817   4.796   1.174  10.500 -0.0356  0.3114 -0.4693
   12CHL1   H3'  818   4.778   1.268  10.499 -1.9566  0.0109 -2.8493
   12CHL1    C4  819   4.811   1.012  10.330 -0.1052  0.1145 -0.2837
   12CHL1   H4A  820   4.896   0.961  10.380 -0.5467 -0.8625 -0.5127
   12CHL1   H4B  821   4.720   0.962  10.370  0.5173 -0.6372  0.2318
   12CHL1    C5  822   4.809   0.992  10.177  0.4846  0.0444 -0.2441
   12CHL1    C6  823   4.704   0.938  10.116  0.2569 -0.3578 -0.0082
   12CHL1    H6  824   4.627   0.897  10.183  0.9923 -1.8253 -0.0152
   12CHL1    C7  825   4.697   0.929   9.964 -0.0116 -0.4422 -0.3948
   12CHL1   H7A  826   4.659   0.830   9.932 -3.6523  0.3986  0.8573
   12CHL1   H7B  827   4.618   1.001   9.934 -0.5980 -0.3782  1.1691
   12CHL1    C8  828   4.834   0.951   9.896  0.1589  0.3285 -0.1168
   12CHL1    H8  829   4.900   0.862   9.907  1.7792  1.5880  0.9377
   12CHL1   C14  830   4.805   0.972   9.741 -0.0511 -0.2662  0.9284
   12CHL1   H14  831   4.746   1.066   9.729 -0.9124 -0.3823  3.7013
   12CHL1   C15  832   4.731   0.862   9.653  0.9408 -0.3301 -0.0392
   12CHL1  H15A  833   4.755   0.756   9.676 -0.8467 -0.9769 -0.9237
   12CHL1  H15B  834   4.625   0.890   9.670  1.3356 -0.4062  3.0437
   12CHL1   C16  835   4.771   0.895   9.505 -0.3528 -0.6580 -0.3798
   12CHL1  H16A  836   4.807   0.803   9.453 -1.1606 -0.0570 -2.0674
   12CHL1  H16B  837   4.685   0.937   9.450 -1.7362 -0.3441  1.8998
   12CHL1   C17  838   4.881   0.999   9.514 -0.0969  0.4311  0.9349
   12CHL1   H17  839   4.822   1.092   9.496 -0.7656  0.0977  1.3826
   12CHL1   C13  840   4.932   0.999   9.662 -0.6072 -0.4109  0.2645
   12CHL1   C18  841   5.037   0.883   9.666  0.2122  0.0018 -0.3637
   12CHL1  H18A  842   4.994   0.790   9.623  0.1166 -0.5628  0.8988
   12CHL1  H18B  843   5.129   0.908   9.609 -0.5277 -2.0598 -2.6210
   12CHL1  H18C  844   5.066   0.869   9.772  0.5952 -0.8827 -0.5752
   12CHL1   C12  845   4.988   1.129   9.715  0.1532  0.1982 -0.6507
   12CHL1  H12A  846   5.083   1.149   9.661  1.7232  0.7300  2.1125
   12CHL1  H12B  847   4.918   1.212   9.693  1.4515  1.2230 -1.0117
   12CHL1   C11  848   5.019   1.116   9.870 -0.4814  0.2209  0.5553
   12CHL1  H11A  849   5.105   1.046   9.884 -0.9899 -0.9735 -1.8058
   12CHL1  H11B  850   5.054   1.215   9.905 -0.2673  0.6611 -0.8718
   12CHL1    C9  851   4.894   1.078   9.952 -0.6360  0.4475 -0.0757
   12CHL1    H9  852   4.813   1.152   9.933 -0.6585  0.4260 -0.0620
   12CHL1   C10  853   4.927   1.062  10.105  0.0748  0.2117 -0.3819
   12CHL1   C19  854   5.053   0.981  10.125 -1.0373  0.2979 -0.5548
   12CHL1  H19A  855   5.072   0.948  10.230 -0.5134  2.0286 -0.0651
   12CHL1  H19B  856   5.063   0.903  10.046  0.1324  0.6661 -0.7993
   12CHL1  H19C  857   5.143   1.042  10.104  2.2790 -3.6866  0.5873
   12CHL1    C1  858   4.957   1.204  10.161 -0.1996 -0.4010 -0.3512
   12CHL1   H1A  859   5.056   1.236  10.122 -0.4423 -0.6631 -1.2077
   12CHL1   H1B  860   4.880   1.273  10.122  0.2924  0.0358 -0.5432
   12CHL1    C2  861   4.957   1.207  10.309  0.2423 -0.7009 -0.6215
   12CHL1   H2A  862   4.975   1.315  10.326 -0.2140 -0.6351 -0.5354
   12CHL1   H2B  863   5.036   1.139  10.348  0.9892 -0.2742 -1.3504
   12CHL1   C20  864   4.989   1.004   9.398  0.2556 -0.1076  0.5322
   12CHL1   H20  865   5.094   0.988   9.430  0.0970  0.5112  1.4101
   12CHL1   C21  866   4.974   1.144   9.327 -0.3324  0.0076 -0.4848
   12CHL1  H21A  867   4.996   1.217   9.408 -0.6844  1.1421 -1.3865
   12CHL1  H21B  868   4.875   1.165   9.281 -0.1942 -1.6249 -1.6075
   12CHL1  H21C  869   5.052   1.150   9.248 -0.1359  1.5796 -0.2121
   12CHL1   C22  870   4.964   0.894   9.280  0.1122 -0.2727 -0.2397
   12CHL1  H22A  871   4.968   0.795   9.330  0.1240  0.6569  1.6803
   12CHL1  H22B  872   4.863   0.912   9.238 -0.3590 -0.6103  0.7263
   12CHL1   C23  873   5.081   0.893   9.179 -0.2210 -0.3241 -1.4166
   12CHL1  H23A  874   5.095   0.987   9.121  0.6601 -0.0907 -0.8544
   12CHL1  H23B  875   5.177   0.903   9.234 -0.2386  0.8543 -1.5846
   12CHL1   C24  876   5.081   0.767   9.099  0.5436  0.1678 -0.3977
   12CHL1  H24A  877   5.068   0.683   9.170  3.4952 -0.7172 -0.7591
   12CHL1  H24B  878   4.994   0.771   9.030 -2.0283  1.4340  2.6357
   12CHL1   C25  879   5.208   0.742   9.013 -0.1492  0.4467  0.0673
   12CHL1   H25  880   5.296   0.754   9.080 -1.2807 -1.5555  2.0536
   12CHL1   C26  881   5.230   0.594   8.973  0.6777  0.2445  0.4473
   12CHL1  H26A  882   5.262   0.521   9.051 -2.0158  0.5248  1.9539
   12CHL1  H26B  883   5.137   0.550   8.931  1.2323  0.9567 -1.6126
   12CHL1  H26C  884   5.296   0.590   8.884 -0.2828 -1.0692 -0.2343
   12CHL1   C27  885   5.212   0.843   8.889  0.3324  0.2841  0.4990
   12CHL1  H27A  886   5.318   0.845   8.855 -0.1441  1.6998 -1.0213
   12CHL1  H27B  887   5.155   0.799   8.805 -1.0210  0.1572  1.4537
   12CHL1  H27C  888   5.192   0.950   8.909  1.0229  0.6762 -0.7828
   13CHL1    C3  889   4.420   3.502  10.281  1.1075 -0.8115  0.0731
   13CHL1    H3  890   4.387   3.421  10.213  1.1531 -0.2262 -0.6642
   13CHL1    O3  891   4.391   3.483  10.421  0.6360 -0.3207 -0.1547
   13CHL1   H3'  892   4.394   3.571  10.459 -3.2797 -0.4210  0.8096
   13CHL1    C4  893   4.561   3.502  10.269  0.2765  0.3145  0.2830
   13CHL1   H4A  894   4.601   3.593  10.320  0.6801  1.0965 -1.3235
   13CHL1   H4B  895   4.611   3.420  10.323 -3.6775 -2.0036  0.7557
   13CHL1    C5  896   4.606   3.514  10.125  0.0956 -0.0014  0.1545
   13CHL1    C6  897   4.678   3.421  10.060 -0.3351 -0.1067  0.6797
   13CHL1    H6  898   4.714   3.335  10.119 -2.4149 -0.8548  0.9379
   13CHL1    C7  899   4.732   3.423   9.921 -0.6114  0.5763  0.7938
   13CHL1   H7A  900   4.841   3.404   9.907 -0.3632  1.8575  0.9236
   13CHL1   H7B  901   4.681   3.346   9.858  0.8391  1.4543 -1.5890
   13CHL1    C8  902   4.705   3.557   9.850 -0.6086 -0.7457 -0.0077
   13CHL1    H8  903   4.790   3.625   9.874  2.5963 -3.0860 -3.5517
   13CHL1   C14  904   4.702   3.528   9.697 -0.3402 -0.4618  0.0328
   13CHL1   H14  905   4.625   3.450   9.679 -0.3796 -0.0197 -1.9806
   13CHL1   C15  906   4.820   3.443   9.635  0.2146  0.0017  0.2229
   13CHL1  H15A  907   4.920   3.468   9.677  0.8757 -2.0974  0.0172
   13CHL1  H15B  908   4.795   3.337   9.654 -2.5475  0.4457 -0.5800
   13CHL1   C16  909   4.810   3.473   9.487  0.4343 -0.0463 -0.1728
   13CHL1  H16A  910   4.909   3.493   9.441 -0.5890  0.7761 -2.1728
   13CHL1  H16B  911   4.762   3.389   9.432  1.2452 -0.7805  0.2330
   13CHL1   C17  912   4.714   3.589   9.478  0.0213 -0.7950  0.0314
   13CHL1   H17  913   4.612   3.556   9.449 -0.2655 -1.4181  1.6503
   13CHL1   C13  914   4.688   3.649   9.618  0.5914  0.4026 -0.6293
   13CHL1   C18  915   4.799   3.756   9.645  0.2702 -0.3988 -0.3293
   13CHL1  H18A  916   4.797   3.836   9.568  0.0398 -2.1086 -2.1767
   13CHL1  H18B  917   4.789   3.800   9.747 -2.3975  0.7087 -0.9933
   13CHL1  H18C  918   4.898   3.705   9.641  0.4497 -0.0117 -0.9654
   13CHL1   C12  919   4.541   3.696   9.644  0.0417 -0.1425 -0.4164
   13CHL1  H12A  920   4.521   3.789   9.587  2.5381  0.2219 -0.8262
   13CHL1  H12B  921   4.458   3.632   9.608 -1.3638  1.2287  0.2855
   13CHL1   C11  922   4.521   3.725   9.794 -0.0990 -0.6289 -0.9629
   13CHL1  H11A  923   4.584   3.809   9.830  0.0775 -0.8528 -0.7464
   13CHL1  H11B  924   4.414   3.748   9.814 -0.4246 -2.3995 -0.5214
   13CHL1    C9  925   4.568   3.611   9.891 -0.5664  0.4329  0.4685
   13CHL1    H9  926   4.494   3.531   9.868 -1.9052  1.8047 -0.1717
   13CHL1   C10  927   4.554   3.630  10.042 -0.4870 -0.5929 -0.4330
   13CHL1   C19  928   4.628   3.760  10.090 -0.1783  0.1743 -0.6035
   13CHL1  H19A  929   4.569   3.854  10.091 -1.4729 -0.6255 -0.0259
   13CHL1  H19B  930   4.641   3.759  10.200 -0.8231  1.9651 -0.4883
   13CHL1  H19C  931   4.729   3.772  10.043  0.2081 -1.4981 -0.2645
   13CHL1    C1  932   4.403   3.641  10.077  0.1559 -0.7206 -0.2533
   13CHL1   H1A  933   4.372   3.735  10.025 -1.4303 -1.2441 -0.3142
   13CHL1   H1B  934   4.342   3.569  10.018  2.2540  0.1485 -3.7866
   13CHL1    C2  935   4.366   3.638  10.227 -0.2540  0.9412  0.0267
   13CHL1   H2A  936   4.257   3.654  10.236 -0.4300  2.0583 -3.0482
   13CHL1   H2B  937   4.423   3.719  10.279 -0.8311  1.6702 -0.4509
   13CHL1   C20  938   4.758   3.689   9.357  0.4225 -0.4720 -1.1679
   13CHL1   H20  939   4.852   3.739   9.388  0.7969 -0.8759 -1.6368
   13CHL1   C21  940   4.645   3.794   9.341  0.5259  0.3671  0.0554
   13CHL1  H21A  941   4.669   3.862   9.256  1.1909  0.7326  0.5280
   13CHL1  H21B  942   4.624   3.856   9.431  1.8650 -0.2846  0.8408
   13CHL1  H21C  943   4.554   3.739   9.309  0.9436  0.1203 -0.7243
   13CHL1   C22  944   4.782   3.613   9.224 -0.1634 -0.0180  0.1546
   13CHL1  H22A  945   4.856   3.530   9.223 -1.0928 -0.8764 -1.1690
   13CHL1  H22B  946   4.691   3.566   9.183  0.2140 -0.1809 -0.5099
   13CHL1   C23  947   4.828   3.703   9.105  0.4415 -0.0894 -0.3146
   13CHL1  H23A  948   4.752   3.776   9.069  2.4821  1.9278 -0.8142
   13CHL1  H23B  949   4.914   3.761   9.144 -0.4004  0.8864  0.1220
   13CHL1   C24  950   4.875   3.624   8.984  0.0457  0.1711  0.5707
   13CHL1  H24A  951   4.930   3.540   9.033  1.0852  0.2495 -0.4204
   13CHL1  H24B  952   4.797   3.577   8.921  1.1702 -1.1383  0.1094
   13CHL1   C25  953   4.969   3.701   8.892  0.1413 -0.4019 -0.4354
   13CHL1   H25  954   4.923   3.797   8.863  0.4999  0.9371  2.9653
   13CHL1   C26  955   5.102   3.729   8.965  0.0115  1.2341  0.3246
   13CHL1  H26A  956   5.132   3.639   9.023  0.4962  2.9481  2.9005
   13CHL1  H26B  957   5.184   3.769   8.903  1.0770 -1.6160 -0.2713
   13CHL1  H26C  958   5.099   3.812   9.039 -1.2706  0.0399  1.6858
   13CHL1   C27  959   4.998   3.624   8.760  0.3890 -0.3645 -0.1827
   13CHL1  H27A  960   5.032   3.518   8.767  2.9325  0.2851 -1.5400
   13CHL1  H27B  961   4.907   3.621   8.695 -0.0064  1.6833  0.2063
   13CHL1  H27C  962   5.068   3.688   8.702 -1.0453  0.6017 -0.9019
   14CHL1    C3  963   3.358   5.374  10.408 -0.0259 -0.4687 -0.1713
   14CHL1    H3  964   3.405   5.274  10.409  1.6085  0.2723  1.1465
   14CHL1    O3  965   3.301   5.402  10.538  0.2642 -0.2320 -0.8099
   14CHL1   H3'  966   3.212   5.423  10.508 -0.8633 -1.0474  1.7051
   14CHL1    C4  967   3.469   5.480  10.372 -0.2847 -1.1007  0.1720
   14CHL1   H4A  968   3.417   5.578  10.384  1.6064  0.3389 -2.5587
   14CHL1   H4B  969   3.553   5.485  10.444 -1.5618 -1.9367  1.8061
   14CHL1    C5  970   3.515   5.455  10.226  0.0309 -0.3587 -0.6012
   14CHL1    C6  971   3.648   5.444  10.209 -0.2985 -0.5708 -0.7630
   14CHL1    H6  972   3.712   5.456  10.297  0.8524  1.8859 -1.8490
   14CHL1    C7  973   3.716   5.438  10.076  0.2456  0.1414 -0.2530
   14CHL1   H7A  974   3.789   5.520  10.062  0.2096  0.3164  0.5512
   14CHL1   H7B  975   3.770   5.341  10.076  0.0068  0.0061 -0.7028
   14CHL1    C8  976   3.621   5.446   9.959  0.4980  0.0254 -0.2284
   14CHL1    H8  977   3.604   5.553   9.936 -1.3393 -0.0260  0.7123
   14CHL1   C14  978   3.683   5.379   9.840 -0.2297 -0.3657 -0.3503
   14CHL1   H14  979   3.675   5.269   9.855  2.9564 -0.7150 -0.4284
   14CHL1   C15  980   3.825   5.419   9.810  0.6176 -0.5491  0.6743
   14CHL1  H15A  981   3.841   5.528   9.822  3.4302 -0.6173 -1.3987
   14CHL1  H15B  982   3.900   5.367   9.874 -0.4294 -1.6874  1.0333
   14CHL1   C16  983   3.842   5.377   9.660  0.4528 -0.4402 -0.6754
   14CHL1  H16A  984   3.867   5.475   9.614 -1.7434 -0.7448 -2.7081
   14CHL1  H16B  985   3.917   5.295   9.656  1.9131  0.8191 -0.1018
   14CHL1   C17  986   3.703   5.337   9.613 -0.0208 -0.3353  0.0919
   14CHL1   H17  987   3.695   5.232   9.648  0.0173 -0.2912  0.2353
   14CHL1   C13  988   3.607   5.410   9.710 -0.0344  0.0867  0.3594
   14CHL1   C18  989   3.598   5.568   9.676 -0.1410  0.3890  0.6114
   14CHL1  H18A  990   3.535   5.577   9.584  0.4289 -0.7745  0.0802
   14CHL1  H18B  991   3.557   5.631   9.758  1.1752  1.4463  0.4769
   14CHL1  H18C  992   3.693   5.616   9.647  0.0202 -0.2584  0.0263
   14CHL1   C12  993   3.469   5.359   9.731  0.4046 -0.0889 -0.2929
   14CHL1  H12A  994   3.405   5.394   9.647  0.2579  1.5852  0.4709
   14CHL1  H12B  995   3.459   5.248   9.724 -0.0700 -0.0297 -0.5669
   14CHL1   C11  996   3.398   5.396   9.857  0.5354 -0.5629 -0.3270
   14CHL1  H11A  997   3.361   5.500   9.846  0.6294 -0.1489  2.6019
   14CHL1  H11B  998   3.309   5.334   9.882  0.0373  0.8444  1.5803
   14CHL1    C9  999   3.488   5.381   9.987 -0.1994 -0.7331 -0.2537
   14CHL1    H9 1000   3.514   5.274  10.007 -2.0372 -1.5674 -2.0202
   14CHL1   C10 1001   3.413   5.439  10.116 -0.2792  0.5276  0.6997
   14CHL1   C19 1002   3.349   5.584  10.089 -0.2173  0.3088  0.3647
   14CHL1  H19A 1003   3.276   5.583  10.005  0.3422 -0.5107 -0.1352
   14CHL1  H19B 1004   3.293   5.629  10.173  0.1735 -0.1786  0.8926
   14CHL1  H19C 1005   3.435   5.648  10.059 -1.3898  0.7610 -2.2662
   14CHL1    C1 1006   3.305   5.340  10.162  0.6320  0.0143 -0.0859
   14CHL1   H1A 1007   3.222   5.341  10.088 -0.6001  1.2205  1.2396
   14CHL1   H1B 1008   3.354   5.241  10.162 -0.5611 -0.6214  1.5704
   14CHL1    C2 1009   3.249   5.366  10.304  0.7032 -0.0076  0.3307
   14CHL1   H2A 1010   3.173   5.287  10.322 -1.1390  1.5051 -0.4329
   14CHL1   H2B 1011   3.201   5.466  10.308  0.9148  0.2966 -2.6425
   14CHL1   C20 1012   3.678   5.356   9.465  0.1629  0.1175 -0.1126
   14CHL1   H20 1013   3.678   5.465   9.446 -2.0206  0.3938  1.1974
   14CHL1   C21 1014   3.545   5.293   9.439 -0.4021 -0.0612 -1.0717
   14CHL1  H21A 1015   3.540   5.264   9.332  2.4441 -0.0698 -1.2672
   14CHL1  H21B 1016   3.470   5.372   9.465 -0.6181 -0.8643  0.8945
   14CHL1  H21C 1017   3.531   5.206   9.506 -3.4733 -0.3380 -1.8898
   14CHL1   C22 1018   3.792   5.301   9.376 -0.0105 -0.2434 -0.8150
   14CHL1  H22A 1019   3.877   5.371   9.394  0.4040 -0.6240 -1.2540
   14CHL1  H22B 1020   3.840   5.210   9.418  1.6143  0.7993 -0.2831
   14CHL1   C23 1021   3.766   5.302   9.229 -0.1099  0.8710  0.2888
   14CHL1  H23A 1022   3.689   5.229   9.198 -0.0068  1.8749 -2.6233
   14CHL1  H23B 1023   3.748   5.410   9.210 -0.4642  0.7300 -0.1755
   14CHL1   C24 1024   3.898   5.277   9.139 -0.1045 -0.1808 -0.2438
   14CHL1  H24A 1025   3.981   5.333   9.187 -0.9603 -0.4758  1.7203
   14CHL1  H24B 1026   3.924   5.169   9.150 -0.6894 -0.0837  3.1133
   14CHL1   C25 1027   3.885   5.327   8.994  0.2533  0.0584  0.0850
   14CHL1   H25 1028   3.855   5.431   9.017  1.9553  0.6390 -0.1426
   14CHL1   C26 1029   4.022   5.333   8.919 -1.0767 -0.0981  0.0286
   14CHL1  H26A 1030   4.028   5.395   8.827  1.2866  0.8132  0.7383
   14CHL1  H26B 1031   4.093   5.386   8.985  0.8915 -1.8377 -0.5599
   14CHL1  H26C 1032   4.067   5.236   8.888 -1.1793 -0.5567  1.2758
   14CHL1   C27 1033   3.781   5.257   8.904 -0.0111 -0.0001 -0.3376
   14CHL1  H27A 1034   3.782   5.318   8.811  1.5974 -0.1677 -0.4552
   14CHL1  H27B 1035   3.813   5.155   8.876 -2.2272 -1.4936  2.0684
   14CHL1  H27C 1036   3.684   5.255   8.958  1.3279  0.1830  2.2843
   15CHL1    C3 1037   4.140   4.822  10.214 -0.6702  0.5851  0.2501
   15CHL1    H3 1038   4.235   4.766  10.228 -1.4654 -0.4784  1.6937
   15CHL1    O3 1039   4.073   4.811  10.337 -0.3659 -0.1691  0.5949
   15CHL1   H3' 1040   4.123   4.873  10.391  0.2065  1.1670 -1.3361
   15CHL1    C4 1041   4.170   4.970  10.175 -0.1940 -0.4469 -0.4009
   15CHL1   H4A 1042   4.080   5.031  10.197 -0.1610  0.0607 -1.6468
   15CHL1   H4B 1043   4.244   5.011  10.248  0.6393  0.7794 -1.8828
   15CHL1    C5 1044   4.227   4.988  10.037  0.0165  0.5933  0.7266
   15CHL1    C6 1045   4.333   5.068  10.010 -0.1049 -0.4865 -0.7424
   15CHL1    H6 1046   4.390   5.120  10.087 -0.2404  0.1511 -1.0667
   15CHL1    C7 1047   4.382   5.077   9.871 -0.3680 -0.6914 -0.0325
   15CHL1   H7A 1048   4.418   5.179   9.844  0.9470 -1.7092 -2.4098
   15CHL1   H7B 1049   4.464   5.005   9.852 -0.4347 -0.5063 -1.1145
   15CHL1    C8 1050   4.275   5.046   9.760 -0.7394 -0.1125 -0.3320
   15CHL1    H8 1051   4.209   5.134   9.747 -0.4256 -0.1922 -3.2986
   15CHL1   C14 1052   4.347   5.045   9.622 -0.3763  1.0841 -0.3166
   15CHL1   H14 1053   4.401   4.949   9.617 -1.5398  0.4416 -1.1055
   15CHL1   C15 1054   4.444   5.162   9.590 -0.1059 -0.6570  0.1402
   15CHL1  H15A 1055   4.394   5.249   9.637 -1.5714 -0.6088 -1.3960
   15CHL1  H15B 1056   4.538   5.149   9.648  0.1452 -0.0218 -0.1051
   15CHL1   C16 1057   4.454   5.147   9.434  0.2136  0.2414  0.0742
   15CHL1  H16A 1058   4.423   5.250   9.404  2.4422  0.9904  0.1849
   15CHL1  H16B 1059   4.554   5.135   9.389  0.1957  1.7413 -0.4340
   15CHL1   C17 1060   4.346   5.048   9.390 -0.5514  0.4944  0.4611
   15CHL1   H17 1061   4.399   4.950   9.392  2.3588  1.8837 -1.4615
   15CHL1   C13 1062   4.251   5.044   9.509 -0.3642  0.5175  0.9514
   15CHL1   C18 1063   4.154   5.159   9.509  0.2543  0.0453 -0.0744
   15CHL1  H18A 1064   4.207   5.251   9.543  0.3202  0.9693 -2.4901
   15CHL1  H18B 1065   4.095   5.173   9.416  0.5722 -2.4112 -0.6939
   15CHL1  H18C 1066   4.073   5.145   9.583 -0.2097  0.5074 -0.4860
   15CHL1   C12 1067   4.182   4.907   9.518 -0.6456 -0.2683 -0.1411
   15CHL1  H12A 1068   4.100   4.885   9.445  0.0850 -0.1152 -1.0229
   15CHL1  H12B 1069   4.257   4.826   9.510  0.0964  0.3259  0.5379
   15CHL1   C11 1070   4.113   4.884   9.660 -0.1659 -0.5424 -0.5931
   15CHL1  H11A 1071   4.025   4.952   9.666  1.9302  2.8919 -4.1051
   15CHL1  H11B 1072   4.088   4.776   9.659  0.6411 -0.7286 -1.2129
   15CHL1    C9 1073   4.206   4.923   9.786  0.6787  0.4894  0.2150
   15CHL1    H9 1074   4.284   4.845   9.796  0.9823  1.0324  3.2317
   15CHL1   C10 1075   4.142   4.923   9.924 -0.1639  0.6679  0.6557
   15CHL1   C19 1076   4.012   5.006   9.923 -1.1234 -0.1988  0.7259
   15CHL1  H19A 1077   3.934   4.962   9.857 -0.0809  0.5025 -1.0492
   15CHL1  H19B 1078   3.964   5.021  10.022 -1.2278 -0.4705  0.7169
   15CHL1  H19C 1079   4.020   5.105   9.873 -1.8928 -1.0124 -1.0908
   15CHL1    C1 1080   4.109   4.780   9.971  0.1955  0.2561  0.5053
   15CHL1   H1A 1081   4.036   4.729   9.906  1.0960  1.9023 -1.9323
   15CHL1   H1B 1082   4.197   4.713   9.985 -0.2361 -1.1014 -2.6197
   15CHL1    C2 1083   4.049   4.762  10.106 -0.4647 -0.0198 -0.4612
   15CHL1   H2A 1084   4.057   4.654  10.131 -0.3643 -0.0101 -0.4527
   15CHL1   H2B 1085   3.947   4.805  10.118 -0.7761 -1.2207  1.6993
   15CHL1   C20 1086   4.308   5.073   9.242 -0.1825  0.2210 -0.4625
   15CHL1   H20 1087   4.280   5.180   9.235 -1.6838  0.0775  1.8942
   15CHL1   C21 1088   4.191   4.977   9.209  0.8374 -0.0812  0.4448
   15CHL1  H21A 1089   4.153   4.990   9.106  0.8477 -0.9303  0.3195
   15CHL1  H21B 1090   4.095   5.001   9.260 -0.1173 -0.7383 -0.9703
   15CHL1  H21C 1091   4.208   4.867   9.219 -0.9256 -0.3914  0.3886
   15CHL1   C22 1092   4.429   5.056   9.146  0.6826  0.5728  0.2032
   15CHL1  H22A 1093   4.525   5.108   9.164  1.0571 -0.2655  0.6812
   15CHL1  H22B 1094   4.461   4.950   9.157  3.6131  1.3586 -0.1071
   15CHL1   C23 1095   4.387   5.069   8.998 -0.7511  0.5722 -0.0976
   15CHL1  H23A 1096   4.315   4.990   8.969 -1.2346  0.8738  0.2491
   15CHL1  H23B 1097   4.339   5.168   8.982  2.1048  1.8989 -1.0446
   15CHL1   C24 1098   4.489   5.056   8.886 -0.0817  0.5775  0.3293
   15CHL1  H24A 1099   4.578   5.119   8.910  1.1685 -0.7834 -0.5263
   15CHL1  H24B 1100   4.535   4.955   8.880 -1.0562  0.1361  0.1287
   15CHL1   C25 1101   4.444   5.092   8.741  0.6411 -0.1792 -0.2551
   15CHL1   H25 1102   4.406   5.196   8.756  3.2080  0.6167  1.4603
   15CHL1   C26 1103   4.569   5.109   8.654  0.2525  0.6805 -0.2806
   15CHL1  H26A 1104   4.647   5.154   8.719 -1.5356 -0.0971  2.5878
   15CHL1  H26B 1105   4.607   5.008   8.631  1.7627  1.1154  0.2179
   15CHL1  H26C 1106   4.553   5.170   8.562  0.2451  1.1446  0.0220
   15CHL1   C27 1107   4.341   4.998   8.678 -0.2497  0.1047 -0.3041
   15CHL1  H27A 1108   4.379   4.894   8.690 -0.3113  0.1205  0.0442
   15CHL1  H27B 1109   4.244   4.998   8.732  0.6710 -0.0425  1.4053
   15CHL1  H27C 1110   4.336   5.017   8.568 -0.2349  0.3415 -0.2659
   16CHL1    C3 1111   2.704   0.193  10.217  0.1359 -0.5561 -0.4836
   16CHL1    H3 1112   2.771   0.126  10.159  0.6258 -1.8419  1.4745
   16CHL1    O3 1113   2.713   0.172  10.357 -0.1688  0.5413 -0.1609
   16CHL1   H3' 1114   2.636   0.117  10.374 -1.2300  2.3761  1.4843
   16CHL1    C4 1115   2.738   0.337  10.182 -0.1106  0.6199 -0.3682
   16CHL1   H4A 1116   2.675   0.403  10.245 -2.0597 -1.4553 -0.0032
   16CHL1   H4B 1117   2.843   0.360  10.208 -0.1779  1.9188 -1.1730
   16CHL1    C5 1118   2.733   0.349  10.035  0.1797 -0.0762 -0.1556
   16CHL1    C6 1119   2.833   0.395   9.961 -0.3931 -1.4480  0.0136
   16CHL1    H6 1120   2.923   0.418  10.020 -1.6498  0.2061  1.3698
   16CHL1    C7 1121   2.837   0.429   9.812  0.3252  0.2493  0.1189
   16CHL1   H7A 1122   2.892   0.522   9.787 -1.0397  1.1671  0.3914
   16CHL1   H7B 1123   2.882   0.342   9.761 -1.4450 -0.4090 -0.3979
   16CHL1    C8 1124   2.696   0.434   9.754  0.3396  0.2707 -0.2862
   16CHL1    H8 1125   2.635   0.523   9.781  0.1828 -0.2984  1.3339
   16CHL1   C14 1126   2.707   0.423   9.601  0.0809 -0.0508 -0.1949
   16CHL1   H14 1127   2.766   0.331   9.584  0.9466  0.2075  1.2277
   16CHL1   C15 1128   2.800   0.523   9.523  0.2830 -0.2974 -0.2798
   16CHL1  H15A 1129   2.785   0.627   9.558 -3.0713 -1.2114  1.4668
   16CHL1  H15B 1130   2.909   0.511   9.541  0.1914  0.2904  0.7101
   16CHL1   C16 1131   2.751   0.517   9.380 -0.4554  0.0297  0.2725
   16CHL1  H16A 1132   2.706   0.615   9.351  1.7412  1.4064  1.1854
   16CHL1  H16B 1133   2.840   0.495   9.316 -0.4931 -1.3089  0.6545
   16CHL1   C17 1134   2.643   0.407   9.379  0.2854  0.6186 -0.3908
   16CHL1   H17 1135   2.704   0.314   9.382  0.7111  0.8777  3.2754
   16CHL1   C13 1136   2.579   0.423   9.524 -0.3917  0.5442 -0.2376
   16CHL1   C18 1137   2.497   0.551   9.537 -1.4388  0.1113 -0.1386
   16CHL1  H18A 1138   2.541   0.636   9.480  0.8465 -1.1935 -0.4533
   16CHL1  H18B 1139   2.391   0.530   9.510 -1.4051 -1.7146  1.0066
   16CHL1  H18C 1140   2.494   0.601   9.636  0.0504 -0.3785  0.1811
   16CHL1   C12 1141   2.504   0.294   9.576 -0.6863  0.0198  0.3959
   16CHL1  H12A 1142   2.421   0.273   9.505  0.7994 -0.9256 -1.1365
   16CHL1  H12B 1143   2.572   0.211   9.546  1.4285  1.3997  1.1787
   16CHL1   C11 1144   2.483   0.288   9.726 -1.0395  0.1815 -0.6921
   16CHL1  H11A 1145   2.416   0.370   9.758 -1.5122 -0.0662 -1.0326
   16CHL1  H11B 1146   2.430   0.194   9.753 -4.8565  2.6999  1.4115
   16CHL1    C9 1147   2.614   0.313   9.805 -0.3007 -0.3328 -0.7008
   16CHL1    H9 1148   2.674   0.221   9.789  2.9176  1.2083  1.4488
   16CHL1   C10 1149   2.607   0.316   9.965  0.0864 -0.0974  0.4079
   16CHL1   C19 1150   2.516   0.438   9.999  0.6358 -0.7267  0.0458
   16CHL1  H19A 1151   2.502   0.463  10.106  1.6604  0.7653 -0.1512
   16CHL1  H19B 1152   2.560   0.532   9.962  1.4482 -0.9876  0.3435
   16CHL1  H19C 1153   2.419   0.419   9.948  0.5201 -2.2243  0.7742
   16CHL1    C1 1154   2.546   0.186  10.021  0.5931 -0.2550 -0.4057
   16CHL1   H1A 1155   2.437   0.178  10.003 -0.5279 -0.9424  4.9627
   16CHL1   H1B 1156   2.597   0.102   9.969  0.5195 -0.5845  0.0464
   16CHL1    C2 1157   2.560   0.169  10.176 -0.5699 -0.4626  0.6911
   16CHL1   H2A 1158   2.532   0.065  10.200  0.3411 -0.8966 -0.0334
   16CHL1   H2B 1159   2.483   0.239  10.215  0.4236  0.3503  1.2431
   16CHL1   C20 1160   2.548   0.409   9.262  0.0393  0.3904 -0.7035
   16CHL1   H20 1161   2.451   0.444   9.304 -0.2485 -1.2307  0.0574
   16CHL1   C21 1162   2.526   0.260   9.216  0.2108 -0.9024  0.6395
   16CHL1  H21A 1163   2.540   0.178   9.289 -0.4238 -2.0040 -0.4449
   16CHL1  H21B 1164   2.607   0.237   9.144  0.3257 -0.9458  0.7830
   16CHL1  H21C 1165   2.426   0.258   9.168  0.4354  1.6867 -0.0951
   16CHL1   C22 1166   2.588   0.504   9.152 -0.1046 -0.3094  0.1703
   16CHL1  H22A 1167   2.568   0.606   9.193  0.1064  0.1496 -0.8289
   16CHL1  H22B 1168   2.694   0.497   9.119  0.4842  1.0242  1.6636
   16CHL1   C23 1169   2.508   0.492   9.019 -0.7910 -0.3260  0.1802
   16CHL1  H23A 1170   2.537   0.399   8.966 -0.0886 -1.1650  1.9531
   16CHL1  H23B 1171   2.401   0.475   9.045 -0.7042 -1.4018 -0.1002
   16CHL1   C24 1172   2.542   0.602   8.910 -0.3809 -0.0621 -0.0033
   16CHL1  H24A 1173   2.547   0.701   8.959  2.1693 -1.2317  2.3557
   16CHL1  H24B 1174   2.644   0.580   8.874 -0.5014  0.4569 -0.6709
   16CHL1   C25 1175   2.450   0.599   8.790 -0.1141 -0.4215  0.1190
   16CHL1   H25 1176   2.351   0.622   8.836 -0.6331 -2.1808 -0.0335
   16CHL1   C26 1177   2.487   0.717   8.695  0.0879 -0.0966 -0.5941
   16CHL1  H26A 1178   2.583   0.689   8.646  0.9957  0.9856  0.5274
   16CHL1  H26B 1179   2.404   0.710   8.621 -2.2963 -0.0757  1.9031
   16CHL1  H26C 1180   2.479   0.814   8.748  0.7482 -0.2044 -0.2942
   16CHL1   C27 1181   2.453   0.460   8.724 -0.3052  0.2404 -0.7538
   16CHL1  H27A 1182   2.547   0.422   8.680 -0.6320 -0.7420 -0.6224
   16CHL1  H27B 1183   2.407   0.384   8.790 -1.4746  2.2867  0.9395
   16CHL1  H27C 1184   2.392   0.461   8.631  1.9857 -1.6261 -2.3940
   17CHL1    C3 1185   0.747   1.141  10.514  0.7631 -1.1393  0.4498
   17CHL1    H3 1186   0.695   1.236  10.488  2.4940 -0.7298 -1.7888
   17CHL1    O3 1187   0.824   1.161  10.627  0.8221  0.6149  0.3521
   17CHL1   H3' 1188   0.809   1.084  10.681  1.1209 -0.7875 -1.4637
   17CHL1    C4 1189   0.639   1.032  10.529 -0.6642 -0.0361  0.1432
   17CHL1   H4A 1190   0.689   0.945  10.577 -1.0746  1.0609  2.7587
   17CHL1   H4B 1191   0.559   1.061  10.601 -1.7769  0.0307 -1.0865
   17CHL1    C5 1192   0.569   0.990  10.402  0.2517  0.5881  0.5740
   17CHL1    C6 1193   0.434   0.997  10.396  0.0256  0.1380  0.1138
   17CHL1    H6 1194   0.382   1.025  10.489  2.3125 -0.2752  1.5907
   17CHL1    C7 1195   0.354   0.977  10.267 -0.0019 -0.0076  0.6027
   17CHL1   H7A 1196   0.266   0.910  10.277 -0.3706  0.0468 -1.8712
   17CHL1   H7B 1197   0.320   1.077  10.235  3.4651  0.8171 -1.0312
   17CHL1    C8 1198   0.448   0.914  10.160  0.0166 -0.0093 -0.5132
   17CHL1    H8 1199   0.471   0.815  10.206  1.9858  0.0237 -1.3504
   17CHL1   C14 1200   0.376   0.921  10.033 -0.3259 -0.1766  0.5019
   17CHL1   H14 1201   0.361   1.030  10.020  2.2567  0.2405  0.5518
   17CHL1   C15 1202   0.236   0.859  10.012 -0.5119 -0.2006 -0.2789
   17CHL1  H15A 1203   0.241   0.757  10.057 -0.7377  0.4684  1.3609
   17CHL1  H15B 1204   0.158   0.924  10.058  0.1805 -0.2031  0.9502
   17CHL1   C16 1205   0.211   0.864   9.859  0.4273  0.8513  0.6434
   17CHL1  H16A 1206   0.154   0.773   9.829 -0.3567  1.3752  0.5010
   17CHL1  H16B 1207   0.147   0.948   9.827 -1.9744 -1.1277 -0.0910
   17CHL1   C17 1208   0.355   0.881   9.796 -0.0988 -0.2034  0.0301
   17CHL1   H17 1209   0.352   0.987   9.764 -1.6275 -0.5964 -1.2390
   17CHL1   C13 1210   0.458   0.879   9.911 -0.1281  0.2629 -0.3105
   17CHL1   C18 1211   0.503   0.739   9.934 -0.7604  0.4451  0.4515
   17CHL1  H18A 1212   0.553   0.694   9.845 -0.8491 -0.9574  1.0792
   17CHL1  H18B 1213   0.568   0.725  10.023 -1.5641 -0.7164  0.8741
   17CHL1  H18C 1214   0.414   0.675   9.948 -0.0743 -0.6953 -0.2159
   17CHL1   C12 1215   0.577   0.979   9.892 -0.0143 -0.4926 -0.6018
   17CHL1  H12A 1216   0.644   0.938   9.814 -0.5474 -1.7220 -0.4393
   17CHL1  H12B 1217   0.530   1.077   9.868  2.9425  1.0628 -0.4182
   17CHL1   C11 1218   0.666   0.982  10.022  0.5098 -0.0021  0.3540
   17CHL1  H11A 1219   0.715   0.883  10.034 -0.2882 -0.4724 -0.1422
   17CHL1  H11B 1220   0.739   1.065  10.013  0.7579 -0.4463 -2.8933
   17CHL1    C9 1221   0.577   0.996  10.149  0.1158 -0.1509  0.4879
   17CHL1    H9 1222   0.544   1.102  10.147 -0.2827 -0.2310  1.7907
   17CHL1   C10 1223   0.664   0.972  10.274  0.3020 -0.8107  0.1934
   17CHL1   C19 1224   0.735   0.840  10.282  0.5702 -0.4064 -0.3380
   17CHL1  H19A 1225   0.788   0.846  10.379  1.3549 -0.8483 -0.7364
   17CHL1  H19B 1226   0.657   0.762  10.294  0.5213 -0.2372  0.5021
   17CHL1  H19C 1227   0.805   0.817  10.199  0.0325 -0.0096 -0.9163
   17CHL1    C1 1228   0.777   1.078  10.275 -0.6602  0.3883 -1.1701
   17CHL1   H1A 1229   0.857   1.044  10.206 -0.0757  1.8351 -1.2425
   17CHL1   H1B 1230   0.740   1.173  10.232 -2.5606  1.5378  2.5578
   17CHL1    C2 1231   0.844   1.107  10.409 -0.5612  0.1871 -0.1777
   17CHL1   H2A 1232   0.903   1.198  10.386  1.5471 -1.1189 -0.1582
   17CHL1   H2B 1233   0.900   1.019  10.445 -3.7529 -2.6705 -1.5916
   17CHL1   C20 1234   0.388   0.797   9.675 -0.2478 -0.9800  0.6722
   17CHL1   H20 1235   0.403   0.692   9.708  3.2058 -0.3555  1.4383
   17CHL1   C21 1236   0.512   0.843   9.605  0.7680 -0.0296 -0.3057
   17CHL1  H21A 1237   0.522   0.790   9.508  3.7983  0.5389 -0.3919
   17CHL1  H21B 1238   0.606   0.831   9.662  1.8310 -1.0254 -2.1714
   17CHL1  H21C 1239   0.505   0.947   9.568  1.1035  0.3116  0.5650
   17CHL1   C22 1240   0.273   0.796   9.564  0.0988 -0.6018 -0.0180
   17CHL1  H22A 1241   0.308   0.748   9.469 -0.1112 -1.3062  0.2547
   17CHL1  H22B 1242   0.190   0.733   9.602 -0.2190 -0.4483 -0.4457
   17CHL1   C23 1243   0.218   0.938   9.528 -0.7875 -0.7958 -1.0952
   17CHL1  H23A 1244   0.121   0.958   9.578  0.4243 -0.4614  1.2295
   17CHL1  H23B 1245   0.301   1.006   9.558 -0.4853 -1.3787 -0.5919
   17CHL1   C24 1246   0.199   0.962   9.373  0.1753 -0.1415  0.5186
   17CHL1  H24A 1247   0.293   0.931   9.322  0.0879  1.0465 -0.4093
   17CHL1  H24B 1248   0.113   0.892   9.368 -0.1479  0.3114 -0.3944
   17CHL1   C25 1249   0.174   1.104   9.316 -0.1296  1.0070 -0.4755
   17CHL1   H25 1250   0.261   1.172   9.324  1.4422 -0.8560 -0.9460
   17CHL1   C26 1251   0.132   1.079   9.172 -0.1911 -0.1400  0.0557
   17CHL1  H26A 1252   0.209   1.025   9.112 -0.1642  0.5716 -0.5735
   17CHL1  H26B 1253   0.034   1.031   9.153 -0.1225 -0.0976 -0.4199
   17CHL1  H26C 1254   0.130   1.178   9.121 -0.6036 -1.0767 -1.8389
   17CHL1   C27 1255   0.068   1.177   9.391 -0.2020  0.1577 -0.2156
   17CHL1  H27A 1256   0.090   1.196   9.498  1.9639 -1.4841 -0.2819
   17CHL1  H27B 1257   0.042   1.266   9.331  0.7229  0.6770  0.1399
   17CHL1  H27C 1258  -0.026   1.117   9.395 -1.3023  1.8812  0.7950
   18CHL1    C3 1259   5.903   1.069  10.297 -0.5970  0.2169 -0.9853
   18CHL1    H3 1260   5.791   1.074  10.298 -0.6199 -0.2791 -0.3508
   18CHL1    O3 1261   5.934   1.024  10.427 -0.5678  0.3255 -0.3852
   18CHL1   H3' 1262   6.023   1.057  10.446  0.6305 -1.7945 -1.8654
   18CHL1    C4 1263   5.942   0.964  10.199 -0.1089 -0.1656  0.2687
   18CHL1   H4A 1264   6.050   0.944  10.214  0.3601 -0.5910 -2.9957
   18CHL1   H4B 1265   5.886   0.874  10.234  1.1080 -2.0942 -2.4092
   18CHL1    C5 1266   5.919   1.006  10.056 -0.1426  0.4468  0.8010
   18CHL1    C6 1267   5.836   0.932   9.976 -0.2340 -0.0555  0.0318
   18CHL1    H6 1268   5.790   0.839  10.012 -0.0460 -0.0689  0.2387
   18CHL1    C7 1269   5.831   0.965   9.824 -0.3811 -0.2316 -1.1953
   18CHL1   H7A 1270   5.832   0.874   9.761 -1.3419  0.2897 -2.0089
   18CHL1   H7B 1271   5.733   1.017   9.813  0.1656  0.8024 -1.3898
   18CHL1    C8 1272   5.943   1.064   9.780  0.1867  0.2242  0.0436
   18CHL1    H8 1273   6.037   1.005   9.770 -0.1771 -0.2857 -0.4288
   18CHL1   C14 1274   5.899   1.118   9.640  0.3937  0.7654  0.4874
   18CHL1   H14 1275   5.806   1.177   9.657  0.5828  0.6637  2.1028
   18CHL1   C15 1276   5.880   1.013   9.529  0.3104 -0.1414 -0.1405
   18CHL1  H15A 1277   5.947   0.925   9.529  0.1085 -0.2996  0.2543
   18CHL1  H15B 1278   5.775   0.977   9.533  0.0559  0.6385  0.2847
   18CHL1   C16 1279   5.898   1.100   9.394  0.3690 -0.3875  0.2386
   18CHL1  H16A 1280   5.978   1.047   9.337  0.0447 -1.9480  1.1769
   18CHL1  H16B 1281   5.801   1.106   9.341  0.6765 -0.7680 -0.3804
   18CHL1   C17 1282   5.940   1.243   9.439  0.1392 -0.9274 -0.5813
   18CHL1   H17 1283   5.847   1.297   9.467  0.8430 -0.8236  1.6780
   18CHL1   C13 1284   5.994   1.220   9.577  0.3857  0.2667 -0.1351
   18CHL1   C18 1285   6.134   1.166   9.560 -0.6019 -0.0303  0.0494
   18CHL1  H18A 1286   6.134   1.076   9.494 -1.3007  1.1839 -1.6860
   18CHL1  H18B 1287   6.213   1.230   9.515 -0.4704 -1.8037 -2.5094
   18CHL1  H18C 1288   6.171   1.127   9.657  2.2438  0.1668 -0.8643
   18CHL1   C12 1289   5.985   1.336   9.679  0.3271 -0.2802 -0.0441
   18CHL1  H12A 1290   6.043   1.422   9.638  1.8509 -0.2576  1.9934
   18CHL1  H12B 1291   5.884   1.378   9.696 -0.0682 -0.6679 -1.2724
   18CHL1   C11 1292   6.026   1.303   9.821  0.5409  0.0600  0.3305
   18CHL1  H11A 1293   6.134   1.277   9.811  0.2901 -0.3129 -1.8691
   18CHL1  H11B 1294   6.025   1.392   9.888  2.6058  1.2002 -1.0246
   18CHL1    C9 1295   5.946   1.177   9.876  0.3394  0.4243 -0.6319
   18CHL1    H9 1296   5.841   1.215   9.882 -0.1916 -1.1611  0.9020
   18CHL1   C10 1297   5.991   1.133  10.022  0.4807 -0.1724  0.2777
   18CHL1   C19 1298   6.145   1.110  10.025  0.7363  0.2016 -0.1661
   18CHL1  H19A 1299   6.185   1.080  10.124  0.6485  0.3388 -0.0876
   18CHL1  H19B 1300   6.163   1.024   9.958 -0.5754  0.4617 -0.9026
   18CHL1  H19C 1301   6.198   1.201   9.990  0.5025  0.9201  1.2452
   18CHL1    C1 1302   5.948   1.245  10.123 -0.3251 -0.0613  0.1962
   18CHL1   H1A 1303   6.009   1.333  10.093 -1.1894  0.7938  0.8843
   18CHL1   H1B 1304   5.840   1.259  10.101 -0.1203  1.1994 -0.0527
   18CHL1    C2 1305   5.979   1.201  10.268  1.2168  0.6844  0.4266
   18CHL1   H2A 1306   5.928   1.265  10.343 -0.0679 -1.0426  1.0876
   18CHL1   H2B 1307   6.089   1.190  10.282  1.2708  0.2343 -0.2913
   18CHL1   C20 1308   6.014   1.329   9.336  0.2522 -0.0289 -0.5243
   18CHL1   H20 1309   6.118   1.290   9.343  0.2538 -0.3392 -2.0313
   18CHL1   C21 1310   6.008   1.475   9.369 -0.0055 -0.6223  0.7055
   18CHL1  H21A 1311   6.083   1.518   9.439 -0.7367  1.6008  0.1926
   18CHL1  H21B 1312   5.908   1.510   9.403  0.4795  0.1084  1.4205
   18CHL1  H21C 1313   6.036   1.535   9.280 -1.0472 -0.4121  0.5085
   18CHL1   C22 1314   5.969   1.308   9.191  0.2757 -0.3920  0.1655
   18CHL1  H22A 1315   6.050   1.353   9.128  0.3589  0.2641  0.7250
   18CHL1  H22B 1316   5.982   1.201   9.166 -1.5816 -0.4327 -0.8003
   18CHL1   C23 1317   5.830   1.351   9.152 -0.0318  0.6488  0.0153
   18CHL1  H23A 1318   5.764   1.270   9.190  1.1249 -0.3814 -0.0880
   18CHL1  H23B 1319   5.798   1.448   9.195  0.4303 -0.0861  2.1508
   18CHL1   C24 1320   5.813   1.350   8.992  0.1121 -0.1125  0.7206
   18CHL1  H24A 1321   5.883   1.433   8.970 -0.6731  0.6938  1.1966
   18CHL1  H24B 1322   5.845   1.252   8.952  0.6674  0.2576  0.2349
   18CHL1   C25 1323   5.682   1.398   8.937  0.0280  0.8881 -0.1311
   18CHL1   H25 1324   5.616   1.363   9.020  1.8215  1.2990  1.5569
   18CHL1   C26 1325   5.667   1.548   8.933 -0.0189 -0.0502 -0.2552
   18CHL1  H26A 1326   5.669   1.604   9.029  0.8943  0.5794 -0.6258
   18CHL1  H26B 1327   5.738   1.585   8.856 -0.6040 -0.5598 -1.0444
   18CHL1  H26C 1328   5.563   1.565   8.901 -0.3103  2.0551  1.5760
   18CHL1   C27 1329   5.644   1.339   8.797  0.2560  0.4328 -0.2949
   18CHL1  H27A 1330   5.535   1.349   8.778 -0.2878 -2.0364  1.0996
   18CHL1  H27B 1331   5.700   1.381   8.711 -3.2976  2.2682 -1.9638
   18CHL1  H27C 1332   5.662   1.229   8.790  4.4356  1.0594 -1.9530
   19CHL1    C3 1333   0.704   4.475  10.081 -0.6360 -0.1113 -0.2106
   19CHL1    H3 1334   0.788   4.404  10.064 -0.0666  0.9242 -1.9470
   19CHL1    O3 1335   0.683   4.491  10.223 -0.2203  0.3322  0.2659
   19CHL1   H3' 1336   0.638   4.574  10.235 -2.8197 -0.7187 -1.3231
   19CHL1    C4 1337   0.737   4.605  10.022 -0.1461 -0.0820 -0.4130
   19CHL1   H4A 1338   0.658   4.681  10.042  0.2960 -0.1941  2.1947
   19CHL1   H4B 1339   0.834   4.619  10.075  0.1392 -2.4038 -0.2050
   19CHL1    C5 1340   0.760   4.577   9.872 -0.0855  0.2557  0.1246
   19CHL1    C6 1341   0.880   4.615   9.815 -0.1095 -0.2788 -0.7522
   19CHL1    H6 1342   0.950   4.669   9.880 -1.4932 -0.1741  0.7062
   19CHL1    C7 1343   0.914   4.602   9.665  0.3409 -0.3649 -0.4454
   19CHL1   H7A 1344   0.978   4.689   9.636  2.4126 -1.5492  0.3444
   19CHL1   H7B 1345   0.969   4.507   9.650 -1.5896 -1.2836 -2.2581
   19CHL1    C8 1346   0.788   4.585   9.572 -0.0647  0.7351 -0.3711
   19CHL1    H8 1347   0.730   4.680   9.574  0.4809  1.0746 -0.5433
   19CHL1   C14 1348   0.839   4.534   9.443  0.2831 -0.2130 -0.3091
   19CHL1   H14 1349   0.895   4.443   9.474 -0.8216 -0.6389  0.5118
   19CHL1   C15 1350   0.931   4.620   9.358 -0.0380 -0.4529  0.2726
   19CHL1  H15A 1351   0.875   4.714   9.339  0.6064  0.0277  0.7100
   19CHL1  H15B 1352   1.025   4.649   9.408 -0.0760  2.2474 -1.0362
   19CHL1   C16 1353   0.950   4.530   9.236  0.3975  0.4403 -0.7396
   19CHL1  H16A 1354   0.976   4.575   9.138  2.4164 -0.5619 -0.7287
   19CHL1  H16B 1355   1.042   4.472   9.259  0.2178  0.9152  1.3800
   19CHL1   C17 1356   0.822   4.432   9.222 -0.1278 -0.2552 -0.0388
   19CHL1   H17 1357   0.863   4.332   9.250  0.6347  0.4170  1.3454
   19CHL1   C13 1358   0.733   4.481   9.341 -0.1778 -0.1831 -0.3416
   19CHL1   C18 1359   0.656   4.601   9.300  0.2329 -0.1098  0.0742
   19CHL1  H18A 1360   0.560   4.572   9.252  0.5440 -2.0287  0.5360
   19CHL1  H18B 1361   0.639   4.668   9.387  2.3932  0.1019  0.3965
   19CHL1  H18C 1362   0.713   4.665   9.228 -0.5251 -0.5664 -0.9562
   19CHL1   C12 1363   0.647   4.376   9.412 -0.0679  1.0784  0.0754
   19CHL1  H12A 1364   0.568   4.341   9.342  0.0801  1.5794 -0.3461
   19CHL1  H12B 1365   0.706   4.285   9.436 -1.2342 -0.6738 -3.1921
   19CHL1   C11 1366   0.585   4.431   9.544 -0.4442 -0.2843 -0.0234
   19CHL1  H11A 1367   0.528   4.524   9.519  1.5996  0.9617 -0.2807
   19CHL1  H11B 1368   0.520   4.351   9.584 -2.4566  1.0719 -0.4312
   19CHL1    C9 1369   0.701   4.471   9.644 -0.2891  0.7149  0.1157
   19CHL1    H9 1370   0.771   4.387   9.664 -0.3994  0.4926 -0.4136
   19CHL1   C10 1371   0.651   4.518   9.783 -0.2647 -0.1929 -0.0693
   19CHL1   C19 1372   0.535   4.631   9.774 -0.6801 -0.1344 -0.0457
   19CHL1  H19A 1373   0.512   4.685   9.869 -1.6557  1.7842 -1.2984
   19CHL1  H19B 1374   0.571   4.715   9.711 -2.2115 -1.2342 -2.5190
   19CHL1  H19C 1375   0.442   4.590   9.730 -0.9427  1.3509 -0.9556
   19CHL1    C1 1376   0.596   4.395   9.864  0.5406  0.1144 -0.0337
   19CHL1   H1A 1377   0.500   4.381   9.811  0.4691  2.1783 -0.5563
   19CHL1   H1B 1378   0.652   4.300   9.848 -0.0018 -0.0535 -0.9898
   19CHL1    C2 1379   0.576   4.418  10.018  0.0269  0.5398 -0.2781
   19CHL1   H2A 1380   0.563   4.322  10.072  0.8875  2.2175  3.1715
   19CHL1   H2B 1381   0.490   4.486  10.040 -0.5318 -0.7335  1.7246
   19CHL1   C20 1382   0.749   4.429   9.091 -0.4253  0.3641 -0.3559
   19CHL1   H20 1383   0.706   4.528   9.067  0.2942  1.3112  1.9957
   19CHL1   C21 1384   0.629   4.326   9.082 -0.2079  0.3175  0.3641
   19CHL1  H21A 1385   0.665   4.247   9.150  0.1274  1.0539  1.0582
   19CHL1  H21B 1386   0.612   4.283   8.981  1.5301 -0.0761  0.2037
   19CHL1  H21C 1387   0.536   4.368   9.124 -0.7683  0.1393 -0.6594
   19CHL1   C22 1388   0.850   4.391   8.972 -0.3945  0.5485 -0.0812
   19CHL1  H22A 1389   0.949   4.439   8.985 -0.2723  0.1279  0.5616
   19CHL1  H22B 1390   0.853   4.281   8.961  2.5046  0.5006  0.3714
   19CHL1   C23 1391   0.812   4.453   8.835  0.7194 -0.4394  0.1724
   19CHL1  H23A 1392   0.707   4.428   8.811  0.1385  1.2127  0.8155
   19CHL1  H23B 1393   0.819   4.564   8.834  0.3921 -0.4029  0.8416
   19CHL1   C24 1394   0.913   4.409   8.721  0.3361  0.0449 -0.3857
   19CHL1  H24A 1395   0.909   4.300   8.740 -1.4448 -0.1011 -1.4567
   19CHL1  H24B 1396   0.874   4.432   8.620  1.4794  2.4067 -0.3529
   19CHL1   C25 1397   1.052   4.459   8.737 -0.2519  0.5816  0.3228
   19CHL1   H25 1398   1.082   4.426   8.839 -1.9218 -0.0204  0.6502
   19CHL1   C26 1399   1.137   4.369   8.641  0.0211  0.4772 -0.5664
   19CHL1  H26A 1400   1.112   4.399   8.537 -2.9298  0.8093  0.1516
   19CHL1  H26B 1401   1.247   4.377   8.654  0.3164 -2.2785 -0.8404
   19CHL1  H26C 1402   1.109   4.262   8.647 -0.4884  0.5790 -1.0903
   19CHL1   C27 1403   1.082   4.609   8.729 -0.0901  0.5358  0.0208
   19CHL1  H27A 1404   1.026   4.659   8.811  1.8321  0.6739  1.3211
   19CHL1  H27B 1405   1.189   4.622   8.755 -0.6303  0.4868  2.5236
   19CHL1  H27C 1406   1.058   4.646   8.627 -0.8646  2.5594  0.8710
   20CHL1    C3 1407   6.374   4.957  10.107 -0.7203  0.2531 -0.1920
   20CHL1    H3 1408   6.265   4.977  10.102 -1.0615 -1.7070 -2.1085
   20CHL1    O3 1409   6.413   4.931  10.240  0.0027 -0.1509 -0.0011
   20CHL1   H3' 1410   6.362   4.996  10.289 -1.6157 -0.9748 -0.5287
   20CHL1    C4 1411   6.406   4.830  10.028 -0.3946  0.6966 -0.5439
   20CHL1   H4A 1412   6.509   4.792  10.045 -0.8103 -0.1086  0.2395
   20CHL1   H4B 1413   6.340   4.745  10.056 -0.3111  0.8721  0.2250
   20CHL1    C5 1414   6.383   4.850   9.885 -0.4427 -0.5022 -0.3913
   20CHL1    C6 1415   6.306   4.769   9.817  0.2836 -1.3345  0.1983
   20CHL1    H6 1416   6.256   4.688   9.872 -2.0118 -0.3727 -0.3412
   20CHL1    C7 1417   6.268   4.786   9.671  0.3998  0.1353  0.2083
   20CHL1   H7A 1418   6.271   4.690   9.615 -2.4478 -0.3482  0.7284
   20CHL1   H7B 1419   6.163   4.819   9.661 -0.8418 -3.3829  0.1019
   20CHL1    C8 1420   6.373   4.875   9.597 -0.7922  0.2430 -0.1932
   20CHL1    H8 1421   6.469   4.820   9.595 -1.0453 -0.7126  4.2148
   20CHL1   C14 1422   6.327   4.909   9.460  0.5126  0.1765 -1.1271
   20CHL1   H14 1423   6.233   4.966   9.475 -0.2727 -1.3424  0.0013
   20CHL1   C15 1424   6.298   4.795   9.366  0.9524 -0.2686 -0.0913
   20CHL1  H15A 1425   6.385   4.726   9.369  1.2050 -0.0140 -1.1464
   20CHL1  H15B 1426   6.212   4.726   9.376  1.5497 -1.2489 -1.4788
   20CHL1   C16 1427   6.297   4.868   9.233  0.0677  0.6097  0.3460
   20CHL1  H16A 1428   6.357   4.799   9.169 -0.3700  1.4575 -1.0309
   20CHL1  H16B 1429   6.191   4.863   9.203 -0.2007 -1.5248  1.4504
   20CHL1   C17 1430   6.346   5.006   9.247  0.4880  0.0243 -0.2696
   20CHL1   H17 1431   6.262   5.075   9.272  1.7168  1.1900  0.8060
   20CHL1   C13 1432   6.414   5.004   9.386  1.0419 -0.3967  0.5207
   20CHL1   C18 1433   6.555   4.949   9.362  0.4536 -1.0212 -0.1948
   20CHL1  H18A 1434   6.610   4.916   9.452  0.7855 -0.4802 -0.2001
   20CHL1  H18B 1435   6.545   4.859   9.297  1.8998 -1.2455 -0.1314
   20CHL1  H18C 1436   6.624   5.021   9.314  1.9777 -0.2039  2.9819
   20CHL1   C12 1437   6.428   5.142   9.465 -0.0396  0.1838 -0.0138
   20CHL1  H12A 1438   6.496   5.208   9.407  0.6194  0.2760  0.8368
   20CHL1  H12B 1439   6.336   5.200   9.485 -1.5988 -2.4092  0.8945
   20CHL1   C11 1440   6.481   5.110   9.607 -0.0316 -0.1036 -0.2065
   20CHL1  H11A 1441   6.581   5.069   9.584 -0.9490 -0.9819 -3.1614
   20CHL1  H11B 1442   6.490   5.210   9.655  1.3258 -0.9687  1.4564
   20CHL1    C9 1443   6.402   5.003   9.678  0.3958 -0.5328 -0.0812
   20CHL1    H9 1444   6.301   5.047   9.692 -1.3808 -3.4835 -2.4014
   20CHL1   C10 1445   6.457   4.976   9.822  0.5323  0.7526 -0.7556
   20CHL1   C19 1446   6.604   4.941   9.823 -0.2851 -0.1315 -0.4612
   20CHL1  H19A 1447   6.635   4.852   9.764 -1.3812 -0.6892 -0.2311
   20CHL1  H19B 1448   6.656   5.029   9.780  1.6067 -0.9274  0.1113
   20CHL1  H19C 1449   6.649   4.931   9.925 -1.8658  0.6833  0.3589
   20CHL1    C1 1450   6.428   5.101   9.910  1.0691 -0.4115  0.7100
   20CHL1   H1A 1451   6.491   5.189   9.883 -1.7040  1.4038 -0.1934
   20CHL1   H1B 1452   6.325   5.133   9.884  1.7959  1.8322  0.3153
   20CHL1    C2 1453   6.449   5.081  10.057  0.8883  0.1418  0.0542
   20CHL1   H2A 1454   6.402   5.170  10.103 -0.5446 -0.2767 -0.5376
   20CHL1   H2B 1455   6.559   5.067  10.071  0.6183 -0.7866  1.5369
   20CHL1   C20 1456   6.426   5.045   9.122 -0.2888 -0.0687 -0.4717
   20CHL1   H20 1457   6.522   4.990   9.108  1.2598  1.9760  1.3055
   20CHL1   C21 1458   6.462   5.189   9.140  0.1116  0.4362  0.4815
   20CHL1  H21A 1459   6.516   5.221   9.048  2.4087 -0.7583  1.3355
   20CHL1  H21B 1460   6.529   5.220   9.223 -1.1002  0.0005  1.6582
   20CHL1  H21C 1461   6.369   5.250   9.140  0.1151  0.4419  0.3227
   20CHL1   C22 1462   6.341   5.027   8.992  0.0359 -0.0189  0.0881
   20CHL1  H22A 1463   6.285   4.931   8.986  0.2073 -0.1013 -0.2316
   20CHL1  H22B 1464   6.270   5.112   8.995  0.3066  0.2106  0.0633
   20CHL1   C23 1465   6.423   5.031   8.866 -0.1842 -0.2069 -0.3453
   20CHL1  H23A 1466   6.480   5.126   8.854 -0.7010  0.1905  0.2737
   20CHL1  H23B 1467   6.488   4.941   8.856  1.8517  1.0071  1.0792
   20CHL1   C24 1468   6.328   5.030   8.744  0.0538 -0.3296  0.1153
   20CHL1  H24A 1469   6.269   4.936   8.741 -0.5965 -0.0897  2.5951
   20CHL1  H24B 1470   6.271   5.120   8.778  0.0068 -0.6920  1.0252
   20CHL1   C25 1471   6.394   5.057   8.603  0.7226  0.0992  0.0572
   20CHL1   H25 1472   6.459   5.146   8.611 -2.7783  2.7419  1.6324
   20CHL1   C26 1473   6.479   4.935   8.567 -0.0346  0.1609  0.1912
   20CHL1  H26A 1474   6.513   4.948   8.462  0.1223  2.6246  0.4819
   20CHL1  H26B 1475   6.574   4.933   8.625  0.1533  0.8427 -0.0909
   20CHL1  H26C 1476   6.432   4.835   8.584 -1.6918  0.7679 -0.5874
   20CHL1   C27 1477   6.296   5.082   8.491  0.5179 -0.1292 -0.7809
   20CHL1  H27A 1478   6.355   5.086   8.398  0.6071 -0.3867 -0.7375
   20CHL1  H27B 1479   6.222   4.999   8.486  0.3239 -0.0141 -0.0549
   20CHL1  H27C 1480   6.249   5.182   8.498 -2.5591 -1.5015 -0.2436
   21CHL1    C3 1481   4.021   2.407  10.471 -0.6314  0.1007 -0.3848
   21CHL1    H3 1482   3.945   2.485  10.451 -2.1922 -1.0760  0.7683
   21CHL1    O3 1483   4.074   2.425  10.601  0.2515  0.2414  0.0909
   21CHL1   H3' 1484   4.142   2.358  10.600  0.1587  0.1438 -0.7686
   21CHL1    C4 1485   3.961   2.265  10.465  0.1958 -0.4324 -0.5829
   21CHL1   H4A 1486   4.034   2.186  10.492  0.1386 -1.8232 -4.0248
   21CHL1   H4B 1487   3.882   2.262  10.543  0.5544 -2.1142 -0.2498
   21CHL1    C5 1488   3.927   2.220  10.326 -0.6316  0.6268 -0.3438
   21CHL1    C6 1489   3.806   2.177  10.295 -0.1228 -0.5743  0.1811
   21CHL1    H6 1490   3.732   2.174  10.376 -0.8126 -2.4248 -0.4487
   21CHL1    C7 1491   3.768   2.127  10.157  0.4899 -0.8003  0.2162
   21CHL1   H7A 1492   3.722   2.028  10.175 -0.4043 -0.4072  0.1412
   21CHL1   H7B 1493   3.689   2.191  10.111 -0.3506 -2.7079 -1.1165
   21CHL1    C8 1494   3.892   2.114  10.065  0.2588  0.1034  0.0170
   21CHL1    H8 1495   3.952   2.028  10.101  0.8584  0.4286 -0.1884
   21CHL1   C14 1496   3.856   2.101   9.916 -0.0506 -0.2784 -0.1702
   21CHL1   H14 1497   3.808   2.197   9.888 -0.2696 -0.3651 -0.0932
   21CHL1   C15 1498   3.761   1.991   9.872  0.0048 -0.3911 -0.0989
   21CHL1  H15A 1499   3.792   1.896   9.920 -0.0006  0.4852  1.7292
   21CHL1  H15B 1500   3.661   2.015   9.914 -0.8837 -1.5646 -1.4720
   21CHL1   C16 1501   3.757   1.990   9.722 -0.6218  0.0457 -0.3146
   21CHL1  H16A 1502   3.771   1.891   9.673  0.0650 -0.0548  0.0660
   21CHL1  H16B 1503   3.663   2.031   9.679 -2.3686 -2.5453  0.7703
   21CHL1   C17 1504   3.881   2.079   9.690 -0.0014  0.0889 -0.1901
   21CHL1   H17 1505   3.839   2.182   9.683 -0.6317 -0.0685  0.9026
   21CHL1   C13 1506   3.964   2.094   9.817  0.2473  0.2743 -0.4001
   21CHL1   C18 1507   4.042   1.963   9.848 -0.2312 -0.4781  0.8786
   21CHL1  H18A 1508   4.092   1.976   9.947 -0.7694  0.3881  1.0464
   21CHL1  H18B 1509   3.985   1.869   9.837 -1.3689  0.2809 -0.0076
   21CHL1  H18C 1510   4.127   1.959   9.777 -0.9502  1.9248 -0.2279
   21CHL1   C12 1511   4.057   2.214   9.822  0.0984 -0.0466  0.1786
   21CHL1  H12A 1512   4.149   2.190   9.766 -0.3981  0.9222 -1.0919
   21CHL1  H12B 1513   4.011   2.300   9.769 -1.5817  0.6556  2.5950
   21CHL1   C11 1514   4.095   2.246   9.968 -0.0105 -0.8854  0.1334
   21CHL1  H11A 1515   4.177   2.178  10.000  0.2934 -0.0823  1.1259
   21CHL1  H11B 1516   4.143   2.346   9.965 -0.8770 -0.4635  0.0704
   21CHL1    C9 1517   3.986   2.233  10.077 -0.0036 -0.4078 -0.4113
   21CHL1    H9 1518   3.923   2.322  10.057  0.0895 -0.2457  0.0047
   21CHL1   C10 1519   4.041   2.246  10.224 -0.4916 -0.4303 -0.5637
   21CHL1   C19 1520   4.153   2.140  10.249 -0.6856 -0.4692  0.6914
   21CHL1  H19A 1521   4.126   2.043  10.201 -1.4752 -0.6498  1.4931
   21CHL1  H19B 1522   4.251   2.165  10.201 -1.8245  0.4584 -1.2703
   21CHL1  H19C 1523   4.181   2.120  10.354 -0.1719  2.9648  1.3388
   21CHL1    C1 1524   4.113   2.383  10.244  0.1439  0.0821  0.0276
   21CHL1   H1A 1525   4.209   2.392  10.189  1.0055  1.2731  1.6406
   21CHL1   H1B 1526   4.037   2.453  10.203 -0.8737 -0.4171  1.0070
   21CHL1    C2 1527   4.141   2.411  10.389  0.3375 -0.9200 -0.4653
   21CHL1   H2A 1528   4.192   2.509  10.400  2.9120 -2.1218 -0.8530
   21CHL1   H2B 1529   4.225   2.346  10.423  0.4422 -1.7913 -2.2320
   21CHL1   C20 1530   3.950   2.032   9.552  0.5377 -1.1307 -0.0747
   21CHL1   H20 1531   3.978   1.927   9.574  1.4010 -0.4121  2.7783
   21CHL1   C21 1532   4.083   2.104   9.518 -0.4833 -0.0797  0.0027
   21CHL1  H21A 1533   4.068   2.212   9.496  0.6524 -0.0864 -0.9362
   21CHL1  H21B 1534   4.124   2.062   9.423 -0.7400 -0.5959  0.1176
   21CHL1  H21C 1535   4.160   2.089   9.597  0.6745  2.1880 -0.6058
   21CHL1   C22 1536   3.848   2.044   9.435  0.7552 -0.2584 -0.1797
   21CHL1  H22A 1537   3.744   2.032   9.472  0.7914 -0.9237 -0.2911
   21CHL1  H22B 1538   3.847   2.145   9.387 -1.5670 -1.0295 -1.9383
   21CHL1   C23 1539   3.883   1.936   9.327 -0.5574 -0.3581 -0.1020
   21CHL1  H23A 1540   3.989   1.951   9.294 -1.1484  0.6457 -1.6854
   21CHL1  H23B 1541   3.870   1.836   9.372  0.0525  0.1796  1.3114
   21CHL1   C24 1542   3.803   1.957   9.198 -0.4106 -0.6766  0.6982
   21CHL1  H24A 1543   3.694   1.939   9.207 -0.3237 -0.7512  1.7475
   21CHL1  H24B 1544   3.820   2.062   9.165 -0.9534 -1.3550 -1.9996
   21CHL1   C25 1545   3.862   1.877   9.072  0.3772 -0.3193  0.0956
   21CHL1   H25 1546   3.964   1.916   9.048  0.8545 -1.1128  0.8113
   21CHL1   C26 1547   3.873   1.730   9.097  0.0843 -0.7855  0.2687
   21CHL1  H26A 1548   3.923   1.720   9.196 -0.8577  3.6025  1.4108
   21CHL1  H26B 1549   3.774   1.681   9.095  0.2475 -1.1062 -1.2697
   21CHL1  H26C 1550   3.942   1.687   9.021  1.6327 -0.1950  1.2930
   21CHL1   C27 1551   3.768   1.912   8.954 -0.6274 -0.2358  0.2118
   21CHL1  H27A 1552   3.769   2.021   8.935 -2.8308 -0.2678 -0.3812
   21CHL1  H27B 1553   3.816   1.870   8.863 -0.0000  0.0553  0.4045
   21CHL1  H27C 1554   3.663   1.876   8.959 -1.0911  0.9575 -0.4959
   22CHL1    C3 1555   5.168   5.494  10.261  0.3683  0.3663 -0.0520
   22CHL1    H3 1556   5.223   5.397  10.253 -2.9119 -1.4672 -4.1895
   22CHL1    O3 1557   5.133   5.501  10.401 -0.7750 -0.4894  0.1125
   22CHL1   H3' 1558   5.105   5.413  10.427  1.6674 -1.2231  0.5560
   22CHL1    C4 1559   5.249   5.618  10.223 -0.2663  0.2394  0.4971
   22CHL1   H4A 1560   5.192   5.713  10.231  0.0184  0.4150  0.4438
   22CHL1   H4B 1561   5.334   5.622  10.295 -0.3867 -2.0697  0.8631
   22CHL1    C5 1562   5.304   5.588  10.085  0.1455 -0.2580  0.4452
   22CHL1    C6 1563   5.434   5.584  10.056  0.2048 -0.3876 -0.3437
   22CHL1    H6 1564   5.500   5.614  10.139  0.3163  0.9907 -0.9021
   22CHL1    C7 1565   5.500   5.556   9.918  0.6161  0.2379 -0.3988
   22CHL1   H7A 1566   5.588   5.622   9.902  0.1820  0.6542 -1.1475
   22CHL1   H7B 1567   5.540   5.453   9.923  0.7351  0.0887 -3.1414
   22CHL1    C8 1568   5.390   5.569   9.812  0.4424 -0.1514 -0.0013
   22CHL1    H8 1569   5.376   5.678   9.793  0.9869 -0.0912 -0.0917
   22CHL1   C14 1570   5.440   5.513   9.677  0.6600  0.2772 -0.5669
   22CHL1   H14 1571   5.464   5.405   9.683  2.3626  0.6340 -0.4835
   22CHL1   C15 1572   5.573   5.571   9.621  0.4571 -0.3325  0.0390
   22CHL1  H15A 1573   5.582   5.679   9.644 -2.7604 -0.1522  0.9188
   22CHL1  H15B 1574   5.666   5.530   9.666  1.0002  1.4637  0.6165
   22CHL1   C16 1575   5.560   5.564   9.469  0.8560 -0.1796  0.4720
   22CHL1  H16A 1576   5.552   5.667   9.427  1.5832 -0.0737  0.5813
   22CHL1  H16B 1577   5.646   5.515   9.418 -0.7556 -1.2431 -1.3472
   22CHL1   C17 1578   5.420   5.492   9.440 -0.8621  0.2185 -0.1642
   22CHL1   H17 1579   5.456   5.389   9.461  1.3041  1.3599  2.3350
   22CHL1   C13 1580   5.337   5.528   9.571  0.3108 -0.2729  0.5055
   22CHL1   C18 1581   5.281   5.680   9.558  0.5151  0.5593 -0.1645
   22CHL1  H18A 1582   5.204   5.677   9.478  0.9661 -0.7721 -0.5896
   22CHL1  H18B 1583   5.226   5.723   9.644  0.6638  0.3839  0.0220
   22CHL1  H18C 1584   5.368   5.746   9.537 -0.6894  2.3548  0.2796
   22CHL1   C12 1585   5.213   5.436   9.602 -0.0649 -0.2830  0.3030
   22CHL1  H12A 1586   5.142   5.430   9.517 -1.8831  0.3180  1.7068
   22CHL1  H12B 1587   5.257   5.335   9.621  0.2829 -0.5704 -1.7827
   22CHL1   C11 1588   5.150   5.472   9.739 -0.3337  0.8427  0.0975
   22CHL1  H11A 1589   5.080   5.558   9.734  0.0044  1.2309  1.5476
   22CHL1  H11B 1590   5.083   5.386   9.760 -2.6211  2.6422  0.6627
   22CHL1    C9 1591   5.257   5.495   9.853 -0.1642 -0.2230 -0.8349
   22CHL1    H9 1592   5.289   5.394   9.888  0.2567 -1.3122 -4.0274
   22CHL1   C10 1593   5.193   5.554   9.979 -0.0631 -0.4729 -0.3098
   22CHL1   C19 1594   5.128   5.692   9.934  0.3424  0.6200 -0.4302
   22CHL1  H19A 1595   5.183   5.754   9.860 -1.9166  0.4501 -2.3755
   22CHL1  H19B 1596   5.031   5.675   9.883  1.7441 -2.6351 -2.3451
   22CHL1  H19C 1597   5.117   5.748  10.030  3.5754 -1.8093  1.5577
   22CHL1    C1 1598   5.092   5.456  10.029  0.2640  0.2659 -0.8936
   22CHL1   H1A 1599   5.000   5.465   9.966 -0.0881 -0.0995 -0.4411
   22CHL1   H1B 1600   5.139   5.356  10.031 -0.0368  0.1110  1.1125
   22CHL1    C2 1601   5.042   5.488  10.173 -0.0312 -0.4045 -0.2879
   22CHL1   H2A 1602   4.983   5.408  10.223 -1.7341  1.9077  1.6889
   22CHL1   H2B 1603   4.986   5.584  10.167  1.4068  0.5192  0.4218
   22CHL1   C20 1604   5.364   5.518   9.299 -0.8499  0.0759  0.0469
   22CHL1   H20 1605   5.304   5.612   9.296 -1.5557 -0.3599  0.3456
   22CHL1   C21 1606   5.278   5.397   9.248  0.0787 -0.1867  0.0782
   22CHL1  H21A 1607   5.337   5.304   9.258  1.2784  0.4175 -1.1391
   22CHL1  H21B 1608   5.251   5.417   9.142 -1.5435 -1.4021  0.2269
   22CHL1  H21C 1609   5.182   5.381   9.301 -0.7214 -0.2373 -1.3403
   22CHL1   C22 1610   5.477   5.534   9.191  0.1360 -0.4178 -0.2949
   22CHL1  H22A 1611   5.537   5.618   9.232  0.2537  0.0619 -1.3912
   22CHL1  H22B 1612   5.545   5.447   9.203 -1.4556 -1.5070  1.2576
   22CHL1   C23 1613   5.429   5.569   9.052 -0.3727 -0.2409  0.9595
   22CHL1  H23A 1614   5.403   5.474   9.000 -2.7260  1.3175 -0.9257
   22CHL1  H23B 1615   5.339   5.633   9.040 -2.0058 -2.8700 -3.5364
   22CHL1   C24 1616   5.539   5.641   8.964 -0.2745  0.4553 -0.3354
   22CHL1  H24A 1617   5.503   5.746   8.962  1.2886  1.0527  0.8232
   22CHL1  H24B 1618   5.634   5.643   9.022 -0.2383 -0.9194 -0.3112
   22CHL1   C25 1619   5.558   5.580   8.821  0.3080 -1.4165 -1.0300
   22CHL1   H25 1620   5.457   5.552   8.784 -0.8370  1.8902 -0.7324
   22CHL1   C26 1621   5.609   5.685   8.723  0.0428 -0.2488 -0.6735
   22CHL1  H26A 1622   5.539   5.772   8.716  0.8788  0.3880 -1.5017
   22CHL1  H26B 1623   5.703   5.730   8.762 -0.4472 -0.4230  0.7489
   22CHL1  H26C 1624   5.619   5.645   8.620  0.0825  2.3911 -1.7884
   22CHL1   C27 1625   5.640   5.454   8.812  0.8826 -0.1813  0.3011
   22CHL1  H27A 1626   5.662   5.435   8.705 -2.9545 -0.2675 -0.6373
   22CHL1  H27B 1627   5.730   5.462   8.876  1.3427 -3.4088  0.2065
   22CHL1  H27C 1628   5.592   5.362   8.851  0.2827  0.6828  1.7110
   23CHL1    C3 1629   1.301   1.929  10.119  0.4630 -0.2002  0.0479
   23CHL1    H3 1630   1.315   1.834  10.064 -0.8854  0.1929 -1.0278
   23CHL1    O3 1631   1.334   1.923  10.257 -0.1393 -0.1479  0.3510
   23CHL1   H3' 1632   1.342   2.012  10.293  0.0351 -0.3019  0.6959
   23CHL1    C4 1633   1.373   2.049  10.059  0.4989  0.0316 -0.8545
   23CHL1   H4A 1634   1.325   2.134  10.112 -1.3968 -0.9105 -0.9748
   23CHL1   H4B 1635   1.478   2.062  10.092  0.0964 -0.7061  0.8056
   23CHL1    C5 1636   1.335   2.077   9.916  0.1189 -0.5652  0.4554
   23CHL1    C6 1637   1.424   2.081   9.817 -0.7349 -1.3374 -0.2060
   23CHL1    H6 1638   1.529   2.060   9.840 -0.3332  1.2284  0.5619
   23CHL1    C7 1639   1.396   2.109   9.673  0.2773 -0.0597  0.0481
   23CHL1   H7A 1640   1.465   2.190   9.641  1.0300 -1.4261 -1.9832
   23CHL1   H7B 1641   1.426   2.028   9.603  0.8698  0.7704 -0.6854
   23CHL1    C8 1642   1.251   2.144   9.645 -0.5785 -0.6747 -0.9382
   23CHL1    H8 1643   1.235   2.246   9.685 -1.3259 -0.4648 -1.7436
   23CHL1   C14 1644   1.202   2.126   9.503 -1.2905  0.4753  0.0691
   23CHL1   H14 1645   1.221   2.017   9.496  0.0519  0.7582 -1.1010
   23CHL1   C15 1646   1.282   2.188   9.381  0.2512  0.2915 -0.3484
   23CHL1  H15A 1647   1.280   2.297   9.399  0.9909  0.3940 -0.8437
   23CHL1  H15B 1648   1.388   2.154   9.380  0.2467  0.2825 -0.6771
   23CHL1   C16 1649   1.201   2.141   9.256  0.2389 -0.4313 -0.6891
   23CHL1  H16A 1650   1.190   2.225   9.183 -0.7276  0.1082  0.0604
   23CHL1  H16B 1651   1.248   2.057   9.200 -0.7790 -2.5319  1.5046
   23CHL1   C17 1652   1.058   2.111   9.310 -0.0418 -0.0977  0.6102
   23CHL1   H17 1653   1.052   2.001   9.293 -0.7963  0.0419 -0.0922
   23CHL1   C13 1654   1.059   2.157   9.464 -0.0886 -0.0487 -0.4594
   23CHL1   C18 1655   1.017   2.309   9.469 -0.9283  0.2423 -0.4358
   23CHL1  H18A 1656   1.071   2.365   9.548  0.0231 -0.6523 -0.4222
   23CHL1  H18B 1657   1.054   2.352   9.373 -0.4556  1.2732  0.1909
   23CHL1  H18C 1658   0.907   2.307   9.480 -1.1626 -1.1613 -2.3887
   23CHL1   C12 1659   0.970   2.071   9.556 -0.3529 -0.0034 -0.1272
   23CHL1  H12A 1660   0.862   2.088   9.537  0.0665  0.3630 -2.5707
   23CHL1  H12B 1661   0.994   1.965   9.531  0.9022  0.1346  0.4160
   23CHL1   C11 1662   1.001   2.096   9.706 -0.3069 -0.1874 -0.3425
   23CHL1  H11A 1663   0.989   2.204   9.727 -0.6098 -0.7726  3.1155
   23CHL1  H11B 1664   0.925   2.037   9.762  1.0870 -0.3122  1.5027
   23CHL1    C9 1665   1.150   2.067   9.742  0.2830  0.2215  0.3278
   23CHL1    H9 1666   1.156   1.961   9.710 -2.6843  0.0718 -0.0129
   23CHL1   C10 1667   1.181   2.084   9.891 -0.4568 -0.4341  0.6092
   23CHL1   C19 1668   1.128   2.228   9.944  0.0135  0.2560 -0.1985
   23CHL1  H19A 1669   1.018   2.227   9.933 -0.2051 -0.8720  1.7081
   23CHL1  H19B 1670   1.154   2.230  10.052 -2.1650 -1.4298  0.4240
   23CHL1  H19C 1671   1.171   2.311   9.884 -0.9335  0.7771 -0.1725
   23CHL1    C1 1672   1.108   1.968   9.962  0.2632  0.2735 -0.5810
   23CHL1   H1A 1673   0.998   1.970   9.949 -0.1086  0.1060  1.9668
   23CHL1   H1B 1674   1.134   1.868   9.922 -1.3733 -1.3152  2.0011
   23CHL1    C2 1675   1.151   1.953  10.115  0.2062  0.1962  1.1354
   23CHL1   H2A 1676   1.085   1.873  10.157 -0.3440 -0.6748 -1.2158
   23CHL1   H2B 1677   1.132   2.046  10.173  2.3534  0.7326  1.0644
   23CHL1   C20 1678   0.948   2.163   9.218 -0.1635  0.1890  1.0374
   23CHL1   H20 1679   0.962   2.271   9.195 -1.4559 -0.0341 -1.0133
   23CHL1   C21 1680   0.808   2.147   9.276  0.7751 -0.1665 -0.4857
   23CHL1  H21A 1681   0.730   2.146   9.196  0.5802  2.1896 -0.4023
   23CHL1  H21B 1682   0.781   2.227   9.348  1.4050 -1.9751  1.8848
   23CHL1  H21C 1683   0.806   2.051   9.332  0.1992  1.3288  2.1802
   23CHL1   C22 1684   0.953   2.083   9.080 -0.3438 -0.1659 -0.3209
   23CHL1  H22A 1685   1.053   2.095   9.033 -1.3261  0.3603 -2.3886
   23CHL1  H22B 1686   0.923   1.979   9.102 -0.7243 -0.2016 -0.9864
   23CHL1   C23 1687   0.860   2.138   8.972  0.2489 -0.5720 -0.3104
   23CHL1  H23A 1688   0.755   2.112   8.996  0.4958 -1.5547 -0.2224
   23CHL1  H23B 1689   0.880   2.247   8.978  1.0483 -0.7215 -0.0846
   23CHL1   C24 1690   0.892   2.075   8.837 -0.9914 -0.0811  0.2688
   23CHL1  H24A 1691   1.000   2.084   8.814 -0.8854 -1.7816 -0.0125
   23CHL1  H24B 1692   0.873   1.965   8.842  1.5386 -0.6301 -0.6689
   23CHL1   C25 1693   0.812   2.138   8.720 -0.3120 -0.2235 -0.2176
   23CHL1   H25 1694   0.819   2.248   8.737 -0.5694 -0.2781  0.2471
   23CHL1   C26 1695   0.877   2.098   8.589 -0.2495 -0.6275  0.0273
   23CHL1  H26A 1696   0.814   2.152   8.515 -1.1762 -0.1309  1.1418
   23CHL1  H26B 1697   0.981   2.137   8.592 -1.5971  3.4505  0.8001
   23CHL1  H26C 1698   0.872   1.990   8.565 -1.0204 -0.4910 -0.4406
   23CHL1   C27 1699   0.666   2.105   8.735  0.5645 -0.1411  0.9291
   23CHL1  H27A 1700   0.655   1.994   8.734 -0.8452 -0.0586 -1.3549
   23CHL1  H27B 1701   0.630   2.160   8.824 -1.8329  0.7742 -0.5115
   23CHL1  H27C 1702   0.606   2.148   8.652  0.5822 -0.1632  0.9038
   24CHL1    C3 1703   5.249   2.979  10.268  0.0146  0.2836  0.1729
   24CHL1    H3 1704   5.303   2.890  10.231 -0.5330  0.5965 -1.4635
   24CHL1    O3 1705   5.312   3.023  10.389  0.1841 -0.3977 -0.3234
   24CHL1   H3' 1706   5.282   2.955  10.450  1.0407 -0.1732  0.3721
   24CHL1    C4 1707   5.262   3.093  10.165  0.1353 -0.4744 -0.9360
   24CHL1   H4A 1708   5.215   3.179  10.217  0.7882  0.3204 -1.6164
   24CHL1   H4B 1709   5.363   3.139  10.155  0.0457 -0.1548 -0.3980
   24CHL1    C5 1710   5.190   3.068  10.032  0.0050 -0.4685 -0.2262
   24CHL1    C6 1711   5.255   3.085   9.917  0.8798 -1.0255  0.3935
   24CHL1    H6 1712   5.361   3.114   9.916  1.1302 -1.9280 -0.4226
   24CHL1    C7 1713   5.197   3.059   9.781  0.1926  0.0837  0.1024
   24CHL1   H7A 1714   5.224   3.144   9.715  0.0247  1.0438  1.2324
   24CHL1   H7B 1715   5.251   2.977   9.729 -1.3485 -1.7373  1.2234
   24CHL1    C8 1716   5.046   3.024   9.773 -0.3336 -0.1766 -0.2648
   24CHL1    H8 1717   4.981   3.113   9.783  0.8910  0.6177  1.0442
   24CHL1   C14 1718   5.007   2.956   9.647 -0.5666 -0.0174  1.2310
   24CHL1   H14 1719   5.070   2.866   9.638  0.7033  0.9948 -0.4924
   24CHL1   C15 1720   5.037   3.028   9.510 -0.2695  0.5072 -0.0482
   24CHL1  H15A 1721   5.015   3.136   9.528 -0.5449  0.0421  2.9311
   24CHL1  H15B 1722   5.142   3.024   9.475  0.4226 -1.6078  2.0058
   24CHL1   C16 1723   4.939   2.961   9.409 -0.3718  0.0627  0.5051
   24CHL1  H16A 1724   4.870   3.040   9.371  1.9115  0.4937 -3.2232
   24CHL1  H16B 1725   5.002   2.917   9.329  0.3440 -2.7046  2.4419
   24CHL1   C17 1726   4.863   2.855   9.493 -1.0807 -0.8007  0.4923
   24CHL1   H17 1727   4.930   2.767   9.492 -0.8902 -0.6989  1.9936
   24CHL1   C13 1728   4.863   2.907   9.634  0.6171  0.2615 -0.2066
   24CHL1   C18 1729   4.766   3.024   9.641 -0.0965 -0.7051 -0.4058
   24CHL1  H18A 1730   4.657   3.000   9.639 -0.4026  0.6103 -0.6739
   24CHL1  H18B 1731   4.765   3.076   9.739  0.2297  0.2008 -0.8712
   24CHL1  H18C 1732   4.790   3.104   9.568  0.9214  0.3810  1.0641
   24CHL1   C12 1733   4.840   2.805   9.752  0.4799  0.7390 -0.5594
   24CHL1  H12A 1734   4.734   2.773   9.751  0.5629  0.4285  0.1810
   24CHL1  H12B 1735   4.913   2.721   9.752 -0.1754  0.1332  0.6986
   24CHL1   C11 1736   4.870   2.877   9.891  0.0942  0.2957  0.2705
   24CHL1  H11A 1737   4.790   2.951   9.911 -0.1980 -0.0319  0.3200
   24CHL1  H11B 1738   4.868   2.798   9.969 -1.0504 -1.0235 -1.0562
   24CHL1    C9 1739   5.013   2.941   9.897  1.0736 -0.4291 -0.0870
   24CHL1    H9 1740   5.082   2.853   9.895  2.0981  0.3000  1.4210
   24CHL1   C10 1741   5.048   3.010  10.034  0.4608 -0.5616 -0.3756
   24CHL1   C19 1742   4.952   3.123  10.055 -0.2196 -0.3978  0.9531
   24CHL1  H19A 1743   4.956   3.198   9.973 -0.4096 -0.3602  0.9778
   24CHL1  H19B 1744   4.846   3.091  10.057 -0.5239  0.4600 -0.1174
   24CHL1  H19C 1745   4.969   3.177  10.150 -0.5516  1.3574  0.0633
   24CHL1    C1 1746   5.027   2.917  10.157 -0.2123  0.3351  0.1230
   24CHL1   H1A 1747   4.919   2.906  10.182 -0.2579  2.4471  1.0322
   24CHL1   H1B 1748   5.066   2.818  10.126 -1.5439 -0.2722  0.3024
   24CHL1    C2 1749   5.100   2.956  10.290  0.6507 -0.2084 -0.2153
   24CHL1   H2A 1750   5.074   2.874  10.361 -0.6164  0.9470  0.7005
   24CHL1   H2B 1751   5.060   3.056  10.316  0.2569 -0.8519  1.7924
   24CHL1   C20 1752   4.731   2.808   9.430 -0.3952 -0.4320  0.5005
   24CHL1   H20 1753   4.662   2.894   9.423  0.0699 -0.0527  0.5467
   24CHL1   C21 1754   4.670   2.687   9.496 -0.4200  0.5267 -0.4853
   24CHL1  H21A 1755   4.582   2.645   9.441 -1.3906 -0.2179  1.5354
   24CHL1  H21B 1756   4.628   2.711   9.596  0.4232  2.7221 -0.6016
   24CHL1  H21C 1757   4.732   2.600   9.524 -2.4425 -0.4941  1.0902
   24CHL1   C22 1758   4.758   2.775   9.277  0.0906 -0.1448 -0.3052
   24CHL1  H22A 1759   4.810   2.866   9.238  1.8959 -0.3756  1.4486
   24CHL1  H22B 1760   4.821   2.684   9.279 -2.8609 -2.3319  1.6878
   24CHL1   C23 1761   4.632   2.768   9.192 -0.8863 -0.3155 -0.2658
   24CHL1  H23A 1762   4.591   2.668   9.221  1.6767 -1.5411 -0.6014
   24CHL1  H23B 1763   4.552   2.841   9.216 -0.0755  0.3986  0.3091
   24CHL1   C24 1764   4.670   2.765   9.042  0.3222  0.4317  0.2246
   24CHL1  H24A 1765   4.693   2.869   9.012  0.5209 -0.1484 -1.7899
   24CHL1  H24B 1766   4.765   2.716   9.014 -1.2987 -2.7010 -0.2565
   24CHL1   C25 1767   4.553   2.714   8.941  0.7762 -0.5037 -0.4723
   24CHL1   H25 1768   4.463   2.775   8.964  2.3103  1.0097  1.9626
   24CHL1   C26 1769   4.578   2.741   8.791  0.2081 -0.0548  0.0294
   24CHL1  H26A 1770   4.494   2.714   8.723  1.1493 -0.1959 -1.1128
   24CHL1  H26B 1771   4.597   2.850   8.792 -3.0397  0.6724 -1.9005
   24CHL1  H26C 1772   4.669   2.690   8.752 -1.1800 -1.3453 -1.6914
   24CHL1   C27 1773   4.531   2.564   8.959  0.0510  0.0301  0.0833
   24CHL1  H27A 1774   4.459   2.529   8.882 -2.0757  1.2003  1.4110
   24CHL1  H27B 1775   4.625   2.505   8.953  0.2986  0.3786  0.5123
   24CHL1  H27C 1776   4.489   2.542   9.060  1.3740 -1.8431  0.2832
   25CHL1    C3 1777   5.131   6.742  10.444  0.2866 -0.4783  0.3319
   25CHL1    H3 1778   5.194   6.830  10.420  0.7396 -1.2191 -1.2558
   25CHL1    O3 1779   5.089   6.760  10.582  0.5274  0.3478 -0.1218
   25CHL1   H3' 1780   5.171   6.757  10.632  0.2856 -0.0346  0.2583
   25CHL1    C4 1781   5.011   6.739  10.342 -0.2913  0.1939  0.2280
   25CHL1   H4A 1782   4.946   6.654  10.373  0.8456 -0.2826  1.4184
   25CHL1   H4B 1783   4.950   6.831  10.353  0.0582  0.4232  0.2754
   25CHL1    C5 1784   5.050   6.723  10.200 -0.0377 -0.0062 -0.0321
   25CHL1    C6 1785   5.002   6.807  10.108  0.3435 -0.4372  0.5259
   25CHL1    H6 1786   4.922   6.875  10.140  0.2647  1.1737 -2.7029
   25CHL1    C7 1787   5.023   6.801   9.962  0.0663 -0.2530 -0.9032
   25CHL1   H7A 1788   4.929   6.799   9.903 -0.6781  2.0484  0.0962
   25CHL1   H7B 1789   5.069   6.891   9.917 -1.0022  0.7887  0.0135
   25CHL1    C8 1790   5.105   6.673   9.920  0.0913 -0.2516 -0.1355
   25CHL1    H8 1791   5.036   6.587   9.912  0.8530 -0.7265 -2.5121
   25CHL1   C14 1792   5.161   6.692   9.778  0.2957 -0.1249 -0.1254
   25CHL1   H14 1793   5.224   6.783   9.790  0.5348 -0.3617  0.4261
   25CHL1   C15 1794   5.069   6.744   9.667  0.3549  0.0762 -1.0310
   25CHL1  H15A 1795   4.971   6.694   9.679 -0.0583  0.5883 -2.1566
   25CHL1  H15B 1796   5.058   6.854   9.679  1.9342  0.2427 -0.8222
   25CHL1   C16 1797   5.145   6.711   9.536  0.2753  0.0678 -0.1045
   25CHL1  H16A 1798   5.078   6.641   9.481 -2.5704  1.1905  1.7615
   25CHL1  H16B 1799   5.168   6.803   9.478 -1.1670  0.4333 -0.1108
   25CHL1   C17 1800   5.276   6.640   9.586  1.1766 -0.1236  0.9180
   25CHL1   H17 1801   5.359   6.710   9.606  1.4259 -0.2612  0.3904
   25CHL1   C13 1802   5.244   6.576   9.723  0.3446  0.3503  0.2015
   25CHL1   C18 1803   5.160   6.446   9.700  1.3461  0.1170 -0.9751
   25CHL1  H18A 1804   5.223   6.367   9.654 -0.0274 -1.1672 -0.7680
   25CHL1  H18B 1805   5.113   6.408   9.793  0.0147 -1.4868 -2.2309
   25CHL1  H18C 1806   5.072   6.455   9.633  1.0948 -0.7660 -0.7777
   25CHL1   C12 1807   5.359   6.554   9.818 -0.8682 -0.7333  0.4995
   25CHL1  H12A 1808   5.423   6.466   9.797 -1.1382 -1.4708  2.4486
   25CHL1  H12B 1809   5.412   6.650   9.810 -1.2562 -0.5321  0.3026
   25CHL1   C11 1810   5.314   6.521   9.967 -0.1884 -0.1365  0.2375
   25CHL1  H11A 1811   5.244   6.435   9.956 -0.5278  0.3428 -1.8646
   25CHL1  H11B 1812   5.401   6.497  10.031  1.4966 -2.8961 -2.7833
   25CHL1    C9 1813   5.214   6.635  10.022 -0.1979  0.0942 -0.3332
   25CHL1    H9 1814   5.275   6.728  10.024 -0.1968  0.0797  0.4492
   25CHL1   C10 1815   5.153   6.613  10.162 -0.8031 -0.4873 -0.7347
   25CHL1   C19 1816   5.069   6.480  10.165  0.6137  0.1850 -0.6718
   25CHL1  H19A 1817   5.126   6.385  10.154 -0.3104 -0.2058 -2.5450
   25CHL1  H19B 1818   5.020   6.470  10.264  0.2214  1.1788 -0.7576
   25CHL1  H19C 1819   4.994   6.478  10.083 -0.5025 -0.2478  0.3399
   25CHL1    C1 1820   5.255   6.603  10.275  0.8074  0.2494  0.1897
   25CHL1   H1A 1821   5.292   6.499  10.257 -0.3946 -0.4904  1.6958
   25CHL1   H1B 1822   5.339   6.673  10.256  1.2163 -0.7194 -1.8582
   25CHL1    C2 1823   5.210   6.616  10.425 -0.4260  0.2499 -0.0747
   25CHL1   H2A 1824   5.293   6.628  10.498 -0.9508 -0.1456  0.5889
   25CHL1   H2B 1825   5.149   6.529  10.454 -1.2549  0.3827 -1.3293
   25CHL1   C20 1826   5.334   6.549   9.469  0.9422  0.1860 -0.0447
   25CHL1   H20 1827   5.306   6.441   9.471  0.2304  0.3738  0.8352
   25CHL1   C21 1828   5.488   6.546   9.485 -0.9403 -0.2321 -0.3602
   25CHL1  H21A 1829   5.525   6.650   9.479 -2.7708  0.5365  0.6621
   25CHL1  H21B 1830   5.534   6.478   9.410  0.2533  0.3517 -0.1838
   25CHL1  H21C 1831   5.513   6.510   9.587  0.4850  2.6267  0.3890
   25CHL1   C22 1832   5.294   6.600   9.328  0.1709  0.1741 -0.6569
   25CHL1  H22A 1833   5.190   6.564   9.314 -0.3546  2.2329 -2.6061
   25CHL1  H22B 1834   5.294   6.710   9.311  0.5919  0.3032  0.1582
   25CHL1   C23 1835   5.373   6.531   9.212 -0.6127 -0.0463 -0.1102
   25CHL1  H23A 1836   5.478   6.568   9.214 -0.7922  0.5416 -1.0163
   25CHL1  H23B 1837   5.383   6.423   9.237  0.5409  0.3278  1.2408
   25CHL1   C24 1838   5.321   6.543   9.065  0.4709 -0.4583  0.3274
   25CHL1  H24A 1839   5.213   6.514   9.064  0.4707 -0.4321 -0.5652
   25CHL1  H24B 1840   5.345   6.643   9.025 -0.5296  0.1790  1.2472
   25CHL1   C25 1841   5.394   6.445   8.972  0.0882 -0.2167 -0.0785
   25CHL1   H25 1842   5.396   6.344   9.017  0.0929  0.7225  2.1693
   25CHL1   C26 1843   5.337   6.434   8.831 -0.1136  0.2975  0.5834
   25CHL1  H26A 1844   5.232   6.397   8.828  0.6395 -1.9446  0.2380
   25CHL1  H26B 1845   5.340   6.534   8.782  0.3453 -0.9766 -2.1354
   25CHL1  H26C 1846   5.402   6.375   8.763  2.0271  1.8998  1.1113
   25CHL1   C27 1847   5.544   6.488   8.953  0.5175  0.5711  0.2517
   25CHL1  H27A 1848   5.601   6.423   8.884 -1.0668 -1.1806  0.5205
   25CHL1  H27B 1849   5.551   6.597   8.932  0.5331  0.7414  1.1067
   25CHL1  H27C 1850   5.602   6.473   9.047  2.2516  0.5026 -0.7875
   26CHL1    C3 1851   5.530   3.649  10.266 -0.1435 -0.0418  0.7171
   26CHL1    H3 1852   5.431   3.616  10.227 -0.3990  1.6237 -0.1545
   26CHL1    O3 1853   5.528   3.633  10.406 -0.0307 -0.5067  0.0952
   26CHL1   H3' 1854   5.620   3.633  10.433 -0.8401  0.1731  3.2478
   26CHL1    C4 1855   5.649   3.573  10.204 -0.1592  0.4088 -0.1183
   26CHL1   H4A 1856   5.743   3.609  10.250  0.7493 -0.8061 -0.9427
   26CHL1   H4B 1857   5.642   3.466  10.234  0.1431  0.5748  0.5502
   26CHL1    C5 1858   5.663   3.596  10.055 -0.3956  1.0009 -0.0719
   26CHL1    C6 1859   5.669   3.494   9.971 -0.5482  0.4222 -0.4014
   26CHL1    H6 1860   5.672   3.394  10.017 -1.0471  0.0300 -1.2078
   26CHL1    C7 1861   5.676   3.513   9.824 -0.8100 -0.6438  0.6774
   26CHL1   H7A 1862   5.752   3.442   9.783 -0.2039 -0.4719  1.4787
   26CHL1   H7B 1863   5.579   3.489   9.775 -0.5938  1.1907 -0.7455
   26CHL1    C8 1864   5.726   3.649   9.781 -0.3717 -0.2373  0.1974
   26CHL1    H8 1865   5.833   3.667   9.801 -0.5640  1.2599  0.0208
   26CHL1   C14 1866   5.719   3.671   9.624 -0.9260  0.2549  1.0316
   26CHL1   H14 1867   5.612   3.652   9.602 -1.1110  1.2789  1.0154
   26CHL1   C15 1868   5.817   3.575   9.543 -0.4755  0.3343 -0.2609
   26CHL1  H15A 1869   5.925   3.572   9.569 -0.8093 -0.1727  1.1678
   26CHL1  H15B 1870   5.777   3.471   9.541  2.2537 -0.8045 -0.4633
   26CHL1   C16 1871   5.821   3.638   9.406 -0.3172 -0.2790  0.0812
   26CHL1  H16A 1872   5.929   3.637   9.383 -0.8720  0.7539 -3.0812
   26CHL1  H16B 1873   5.764   3.577   9.332 -2.0945  2.9397 -1.4398
   26CHL1   C17 1874   5.752   3.780   9.411  0.1322  0.6135 -1.5706
   26CHL1   H17 1875   5.642   3.778   9.393 -0.1088  1.1057 -0.2879
   26CHL1   C13 1876   5.752   3.812   9.566 -0.4792 -0.1404  0.3999
   26CHL1   C18 1877   5.899   3.853   9.600  0.4745  0.6447  0.3649
   26CHL1  H18A 1878   5.918   3.831   9.707 -0.8615 -0.7659  0.3485
   26CHL1  H18B 1879   5.970   3.794   9.539 -0.5341  0.6342 -0.8406
   26CHL1  H18C 1880   5.909   3.960   9.572  0.0469  0.1763 -1.7162
   26CHL1   C12 1881   5.651   3.903   9.642 -0.1698 -0.2621 -0.3935
   26CHL1  H12A 1882   5.659   4.007   9.604 -0.9253  0.1677  0.5638
   26CHL1  H12B 1883   5.553   3.862   9.610 -1.8233  0.2723  3.3243
   26CHL1   C11 1884   5.670   3.902   9.794  0.2761 -0.3774  0.4160
   26CHL1  H11A 1885   5.777   3.924   9.813  0.4948 -0.2861 -0.8346
   26CHL1  H11B 1886   5.609   3.979   9.847 -1.4733 -1.6378  0.3507
   26CHL1    C9 1887   5.646   3.761   9.854  0.8707 -0.5115  0.1780
   26CHL1    H9 1888   5.541   3.730   9.834  0.3717  0.6692  0.8556
   26CHL1   C10 1889   5.653   3.743  10.009 -0.0440 -0.4635  0.2494
   26CHL1   C19 1890   5.783   3.817  10.063 -0.2296  0.0392 -0.5141
   26CHL1  H19A 1891   5.872   3.778  10.010 -0.1961 -1.6852  0.7347
   26CHL1  H19B 1892   5.791   3.928  10.060 -0.2680  0.2088  2.3717
   26CHL1  H19C 1893   5.807   3.795  10.169 -1.9510 -1.4336 -0.3841
   26CHL1    C1 1894   5.539   3.814  10.082 -0.7402 -0.8178  0.4513
   26CHL1   H1A 1895   5.550   3.924  10.068  0.0396 -0.8287  0.9114
   26CHL1   H1B 1896   5.438   3.791  10.040 -0.2642 -0.5437 -0.9081
   26CHL1    C2 1897   5.534   3.800  10.238  0.1767  0.1418 -0.0047
   26CHL1   H2A 1898   5.438   3.839  10.277 -0.1674 -1.4872  0.8528
   26CHL1   H2B 1899   5.618   3.851  10.290 -0.4140  2.2832 -1.0293
   26CHL1   C20 1900   5.814   3.883   9.318  0.8165  0.3804 -0.5055
   26CHL1   H20 1901   5.919   3.906   9.346  0.4744  1.4224 -0.0286
   26CHL1   C21 1902   5.739   4.023   9.331  0.5347 -0.2188  0.6353
   26CHL1  H21A 1903   5.764   4.094   9.250  0.1543  0.2828  0.9538
   26CHL1  H21B 1904   5.769   4.083   9.420 -1.1087  3.3772 -1.0498
   26CHL1  H21C 1905   5.629   4.025   9.342  0.5860  2.8688  1.4624
   26CHL1   C22 1906   5.813   3.830   9.165 -0.1824 -0.0549 -0.8450
   26CHL1  H22A 1907   5.854   3.729   9.145  0.5238  0.1990 -0.7336
   26CHL1  H22B 1908   5.703   3.830   9.149 -1.4641  1.0601  5.2113
   26CHL1   C23 1909   5.883   3.918   9.060 -0.6824 -0.2213 -0.0991
   26CHL1  H23A 1910   5.866   3.876   8.959 -1.5627  0.0613 -0.0761
   26CHL1  H23B 1911   5.842   4.021   9.068  0.4849  0.2162  0.4713
   26CHL1   C24 1912   6.038   3.913   9.069  0.2776  0.0118 -0.2388
   26CHL1  H24A 1913   6.083   3.966   9.155  1.2505 -0.3426 -0.5158
   26CHL1  H24B 1914   6.062   3.807   9.094 -3.2788 -0.1984  3.3426
   26CHL1   C25 1915   6.110   3.955   8.940 -0.4843 -0.1192 -0.8735
   26CHL1   H25 1916   6.064   3.890   8.862 -1.6672 -1.5010  0.8963
   26CHL1   C26 1917   6.084   4.097   8.905 -0.2490 -0.5319  0.4310
   26CHL1  H26A 1918   6.093   4.168   8.990 -0.4664  0.1847 -0.1281
   26CHL1  H26B 1919   6.148   4.125   8.819  0.1721 -2.7673 -0.0487
   26CHL1  H26C 1920   5.983   4.092   8.859 -0.4543  1.3479  0.6021
   26CHL1   C27 1921   6.259   3.918   8.940 -0.1104 -0.0783 -0.3060
   26CHL1  H27A 1922   6.274   3.809   8.960 -3.1535 -1.0186 -2.4401
   26CHL1  H27B 1923   6.292   3.942   8.837 -1.4256 -0.4930 -0.8368
   26CHL1  H27C 1924   6.313   3.972   9.020 -0.7304 -0.1304  0.1585
   27CHL1    C3 1925   4.538   2.116  10.434  0.3157 -0.4283 -0.1188
   27CHL1    H3 1926   4.455   2.186  10.410  0.3079 -1.4195 -3.5385
   27CHL1    O3 1927   4.555   2.117  10.573  0.0850  0.8996  0.3061
   27CHL1   H3' 1928   4.614   2.042  10.585 -0.9887 -0.0855 -0.4242
   27CHL1    C4 1929   4.508   1.975  10.394  0.3410 -0.3439 -0.0124
   27CHL1   H4A 1930   4.594   1.911  10.422  0.9639  0.5828  0.2499
   27CHL1   H4B 1931   4.416   1.935  10.441  0.6758 -1.1889 -0.0603
   27CHL1    C5 1932   4.495   1.964  10.244 -0.0419 -0.8870 -0.5479
   27CHL1    C6 1933   4.379   1.922  10.185 -0.2748  0.1959  0.6411
   27CHL1    H6 1934   4.293   1.891  10.246 -0.3226  0.3981  0.6776
   27CHL1    C7 1935   4.366   1.913  10.039 -0.1722 -0.3698  0.0001
   27CHL1   H7A 1936   4.292   1.832  10.017 -0.2493 -0.7412  1.5282
   27CHL1   H7B 1937   4.320   2.011  10.011  2.7759  0.9148 -0.6516
   27CHL1    C8 1938   4.505   1.903   9.972  0.0984 -0.4907 -0.3716
   27CHL1    H8 1939   4.542   1.806  10.012 -1.5152 -0.9940 -0.0073
   27CHL1   C14 1940   4.476   1.894   9.823  0.2884  0.5485  0.1977
   27CHL1   H14 1941   4.423   1.989   9.801 -0.9273 -0.0482  0.4301
   27CHL1   C15 1942   4.382   1.782   9.771 -0.0033 -0.7681 -0.0918
   27CHL1  H15A 1943   4.406   1.690   9.828 -0.8850 -0.2947  1.0744
   27CHL1  H15B 1944   4.277   1.801   9.801  0.0106 -1.3116  0.3175
   27CHL1   C16 1945   4.414   1.783   9.618  0.2549 -0.1143 -0.1481
   27CHL1  H16A 1946   4.424   1.679   9.579 -1.4158  0.5461 -2.5896
   27CHL1  H16B 1947   4.321   1.817   9.567  0.4613 -2.0560 -1.9738
   27CHL1   C17 1948   4.532   1.875   9.589  0.4623 -0.0603  0.0549
   27CHL1   H17 1949   4.500   1.978   9.561  1.7832  0.4970  0.5025
   27CHL1   C13 1950   4.595   1.896   9.734 -0.4017  0.7325  0.5194
   27CHL1   C18 1951   4.684   1.779   9.770 -0.2708  0.2431  0.1323
   27CHL1  H18A 1952   4.724   1.782   9.873 -1.5210  0.5525  0.6297
   27CHL1  H18B 1953   4.628   1.683   9.761  1.8081 -0.9269 -1.5708
   27CHL1  H18C 1954   4.768   1.778   9.697 -0.7667 -1.4950 -0.4772
   27CHL1   C12 1955   4.665   2.038   9.765 -0.4686  0.7823 -0.4864
   27CHL1  H12A 1956   4.758   2.044   9.706  0.1839 -1.7126  0.1879
   27CHL1  H12B 1957   4.597   2.121   9.735  0.4620  1.1107 -1.7808
   27CHL1   C11 1958   4.712   2.053   9.906 -0.2375  0.2834  0.3801
   27CHL1  H11A 1959   4.789   1.972   9.911 -0.0169  0.4130 -0.7036
   27CHL1  H11B 1960   4.764   2.149   9.926  1.1487 -0.8201  2.5081
   27CHL1    C9 1961   4.592   2.024  10.007  1.0861 -0.5520  0.0948
   27CHL1    H9 1962   4.542   2.121   9.984  0.3444 -1.8277 -4.9546
   27CHL1   C10 1963   4.616   2.015  10.157  0.2505 -0.6434 -0.3036
   27CHL1   C19 1964   4.725   1.915  10.180 -0.3107 -0.1240  0.1218
   27CHL1  H19A 1965   4.751   1.890  10.286 -1.7750 -1.2437  0.2419
   27CHL1  H19B 1966   4.716   1.819  10.124  0.3130  0.9373 -1.8710
   27CHL1  H19C 1967   4.816   1.959  10.134 -1.8606  0.2274 -2.8105
   27CHL1    C1 1968   4.665   2.156  10.208  0.6797  0.3779 -0.0978
   27CHL1   H1A 1969   4.760   2.185  10.159  0.8859  0.3269  0.2664
   27CHL1   H1B 1970   4.595   2.228  10.161 -0.4804 -1.3404 -1.1003
   27CHL1    C2 1971   4.669   2.165  10.359  0.3116 -0.1644 -0.7987
   27CHL1   H2A 1972   4.675   2.272  10.388 -0.6606 -0.7141  1.7799
   27CHL1   H2B 1973   4.761   2.116  10.398  0.6453  2.4429  2.0521
   27CHL1   C20 1974   4.628   1.816   9.483 -0.1505  0.2565 -0.0706
   27CHL1   H20 1975   4.652   1.713   9.517 -2.1702 -0.1435  0.2431
   27CHL1   C21 1976   4.752   1.907   9.462 -0.3275 -0.1153 -0.2027
   27CHL1  H21A 1977   4.827   1.852   9.401 -1.1790 -0.8437 -0.6258
   27CHL1  H21B 1978   4.800   1.941   9.556  2.7189  1.3086 -2.1377
   27CHL1  H21C 1979   4.711   1.991   9.402 -1.9495 -1.6073 -1.3052
   27CHL1   C22 1980   4.542   1.800   9.358 -0.4816 -1.0610 -0.2191
   27CHL1  H22A 1981   4.478   1.711   9.373  0.4436 -1.1771  4.4778
   27CHL1  H22B 1982   4.473   1.881   9.326  0.3966  0.1052  0.7296
   27CHL1   C23 1983   4.624   1.774   9.235 -0.8580 -0.3241  0.3373
   27CHL1  H23A 1984   4.682   1.858   9.191 -1.3690  0.0570  0.3825
   27CHL1  H23B 1985   4.695   1.689   9.246 -0.4069  0.0416  0.3277
   27CHL1   C24 1986   4.534   1.746   9.116  0.1489  0.5253 -0.3679
   27CHL1  H24A 1987   4.465   1.660   9.129  2.1678 -1.0993  0.1631
   27CHL1  H24B 1988   4.465   1.832   9.106 -2.8312 -1.6635 -0.0273
   27CHL1   C25 1989   4.603   1.738   8.979 -0.9504  0.7827  0.0643
   27CHL1   H25 1990   4.656   1.834   8.961  1.7809 -0.6868 -0.2864
   27CHL1   C26 1991   4.710   1.618   8.971 -0.7768  0.4100  0.0443
   27CHL1  H26A 1992   4.762   1.631   8.873  0.1861  2.5777  0.7965
   27CHL1  H26B 1993   4.785   1.623   9.052  1.1157 -0.5234 -1.5356
   27CHL1  H26C 1994   4.663   1.517   8.967 -0.1762  0.0488  1.6400
   27CHL1   C27 1995   4.500   1.716   8.869  0.2947 -0.0541 -0.3025
   27CHL1  H27A 1996   4.530   1.733   8.764  0.4323  0.3265 -0.2047
   27CHL1  H27B 1997   4.453   1.617   8.886 -2.0470  1.2536  1.6488
   27CHL1  H27C 1998   4.417   1.787   8.890  1.6646  1.4037  0.3723
   28CHL1    C3 1999   6.003   5.383  10.249 -0.6754  0.3347  0.6325
   28CHL1    H3 2000   6.114   5.385  10.238 -0.6487  1.3081  1.0212
   28CHL1    O3 2001   5.974   5.427  10.378 -0.3011 -0.3641  0.0428
   28CHL1   H3' 2002   6.026   5.377  10.441 -0.2885 -1.1613 -0.5897
   28CHL1    C4 2003   5.958   5.478  10.132 -0.1600 -0.1475 -1.3423
   28CHL1   H4A 2004   5.851   5.503  10.149 -0.1933  0.0240 -1.8106
   28CHL1   H4B 2005   6.018   5.568  10.155  0.5817 -0.7141 -1.0216
   28CHL1    C5 2006   5.981   5.426   9.993 -0.3581 -0.2931  0.3294
   28CHL1    C6 2007   6.042   5.500   9.901  0.4462 -0.1067  0.6087
   28CHL1    H6 2008   6.087   5.595   9.935 -0.5267 -0.1226  2.0102
   28CHL1    C7 2009   6.067   5.468   9.756  0.0096 -0.4410 -0.8784
   28CHL1   H7A 2010   6.037   5.554   9.692 -2.5167 -0.8173 -0.3119
   28CHL1   H7B 2011   6.173   5.437   9.743  0.7932  1.1859  1.0678
   28CHL1    C8 2012   5.972   5.355   9.710  0.0812 -0.1310  0.1715
   28CHL1    H8 2013   5.876   5.410   9.700  1.5953  2.7298  0.1996
   28CHL1   C14 2014   6.020   5.291   9.573 -0.8849 -0.8769  0.3424
   28CHL1   H14 2015   6.118   5.244   9.594 -0.5805 -1.7895 -2.6072
   28CHL1   C15 2016   6.051   5.388   9.451  0.6784 -0.9837 -0.1014
   28CHL1  H15A 2017   5.987   5.478   9.459  0.6176 -1.0731  0.4984
   28CHL1  H15B 2018   6.157   5.422   9.448  0.3679 -0.0035 -0.1080
   28CHL1   C16 2019   6.017   5.301   9.326 -0.1094 -0.1443 -0.1478
   28CHL1  H16A 2020   5.951   5.360   9.259 -1.4034 -0.8757  0.4446
   28CHL1  H16B 2021   6.114   5.283   9.275  0.6733 -1.6343  1.7473
   28CHL1   C17 2022   5.974   5.162   9.378  0.6122  0.0133 -0.6757
   28CHL1   H17 2023   6.059   5.090   9.385 -0.6594 -1.5549 -0.8634
   28CHL1   C13 2024   5.925   5.185   9.521  0.6346  0.5797  0.1267
   28CHL1   C18 2025   5.775   5.238   9.522  0.1052  0.1634 -0.0052
   28CHL1  H18A 2026   5.729   5.266   9.619 -2.9042  1.3560 -1.6558
   28CHL1  H18B 2027   5.756   5.322   9.452  0.6062 -0.9411 -1.5359
   28CHL1  H18C 2028   5.701   5.159   9.497  0.2757 -0.0860  0.2707
   28CHL1   C12 2029   5.946   5.070   9.622 -0.0497  0.4726 -0.2784
   28CHL1  H12A 2030   5.885   4.979   9.603  0.2167  0.3100 -0.3547
   28CHL1  H12B 2031   6.054   5.045   9.615 -0.1692  0.1668 -1.1939
   28CHL1   C11 2032   5.905   5.112   9.766 -0.6899  0.0957  0.0429
   28CHL1  H11A 2033   5.794   5.121   9.767 -0.5752  1.7432  1.2312
   28CHL1  H11B 2034   5.935   5.019   9.819 -0.9769 -1.7024 -2.7143
   28CHL1    C9 2035   5.976   5.239   9.817  0.2286  0.5056 -0.5872
   28CHL1    H9 2036   6.078   5.199   9.833 -0.3090 -0.4609  0.5559
   28CHL1   C10 2037   5.930   5.284   9.956 -0.0442  0.4262  0.0739
   28CHL1   C19 2038   5.772   5.302   9.964 -0.6922  0.0856 -0.1998
   28CHL1  H19A 2039   5.724   5.203   9.952  1.9302 -1.0781 -2.1247
   28CHL1  H19B 2040   5.736   5.349  10.057  1.0078  2.3797 -0.6134
   28CHL1  H19C 2041   5.742   5.362   9.875 -0.6346  1.0052  0.3903
   28CHL1    C1 2042   5.978   5.189  10.064 -0.6709  0.1937 -0.2581
   28CHL1   H1A 2043   5.929   5.090  10.049 -0.9357 -0.0604  1.9738
   28CHL1   H1B 2044   6.089   5.181  10.057 -0.5787 -2.0777  2.1548
   28CHL1    C2 2045   5.960   5.235  10.214  0.3778  0.2845 -0.1376
   28CHL1   H2A 2046   5.998   5.159  10.286 -0.8933 -0.2187  0.0260
   28CHL1   H2B 2047   5.850   5.239  10.224  0.4454 -0.5086  1.0736
   28CHL1   C20 2048   5.880   5.100   9.275  0.2615  0.7442 -0.1605
   28CHL1   H20 2049   5.785   5.155   9.257 -1.4067 -2.4669 -2.1604
   28CHL1   C21 2050   5.843   4.963   9.322 -0.1178 -0.0610 -0.1149
   28CHL1  H21A 2051   5.765   4.919   9.256 -0.4161 -0.6314  0.6025
   28CHL1  H21B 2052   5.797   4.960   9.423  1.7376 -2.0447  0.7397
   28CHL1  H21C 2053   5.935   4.901   9.324 -0.3588 -0.4065  0.8620
   28CHL1   C22 2054   5.949   5.090   9.136 -0.7466 -0.7387  0.4302
   28CHL1  H22A 2055   5.973   5.192   9.099 -0.4616 -1.5852 -1.9329
   28CHL1  H22B 2056   6.048   5.042   9.155  0.8868  1.6842 -1.3636
   28CHL1   C23 2057   5.873   5.014   9.029 -0.3437  0.1887 -0.1529
   28CHL1  H23A 2058   5.854   4.910   9.064 -1.4666  0.3899 -0.1147
   28CHL1  H23B 2059   5.775   5.066   9.027  0.0211  0.8771 -0.3605
   28CHL1   C24 2060   5.949   5.008   8.895  0.7607 -0.2814 -0.2439
   28CHL1  H24A 2061   5.945   5.110   8.853 -4.8459  0.1182  0.5500
   28CHL1  H24B 2062   6.054   4.978   8.915  1.1189 -2.0769 -3.9768
   28CHL1   C25 2063   5.901   4.900   8.799  0.3305  0.1005 -0.8167
   28CHL1   H25 2064   5.916   4.800   8.846 -0.6827  1.0145  1.6449
   28CHL1   C26 2065   5.749   4.907   8.782  0.2742  0.0027 -0.2715
   28CHL1  H26A 2066   5.713   5.011   8.768 -0.5875 -0.3677 -0.9084
   28CHL1  H26B 2067   5.709   4.855   8.692 -1.6853  1.3077 -0.2301
   28CHL1  H26C 2068   5.706   4.867   8.876 -2.4462  4.9268  0.9372
   28CHL1   C27 2069   5.958   4.914   8.656 -0.0436  0.2015  0.3731
   28CHL1  H27A 2070   6.069   4.910   8.655 -0.0775 -3.3728 -1.1207
   28CHL1  H27B 2071   5.912   4.836   8.591 -0.0074  0.9190 -0.5419
   28CHL1  H27C 2072   5.925   5.015   8.623  0.4432  0.6432  1.2093
   29CHL1    C3 2073   5.916   3.711   6.818  0.5285  0.1588 -0.0125
   29CHL1    H3 2074   5.812   3.714   6.857  0.3811 -0.3801 -0.3556
   29CHL1    O3 2075   5.913   3.713   6.675  0.2446 -0.1845  0.3778
   29CHL1   H3' 2076   5.853   3.787   6.662 -1.0885 -0.8323  2.3831
   29CHL1    C4 2077   6.000   3.834   6.882 -0.0014  0.1607  0.0085
   29CHL1   H4A 2078   6.100   3.839   6.834  0.5535  0.1003  1.1414
   29CHL1   H4B 2079   5.952   3.921   6.832  0.2928 -0.0351 -0.6261
   29CHL1    C5 2080   6.014   3.832   7.035  1.1398  0.2959  0.1193
   29CHL1    C6 2081   5.965   3.928   7.126  0.2593  0.1578  0.2617
   29CHL1    H6 2082   5.912   4.020   7.099 -0.9477 -0.4978  0.3206
   29CHL1    C7 2083   5.971   3.910   7.274 -0.3655 -0.2920 -0.3124
   29CHL1   H7A 2084   5.979   4.006   7.330  0.9552 -0.2357 -0.5538
   29CHL1   H7B 2085   5.868   3.877   7.300 -1.4773  1.7933 -1.7418
   29CHL1    C8 2086   6.083   3.809   7.315  0.6922 -0.3599  0.1995
   29CHL1    H8 2087   6.181   3.850   7.281 -0.8979  1.6166 -2.4151
   29CHL1   C14 2088   6.084   3.788   7.467  0.4134 -0.4238  0.2636
   29CHL1   H14 2089   5.982   3.749   7.487  0.3995  0.5898  2.3479
   29CHL1   C15 2090   6.106   3.916   7.551  0.0544 -0.8220 -0.3745
   29CHL1  H15A 2091   6.186   3.970   7.496 -3.4775  3.2736 -2.0547
   29CHL1  H15B 2092   6.019   3.984   7.564  2.5995  2.1772  3.0762
   29CHL1   C16 2093   6.149   3.855   7.689  0.0546  0.0569 -0.8512
   29CHL1  H16A 2094   6.247   3.893   7.723  0.5111  1.5315 -3.5534
   29CHL1  H16B 2095   6.072   3.885   7.764  3.2680  1.3553  2.1946
   29CHL1   C17 2096   6.152   3.697   7.668 -0.3849 -0.6555 -0.3187
   29CHL1   H17 2097   6.046   3.667   7.682 -0.9303  0.7438 -1.2260
   29CHL1   C13 2098   6.180   3.683   7.519 -0.5127 -0.2803  0.3281
   29CHL1   C18 2099   6.337   3.712   7.494 -0.1332 -0.0590  0.2745
   29CHL1  H18A 2100   6.408   3.629   7.511 -0.5232 -0.4762 -0.0917
   29CHL1  H18B 2101   6.351   3.737   7.386 -0.1187 -0.6436  0.1413
   29CHL1  H18C 2102   6.375   3.791   7.562 -0.1179  0.5635 -0.4423
   29CHL1   C12 2103   6.132   3.559   7.454  0.9872 -0.1211  0.0959
   29CHL1  H12A 2104   6.190   3.466   7.476  0.2763 -1.3211 -2.7104
   29CHL1  H12B 2105   6.027   3.529   7.476 -0.3544  0.4471 -4.5613
   29CHL1   C11 2106   6.147   3.557   7.301  0.0033 -0.3668  0.9440
   29CHL1  H11A 2107   6.256   3.558   7.282 -0.0994  0.7738  0.3245
   29CHL1  H11B 2108   6.109   3.461   7.259 -0.8860  0.6764 -0.7578
   29CHL1    C9 2109   6.062   3.676   7.235  0.5423 -0.0387 -0.1644
   29CHL1    H9 2110   5.957   3.664   7.269  1.4107  0.3291  2.8902
   29CHL1   C10 2111   6.073   3.693   7.082  0.2588  0.1176  0.2073
   29CHL1   C19 2112   6.223   3.685   7.042 -0.0343  0.1591  0.1661
   29CHL1  H19A 2113   6.253   3.712   6.939  1.1635  2.4918  1.0448
   29CHL1  H19B 2114   6.271   3.761   7.109 -0.5743  0.8364 -0.2045
   29CHL1  H19C 2115   6.271   3.586   7.053 -0.7307 -0.0274  1.9142
   29CHL1    C1 2116   5.995   3.575   7.018 -0.4417  0.5159  0.2786
   29CHL1   H1A 2117   6.051   3.482   7.040  1.3634  1.6014  0.5099
   29CHL1   H1B 2118   5.892   3.571   7.059 -0.3661  0.9314  0.5136
   29CHL1    C2 2119   5.983   3.585   6.858 -0.1738  0.4415 -1.1664
   29CHL1   H2A 2120   5.927   3.491   6.835 -0.0563  0.2248 -0.5928
   29CHL1   H2B 2121   6.085   3.582   6.814 -0.0182  0.5834 -0.8113
   29CHL1   C20 2122   6.239   3.632   7.780  0.1321  0.4961  0.9549
   29CHL1   H20 2123   6.343   3.669   7.768 -0.3574  1.8514  0.7423
   29CHL1   C21 2124   6.245   3.478   7.776 -0.4693  0.5568  0.1046
   29CHL1  H21A 2125   6.268   3.446   7.672 -0.8401 -2.3245  0.8254
   29CHL1  H21B 2126   6.139   3.451   7.798 -0.7186 -0.7473 -2.3749
   29CHL1  H21C 2127   6.307   3.434   7.857 -2.1576  0.4418  1.4043
   29CHL1   C22 2128   6.202   3.684   7.920  0.1672 -0.4023 -0.6348
   29CHL1  H22A 2129   6.205   3.795   7.928  4.1796 -0.4897  3.1700
   29CHL1  H22B 2130   6.100   3.650   7.947 -1.3775  3.3256 -1.1699
   29CHL1   C23 2131   6.303   3.646   8.033 -0.5613  0.1691 -0.7317
   29CHL1  H23A 2132   6.310   3.537   8.055 -1.5163  0.5253  1.5965
   29CHL1  H23B 2133   6.399   3.686   7.993 -1.4311  1.0288 -2.0121
   29CHL1   C24 2134   6.294   3.730   8.158  0.3829 -0.1662 -0.6486
   29CHL1  H24A 2135   6.292   3.834   8.118 -0.8292  0.7644  1.6535
   29CHL1  H24B 2136   6.196   3.707   8.206  0.6771  0.4956  0.2864
   29CHL1   C25 2137   6.401   3.719   8.271  0.6436  0.4346 -0.3207
   29CHL1   H25 2138   6.496   3.757   8.228  1.1804 -0.9830 -0.4473
   29CHL1   C26 2139   6.366   3.799   8.401  0.2211  0.1096  0.1847
   29CHL1  H26A 2140   6.447   3.805   8.476 -1.2029  0.5425  1.7546
   29CHL1  H26B 2141   6.348   3.902   8.365  1.3065 -0.0084 -0.7326
   29CHL1  H26C 2142   6.278   3.749   8.448  2.0816 -0.6774  3.1426
   29CHL1   C27 2143   6.443   3.575   8.306  0.0119 -0.0384  0.6175
   29CHL1  H27A 2144   6.541   3.570   8.359  0.6166 -0.4596 -0.5194
   29CHL1  H27B 2145   6.370   3.527   8.374 -0.6986 -0.4175 -0.4062
   29CHL1  H27C 2146   6.458   3.516   8.214  0.0560 -0.4329  0.8771
   30CHL1    C3 2147   4.088   4.147   7.371 -0.4114  0.8571  0.1022
   30CHL1    H3 2148   4.182   4.103   7.330 -1.4678 -2.6800  1.0867
   30CHL1    O3 2149   4.014   4.183   7.254  0.5735  0.2569  0.1161
   30CHL1   H3' 2150   3.992   4.098   7.215 -1.3306  1.4779 -1.6761
   30CHL1    C4 2151   4.004   4.037   7.451  0.1547  0.1572  0.1604
   30CHL1   H4A 2152   3.906   4.089   7.442  1.0872  1.6539 -2.2945
   30CHL1   H4B 2153   4.000   3.949   7.383  1.7959  1.5525 -1.8740
   30CHL1    C5 2154   4.064   4.003   7.582 -0.0326 -0.1367 -0.4097
   30CHL1    C6 2155   4.090   3.878   7.621 -0.0219 -0.7647  0.3539
   30CHL1    H6 2156   4.073   3.796   7.549  1.3639 -1.7837  1.1405
   30CHL1    C7 2157   4.147   3.846   7.752  0.3163 -0.3308 -0.0365
   30CHL1   H7A 2158   4.108   3.752   7.796  0.7863  0.3309  1.8529
   30CHL1   H7B 2159   4.258   3.837   7.749  0.5794  2.1644  0.3191
   30CHL1    C8 2160   4.116   3.953   7.860 -0.0338 -0.5907 -0.1479
   30CHL1    H8 2161   4.007   3.950   7.880 -0.1829 -0.8642 -0.9731
   30CHL1   C14 2162   4.200   3.931   7.983  1.0200 -0.5499 -0.0604
   30CHL1   H14 2163   4.306   3.931   7.948  0.9050 -1.8919 -0.4324
   30CHL1   C15 2164   4.191   3.792   8.055  0.1436 -0.0519 -0.6258
   30CHL1  H15A 2165   4.083   3.774   8.077  0.6175  0.1917  2.3735
   30CHL1  H15B 2166   4.227   3.710   7.989  0.2927  0.5292 -1.2677
   30CHL1   C16 2167   4.261   3.810   8.192  0.6705 -0.5270 -0.3138
   30CHL1  H16A 2168   4.195   3.776   8.275  0.7682 -1.0695 -0.4554
   30CHL1  H16B 2169   4.353   3.751   8.206 -0.7600 -2.6415  0.5905
   30CHL1   C17 2170   4.306   3.960   8.197  0.8372 -0.4685  0.2173
   30CHL1   H17 2171   4.405   3.966   8.147  0.1842 -0.7468 -1.1484
   30CHL1   C13 2172   4.208   4.036   8.097 -0.3940  0.5688  1.8862
   30CHL1   C18 2173   4.066   4.047   8.169 -0.3412  0.1689 -0.1892
   30CHL1  H18A 2174   3.984   4.049   8.094  1.1053 -0.9072 -1.8635
   30CHL1  H18B 2175   4.044   3.957   8.232  0.4285  0.3946  0.4204
   30CHL1  H18C 2176   4.079   4.135   8.236 -0.2652  0.0064  0.0121
   30CHL1   C12 2177   4.250   4.164   8.024 -0.5342  0.2221 -0.0610
   30CHL1  H12A 2178   4.261   4.245   8.100 -1.2589  0.6575 -0.4054
   30CHL1  H12B 2179   4.344   4.140   7.971  0.0852  3.1932 -0.4842
   30CHL1   C11 2180   4.153   4.204   7.914 -0.4188  0.1715  0.3414
   30CHL1  H11A 2181   4.050   4.227   7.950 -0.2919  2.1367 -0.4267
   30CHL1  H11B 2182   4.192   4.302   7.880 -1.1229  0.4006  0.1827
   30CHL1    C9 2183   4.151   4.093   7.803  0.4486 -0.5971 -0.3157
   30CHL1    H9 2184   4.259   4.091   7.777  0.7616  1.6918  0.5102
   30CHL1   C10 2185   4.082   4.130   7.676 -0.3979  0.2748  0.1575
   30CHL1   C19 2186   3.947   4.194   7.708  1.7632  0.2146 -0.3240
   30CHL1  H19A 2187   3.944   4.280   7.778 -1.1398 -0.7311  0.8975
   30CHL1  H19B 2188   3.896   4.235   7.618 -1.9227  1.3101  2.0260
   30CHL1  H19C 2189   3.876   4.117   7.748  2.0787 -0.4671 -1.0476
   30CHL1    C1 2190   4.173   4.234   7.590  0.4862  0.0138  0.0605
   30CHL1   H1A 2191   4.196   4.325   7.650  0.7778 -0.0152 -0.0065
   30CHL1   H1B 2192   4.269   4.183   7.570  1.3194  2.0543 -1.5301
   30CHL1    C2 2193   4.121   4.272   7.450  0.2767  0.4767  0.0341
   30CHL1   H2A 2194   4.186   4.344   7.395 -0.1701 -0.6702 -2.1222
   30CHL1   H2B 2195   4.027   4.329   7.466  0.4769  2.0021 -3.3784
   30CHL1   C20 2196   4.320   4.017   8.336  0.8223  0.1411 -0.6745
   30CHL1   H20 2197   4.279   4.121   8.333 -1.0728 -0.5115  0.4910
   30CHL1   C21 2198   4.470   4.020   8.365  0.7345  0.6523 -0.0851
   30CHL1  H21A 2199   4.497   3.913   8.363  0.1237  0.4770  0.7271
   30CHL1  H21B 2200   4.497   4.066   8.463  2.0918  1.9739 -1.0217
   30CHL1  H21C 2201   4.527   4.088   8.297 -0.1032  2.5903  1.0471
   30CHL1   C22 2202   4.236   3.949   8.445 -1.0117 -0.1842  0.2087
   30CHL1  H22A 2203   4.126   3.946   8.430 -1.3071 -1.5504  2.2224
   30CHL1  H22B 2204   4.271   3.844   8.454  0.1262 -0.2087 -3.0264
   30CHL1   C23 2205   4.233   4.027   8.573 -0.4299  1.1896 -0.6973
   30CHL1  H23A 2206   4.330   4.042   8.626 -1.4228 -0.9361  1.9544
   30CHL1  H23B 2207   4.184   4.126   8.563 -0.2862  1.5512  1.5533
   30CHL1   C24 2208   4.149   3.950   8.684 -0.2244 -0.0332  0.0710
   30CHL1  H24A 2209   4.047   3.913   8.658 -0.7725 -0.2509  2.2706
   30CHL1  H24B 2210   4.203   3.857   8.711 -2.7531 -2.1029 -1.4861
   30CHL1   C25 2211   4.146   4.042   8.813  0.1994 -0.1329  0.4750
   30CHL1   H25 2212   4.104   4.144   8.796  1.1977  0.0826 -0.8663
   30CHL1   C26 2213   4.055   3.970   8.903  0.3437  0.0051  0.1384
   30CHL1  H26A 2214   3.955   3.960   8.856  0.0760 -0.5915  0.8067
   30CHL1  H26B 2215   4.103   3.873   8.928  1.6643  0.6179  0.0085
   30CHL1  H26C 2216   4.035   4.017   9.002  1.5060  2.6447 -0.8127
   30CHL1   C27 2217   4.291   4.057   8.873 -0.1005 -0.1031  0.4271
   30CHL1  H27A 2218   4.290   4.100   8.975  0.6882 -1.6571  1.1094
   30CHL1  H27B 2219   4.346   3.961   8.885 -0.1028 -0.0616  0.7755
   30CHL1  H27C 2220   4.341   4.132   8.808  1.7173 -2.3354 -0.8980
   31CHL1    C3 2221   4.650   5.358   6.909 -1.0175  0.0437 -0.2975
   31CHL1    H3 2222   4.642   5.248   6.929 -0.3888  0.0843  0.2098
   31CHL1    O3 2223   4.668   5.378   6.768  0.0917  0.2217  0.2909
   31CHL1   H3' 2224   4.581   5.379   6.726 -0.3802 -2.6213  0.9913
   31CHL1    C4 2225   4.523   5.431   6.951  0.0216 -0.4000  0.3138
   31CHL1   H4A 2226   4.530   5.534   6.908 -1.9608 -0.2936  0.1827
   31CHL1   H4B 2227   4.447   5.381   6.888  0.4768  0.1678 -0.7239
   31CHL1    C5 2228   4.493   5.452   7.098  0.4767  0.7477 -0.8008
   31CHL1    C6 2229   4.380   5.398   7.151  0.1400 -0.3917 -0.1789
   31CHL1    H6 2230   4.313   5.353   7.076 -0.5718 -0.6348  0.5811
   31CHL1    C7 2231   4.334   5.387   7.293 -0.3479 -0.1478  0.3597
   31CHL1   H7A 2232   4.226   5.405   7.309 -0.0594  2.1558  0.0505
   31CHL1   H7B 2233   4.367   5.285   7.322  0.0153 -0.3516 -0.7281
   31CHL1    C8 2234   4.439   5.473   7.375 -0.0915 -0.0044  0.4749
   31CHL1    H8 2235   4.419   5.582   7.371  0.5516  0.0952 -0.2581
   31CHL1   C14 2236   4.428   5.439   7.520 -0.7242 -0.1235  0.3638
   31CHL1   H14 2237   4.454   5.331   7.528 -0.2859 -0.0817 -0.4200
   31CHL1   C15 2238   4.288   5.446   7.577 -0.1621 -0.0394  0.3939
   31CHL1  H15A 2239   4.229   5.536   7.548 -0.4376 -0.3988 -0.1781
   31CHL1  H15B 2240   4.240   5.350   7.550  0.1934 -0.1666  0.1971
   31CHL1   C16 2241   4.307   5.432   7.730 -0.0159 -0.0613 -0.1403
   31CHL1  H16A 2242   4.240   5.507   7.778  0.5043  1.5847 -1.8225
   31CHL1  H16B 2243   4.298   5.329   7.770 -1.4192  0.1712  0.1952
   31CHL1   C17 2244   4.457   5.466   7.752 -0.3566 -0.1412 -0.0461
   31CHL1   H17 2245   4.515   5.371   7.762 -2.1776 -1.3780 -0.7467
   31CHL1   C13 2246   4.511   5.524   7.614  0.6191 -0.5695  0.3137
   31CHL1   C18 2247   4.468   5.670   7.627  0.4801  0.6703  0.0235
   31CHL1  H18A 2248   4.469   5.715   7.525  1.2110  1.0466  0.1863
   31CHL1  H18B 2249   4.363   5.673   7.662  0.0867 -1.8795 -0.7729
   31CHL1  H18C 2250   4.546   5.722   7.689  0.8090 -0.8051  0.8936
   31CHL1   C12 2251   4.659   5.508   7.582 -0.4115  0.1140 -0.3198
   31CHL1  H12A 2252   4.714   5.579   7.647  0.3427 -0.2333 -0.5738
   31CHL1  H12B 2253   4.693   5.408   7.616 -0.3143 -0.1040 -1.0445
   31CHL1   C11 2254   4.681   5.543   7.434  0.2112  0.5012  0.5210
   31CHL1  H11A 2255   4.670   5.651   7.409  1.7517  0.7772  0.9019
   31CHL1  H11B 2256   4.788   5.529   7.408 -0.5815 -1.1691 -2.3973
   31CHL1    C9 2257   4.588   5.466   7.329 -0.0361  0.8233  0.0340
   31CHL1    H9 2258   4.609   5.357   7.336 -2.3456  0.2617 -0.7766
   31CHL1   C10 2259   4.616   5.501   7.178 -0.6679  0.0797 -0.8081
   31CHL1   C19 2260   4.630   5.652   7.156  0.0660 -0.3916  0.2056
   31CHL1  H19A 2261   4.681   5.683   7.062 -0.1297 -0.7766 -0.0304
   31CHL1  H19B 2262   4.529   5.695   7.170  0.1236 -0.9481  2.7699
   31CHL1  H19C 2263   4.699   5.696   7.231 -0.6802  0.6344  0.3084
   31CHL1    C1 2264   4.751   5.433   7.129  0.8414 -0.0974  0.0306
   31CHL1   H1A 2265   4.842   5.472   7.178  0.4080 -0.2874  1.0177
   31CHL1   H1B 2266   4.770   5.330   7.165  2.3184  0.5464  1.2362
   31CHL1    C2 2267   4.774   5.426   6.974 -0.3293 -0.1087 -0.1719
   31CHL1   H2A 2268   4.867   5.370   6.950 -0.1616  0.9971 -2.2826
   31CHL1   H2B 2269   4.791   5.523   6.922  2.1130 -0.0955  0.5513
   31CHL1   C20 2270   4.483   5.541   7.882 -0.3245  0.2085  0.2347
   31CHL1   H20 2271   4.425   5.636   7.885 -0.4484  0.1580 -0.5703
   31CHL1   C21 2272   4.633   5.578   7.906 -0.2040 -0.2122  0.1803
   31CHL1  H21A 2273   4.639   5.638   7.999 -1.6051  0.3258 -0.0527
   31CHL1  H21B 2274   4.674   5.646   7.828  0.0819  0.3299  0.7948
   31CHL1  H21C 2275   4.697   5.488   7.919  2.3467  1.6309  1.2808
   31CHL1   C22 2276   4.426   5.459   7.997  0.1243  0.2371 -0.1298
   31CHL1  H22A 2277   4.315   5.464   7.991  0.1357 -0.3269 -1.0418
   31CHL1  H22B 2278   4.464   5.355   7.991 -1.4650 -0.4579  1.2310
   31CHL1   C23 2279   4.460   5.521   8.140 -0.1385 -0.0830 -0.4805
   31CHL1  H23A 2280   4.568   5.516   8.164  0.3065  1.1194 -2.0660
   31CHL1  H23B 2281   4.429   5.628   8.137  0.3809  0.0484 -2.1843
   31CHL1   C24 2282   4.389   5.433   8.240  0.1784  0.1878  0.2951
   31CHL1  H24A 2283   4.280   5.426   8.217  0.3107 -0.4192 -0.1754
   31CHL1  H24B 2284   4.449   5.339   8.234 -1.2046 -0.7799  1.1399
   31CHL1   C25 2285   4.399   5.465   8.388 -0.2170 -0.1500  0.2310
   31CHL1   H25 2286   4.503   5.481   8.422  0.4824 -0.3634 -1.7201
   31CHL1   C26 2287   4.332   5.602   8.423  0.2105 -0.0956 -0.1122
   31CHL1  H26A 2288   4.336   5.618   8.533  1.4430 -0.9916 -0.0063
   31CHL1  H26B 2289   4.381   5.693   8.381  0.1641  0.0001  0.0386
   31CHL1  H26C 2290   4.228   5.594   8.386  0.2403 -0.6884 -0.0760
   31CHL1   C27 2291   4.347   5.352   8.475  0.7311  0.0505  1.0099
   31CHL1  H27A 2292   4.400   5.256   8.457  0.8183 -0.0278  1.6415
   31CHL1  H27B 2293   4.239   5.337   8.453  1.2722 -0.7414 -1.3587
   31CHL1  H27C 2294   4.362   5.362   8.585 -0.5943  0.9691  1.1359
   32CHL1    C3 2295   4.695   3.295   7.036 -0.5237  0.4891 -0.3903
   32CHL1    H3 2296   4.596   3.333   7.069 -2.3321 -0.1366 -4.4494
   32CHL1    O3 2297   4.692   3.307   6.893  0.1774 -0.6597  0.8876
   32CHL1   H3' 2298   4.784   3.297   6.865 -0.1711 -1.0705 -0.1503
   32CHL1    C4 2299   4.820   3.355   7.096  0.3665  0.0756  0.0241
   32CHL1   H4A 2300   4.912   3.310   7.053  0.5153  0.0371  0.3788
   32CHL1   H4B 2301   4.828   3.458   7.054 -2.1863  1.0017  1.5854
   32CHL1    C5 2302   4.827   3.344   7.250  0.2144 -0.4003 -0.2070
   32CHL1    C6 2303   4.832   3.451   7.334  0.7586  0.2393  0.3249
   32CHL1    H6 2304   4.848   3.551   7.292  0.7169 -0.0715 -0.4429
   32CHL1    C7 2305   4.847   3.447   7.482  0.8706  0.2442  0.7514
   32CHL1   H7A 2306   4.934   3.506   7.518  1.3200  0.5602 -0.8054
   32CHL1   H7B 2307   4.749   3.484   7.517  0.9714 -0.2849  1.6211
   32CHL1    C8 2308   4.857   3.301   7.536 -0.0172  0.1912  0.5591
   32CHL1    H8 2309   4.963   3.269   7.530 -0.6083 -1.8672  0.3848
   32CHL1   C14 2310   4.794   3.298   7.681 -0.2566 -0.9926  0.4354
   32CHL1   H14 2311   4.689   3.332   7.691  0.3679  1.0406  0.5181
   32CHL1   C15 2312   4.876   3.391   7.769  0.1326  0.6598 -0.6347
   32CHL1  H15A 2313   4.985   3.383   7.751  0.0722 -0.4326 -0.5568
   32CHL1  H15B 2314   4.852   3.498   7.752 -0.7100  0.6017  0.1036
   32CHL1   C16 2315   4.816   3.353   7.908  0.5004  0.3136  0.4175
   32CHL1  H16A 2316   4.907   3.363   7.971  0.1059 -0.5023  1.1462
   32CHL1  H16B 2317   4.730   3.410   7.949 -1.0027 -0.7748 -1.0559
   32CHL1   C17 2318   4.766   3.205   7.893  0.3535  0.1307  0.2785
   32CHL1   H17 2319   4.656   3.217   7.893  0.3307  0.1912 -1.4710
   32CHL1   C13 2320   4.808   3.168   7.749 -0.5320  0.6077  0.7807
   32CHL1   C18 2321   4.958   3.110   7.750  0.5173 -0.1797  0.3417
   32CHL1  H18A 2322   5.018   3.180   7.813  0.2862  0.3506 -0.0289
   32CHL1  H18B 2323   4.956   3.005   7.788 -3.7132 -0.5076 -0.3570
   32CHL1  H18C 2324   4.998   3.105   7.647 -1.9483 -1.7905 -0.6257
   32CHL1   C12 2325   4.710   3.071   7.669 -0.3108 -0.3530  0.5252
   32CHL1  H12A 2326   4.713   2.967   7.708 -0.0354  0.5593  3.1582
   32CHL1  H12B 2327   4.604   3.103   7.674  0.0997  1.2381 -0.1614
   32CHL1   C11 2328   4.749   3.065   7.517  0.4297 -0.4511  0.1100
   32CHL1  H11A 2329   4.844   3.007   7.511  0.7018 -0.0398  0.3904
   32CHL1  H11B 2330   4.673   3.007   7.461  0.3873 -0.5897  0.3107
   32CHL1    C9 2331   4.775   3.205   7.453 -0.0075  0.3250  0.0928
   32CHL1    H9 2332   4.669   3.240   7.451  0.0828  0.6136 -2.1493
   32CHL1   C10 2333   4.819   3.198   7.306  0.5083  0.0199  0.0745
   32CHL1   C19 2334   4.958   3.127   7.287  0.2171 -0.4687  0.1015
   32CHL1  H19A 2335   5.027   3.191   7.346  0.7583 -1.2393  0.3174
   32CHL1  H19B 2336   4.957   3.031   7.342  1.1522 -1.0310 -0.8142
   32CHL1  H19C 2337   4.991   3.116   7.181 -0.2726  0.9579 -0.2145
   32CHL1    C1 2338   4.701   3.131   7.227 -0.0864  0.0897 -0.0230
   32CHL1   H1A 2339   4.716   3.021   7.233 -1.6093 -0.5249 -4.3309
   32CHL1   H1B 2340   4.597   3.158   7.256 -0.8420 -0.4447 -2.0746
   32CHL1    C2 2341   4.699   3.150   7.073 -0.0875  0.4175 -0.7693
   32CHL1   H2A 2342   4.606   3.103   7.034 -1.0409  2.0433 -0.5744
   32CHL1   H2B 2343   4.782   3.090   7.030 -1.1392 -0.7552 -1.2283
   32CHL1   C20 2344   4.805   3.108   8.011  0.0432 -0.8741  0.2426
   32CHL1   H20 2345   4.913   3.086   7.995 -0.0709 -0.8211 -0.6858
   32CHL1   C21 2346   4.723   2.978   7.992  0.7531  0.0573  0.3253
   32CHL1  H21A 2347   4.764   2.917   7.908  1.0864  2.9103 -1.7641
   32CHL1  H21B 2348   4.625   3.015   7.953  0.4158 -1.3345 -0.2079
   32CHL1  H21C 2349   4.713   2.926   8.089  1.3976  2.6006  1.8544
   32CHL1   C22 2350   4.790   3.160   8.155 -0.4512 -0.1143  0.4052
   32CHL1  H22A 2351   4.824   3.265   8.150  2.6174 -1.0571 -0.8990
   32CHL1  H22B 2352   4.683   3.176   8.183 -0.6598  1.1470 -1.0128
   32CHL1   C23 2353   4.869   3.082   8.253  0.7394  0.4249 -0.3145
   32CHL1  H23A 2354   4.808   2.989   8.263 -1.3235  1.9676  4.0772
   32CHL1  H23B 2355   4.972   3.057   8.218  0.3822 -1.0034 -0.4288
   32CHL1   C24 2356   4.873   3.145   8.392  0.2031 -0.3652  0.2435
   32CHL1  H24A 2357   4.895   3.253   8.381  2.2244 -0.8871 -1.5254
   32CHL1  H24B 2358   4.771   3.123   8.430  0.1991  1.6345  1.5408
   32CHL1   C25 2359   4.974   3.087   8.490  0.6226 -0.3504 -0.1928
   32CHL1   H25 2360   5.075   3.084   8.445  1.4326  0.1961  1.5254
   32CHL1   C26 2361   4.981   3.171   8.616  0.2093 -0.0885 -0.3684
   32CHL1  H26A 2362   5.025   3.270   8.591 -1.6237  0.9943  0.5218
   32CHL1  H26B 2363   4.883   3.203   8.657  0.6889  1.7265 -0.5909
   32CHL1  H26C 2364   5.042   3.127   8.698  0.1904  2.1788  0.9490
   32CHL1   C27 2365   4.945   2.935   8.516  0.5238 -0.0839 -0.3323
   32CHL1  H27A 2366   5.034   2.876   8.546  1.2850  0.8609 -0.7029
   32CHL1  H27B 2367   4.864   2.934   8.592  1.1032 -2.2808  0.3195
   32CHL1  H27C 2368   4.920   2.890   8.417 -1.0904  0.0016  0.0017
   33CHL1    C3 2369   5.865   1.757   7.002 -0.2287 -0.9514 -0.2060
   33CHL1    H3 2370   5.795   1.671   7.006  0.8975 -2.0507 -2.2510
   33CHL1    O3 2371   5.906   1.772   6.869 -0.1890  0.2662 -0.0786
   33CHL1   H3' 2372   5.993   1.814   6.874 -0.0291  0.2510 -2.0366
   33CHL1    C4 2373   5.806   1.891   7.047 -1.3936 -0.0989 -0.1355
   33CHL1   H4A 2374   5.879   1.970   7.018  2.3448 -3.3748 -0.6178
   33CHL1   H4B 2375   5.710   1.904   6.992 -1.2860 -1.8590 -0.8013
   33CHL1    C5 2376   5.771   1.891   7.198 -0.4298 -0.3953  0.0544
   33CHL1    C6 2377   5.652   1.928   7.242  0.0769  0.3075  0.1254
   33CHL1    H6 2378   5.577   1.966   7.171  0.1089 -0.3019 -0.2412
   33CHL1    C7 2379   5.608   1.921   7.386  0.1544  0.0427  0.0963
   33CHL1   H7A 2380   5.547   2.006   7.424  0.2615  0.4679 -0.6565
   33CHL1   H7B 2381   5.548   1.828   7.396  0.9753 -0.4241  0.7817
   33CHL1    C8 2382   5.730   1.900   7.488  0.1360 -0.2779  0.1597
   33CHL1    H8 2383   5.775   1.999   7.510 -0.8191 -0.3030  2.4980
   33CHL1   C14 2384   5.688   1.852   7.625  0.2380  0.2703  0.1947
   33CHL1   H14 2385   5.629   1.761   7.601  1.3850 -0.7973  1.3135
   33CHL1   C15 2386   5.588   1.946   7.701 -0.1954  0.5329 -0.5030
   33CHL1  H15A 2387   5.622   2.050   7.683  3.0005 -0.3749 -0.3254
   33CHL1  H15B 2388   5.489   1.928   7.654 -0.9058  1.4154  0.5916
   33CHL1   C16 2389   5.596   1.896   7.852  0.2625 -0.3458 -0.2277
   33CHL1  H16A 2390   5.609   1.987   7.915 -2.5629  0.8983 -1.2588
   33CHL1  H16B 2391   5.494   1.858   7.873  0.7938 -2.1747 -0.8060
   33CHL1   C17 2392   5.720   1.798   7.860  0.4681  0.0994  0.3425
   33CHL1   H17 2393   5.681   1.694   7.864 -1.8258  0.8547 -0.8665
   33CHL1   C13 2394   5.806   1.830   7.728  0.1615 -0.0453  0.1622
   33CHL1   C18 2395   5.887   1.963   7.750  0.0830 -0.6351  0.5041
   33CHL1  H18A 2396   5.944   1.985   7.658 -0.1535 -0.8053  0.3156
   33CHL1  H18B 2397   5.820   2.052   7.757 -0.4985 -1.1760  2.6511
   33CHL1  H18C 2398   5.953   1.952   7.838  0.0636 -2.9526  0.2895
   33CHL1   C12 2399   5.880   1.715   7.665 -0.1926 -0.7434 -0.7392
   33CHL1  H12A 2400   5.963   1.693   7.736 -0.2664  1.6536  0.2074
   33CHL1  H12B 2401   5.821   1.623   7.646  1.5983 -1.7331 -1.7823
   33CHL1   C11 2402   5.938   1.746   7.523  0.0814  0.2039  0.7872
   33CHL1  H11A 2403   6.016   1.824   7.536  0.1822  0.1169  0.7087
   33CHL1  H11B 2404   5.985   1.651   7.489  1.8170  1.0475  0.7666
   33CHL1    C9 2405   5.828   1.791   7.425 -0.0698 -0.3536  0.2766
   33CHL1    H9 2406   5.759   1.707   7.400 -1.5056  0.8051  0.2088
   33CHL1   C10 2407   5.885   1.831   7.289  0.1759 -0.4988 -0.0739
   33CHL1   C19 2408   5.983   1.941   7.308 -0.3479 -1.0493 -0.2005
   33CHL1  H19A 2409   6.023   1.965   7.207 -1.1579 -0.0750 -0.3017
   33CHL1  H19B 2410   5.932   2.036   7.336 -0.2141 -0.8523 -0.6111
   33CHL1  H19C 2411   6.064   1.931   7.383 -2.1621 -2.3522  1.6754
   33CHL1    C1 2412   5.947   1.692   7.234  0.2387  0.0109 -0.0523
   33CHL1   H1A 2413   6.040   1.662   7.287  0.5926 -2.7151 -1.9796
   33CHL1   H1B 2414   5.879   1.605   7.250 -0.1282 -0.3234 -2.9294
   33CHL1    C2 2415   5.981   1.712   7.088 -0.6492 -0.1479 -0.4195
   33CHL1   H2A 2416   6.022   1.617   7.046  0.2635  0.0714 -0.0539
   33CHL1   H2B 2417   6.062   1.788   7.084 -1.4241  0.8969  2.0724
   33CHL1   C20 2418   5.784   1.810   8.002  0.2850  0.1980 -0.9207
   33CHL1   H20 2419   5.817   1.916   8.008  2.1065 -0.2977 -1.4455
   33CHL1   C21 2420   5.909   1.725   8.006  0.2111  0.7273 -1.0184
   33CHL1  H21A 2421   5.960   1.747   8.102 -1.2471  1.5757 -0.4117
   33CHL1  H21B 2422   5.983   1.731   7.923  1.8378  0.9164  0.3881
   33CHL1  H21C 2423   5.887   1.617   8.022 -0.5002  0.8280 -1.2813
   33CHL1   C22 2424   5.686   1.781   8.117 -0.4061 -0.3908  0.3194
   33CHL1  H22A 2425   5.609   1.856   8.090  2.0897  1.9204 -0.8896
   33CHL1  H22B 2426   5.639   1.681   8.102 -0.9323 -0.0452 -0.4036
   33CHL1   C23 2427   5.728   1.805   8.259 -0.5938  0.2358 -0.1333
   33CHL1  H23A 2428   5.828   1.763   8.281 -0.0522  1.5414 -0.0593
   33CHL1  H23B 2429   5.738   1.915   8.269  1.9497  0.0833 -0.4716
   33CHL1   C24 2430   5.632   1.742   8.360  0.1681 -0.3189  0.0500
   33CHL1  H24A 2431   5.528   1.772   8.335  1.1492  2.9118 -0.6238
   33CHL1  H24B 2432   5.645   1.632   8.358 -1.8576 -0.6148 -1.9935
   33CHL1   C25 2433   5.667   1.788   8.502 -0.0170 -0.0597 -1.0525
   33CHL1   H25 2434   5.632   1.892   8.516  1.5518  0.2539  0.9903
   33CHL1   C26 2435   5.590   1.693   8.593  0.5868 -0.3972 -0.6020
   33CHL1  H26A 2436   5.615   1.703   8.701 -0.1949  0.8804 -0.5165
   33CHL1  H26B 2437   5.482   1.716   8.580  0.6154 -0.6911 -1.4228
   33CHL1  H26C 2438   5.608   1.588   8.563 -0.5024 -0.9598  0.6411
   33CHL1   C27 2439   5.820   1.778   8.534 -0.1431  0.3763  0.5279
   33CHL1  H27A 2440   5.864   1.678   8.511 -0.0895  0.3119  0.9029
   33CHL1  H27B 2441   5.870   1.865   8.485 -1.7087  1.2806  0.4690
   33CHL1  H27C 2442   5.844   1.807   8.639  0.7396  1.2493  0.1077
   34CHL1    C3 2443   0.250   1.549   7.077  0.9172  0.0081  0.4163
   34CHL1    H3 2444   0.279   1.639   7.135 -1.6641  1.4364 -0.3325
   34CHL1    O3 2445   0.280   1.572   6.938 -0.0638  0.1961  0.0645
   34CHL1   H3' 2446   0.224   1.504   6.900 -0.8130  1.4824 -1.2216
   34CHL1    C4 2447   0.317   1.427   7.136  0.5802 -0.2820  0.3532
   34CHL1   H4A 2448   0.296   1.339   7.070  1.6779  1.4831 -2.5443
   34CHL1   H4B 2449   0.424   1.435   7.107  0.1864 -1.4987 -1.6784
   34CHL1    C5 2450   0.285   1.409   7.285  0.2179  0.3034 -0.4456
   34CHL1    C6 2451   0.380   1.402   7.384  0.2843  0.0813  0.2063
   34CHL1    H6 2452   0.487   1.405   7.358  0.1025 -1.5952 -0.8927
   34CHL1    C7 2453   0.346   1.379   7.533 -0.1731 -0.2703  0.0180
   34CHL1   H7A 2454   0.412   1.301   7.578  2.1175  1.8105  0.4773
   34CHL1   H7B 2455   0.356   1.473   7.591 -0.5813  0.3676 -0.9209
   34CHL1    C8 2456   0.200   1.333   7.556  0.0468 -0.0727  0.2084
   34CHL1    H8 2457   0.193   1.225   7.529 -2.2647 -0.9656  3.6340
   34CHL1   C14 2458   0.168   1.347   7.702  0.1576 -0.2082 -0.2899
   34CHL1   H14 2459   0.172   1.456   7.722 -0.9645 -0.4685  1.6929
   34CHL1   C15 2460   0.265   1.294   7.807 -0.5041  0.2771  0.4409
   34CHL1  H15A 2461   0.277   1.186   7.785 -3.3550  0.3516 -2.1701
   34CHL1  H15B 2462   0.359   1.352   7.803 -1.3945  1.7594  0.4496
   34CHL1   C16 2463   0.192   1.304   7.941 -0.1201  0.8774 -0.1148
   34CHL1  H16A 2464   0.215   1.222   8.012  0.6931  0.4347 -0.8641
   34CHL1  H16B 2465   0.216   1.403   7.987 -0.5071  1.0028 -0.1820
   34CHL1   C17 2466   0.041   1.323   7.899 -0.1778 -0.4332 -0.8373
   34CHL1   H17 2467   0.018   1.432   7.907 -1.0817 -0.7527  1.8764
   34CHL1   C13 2468   0.031   1.301   7.746 -0.0326  0.1202 -1.2080
   34CHL1   C18 2469   0.006   1.149   7.719  0.1329  0.4858 -0.0980
   34CHL1  H18A 2470   0.031   1.120   7.615 -1.3854 -0.4553 -0.2375
   34CHL1  H18B 2471   0.078   1.088   7.778 -1.6742 -1.2413  0.4214
   34CHL1  H18C 2472  -0.097   1.116   7.744  0.0745 -1.5698 -2.6209
   34CHL1   C12 2473  -0.065   1.389   7.665  0.3297  0.2993  0.5836
   34CHL1  H12A 2474  -0.162   1.336   7.681  0.7528 -1.1144 -1.1164
   34CHL1  H12B 2475  -0.067   1.495   7.695 -0.3635  0.5673 -0.3330
   34CHL1   C11 2476  -0.047   1.386   7.514  1.0301  0.3765  0.5624
   34CHL1  H11A 2477  -0.085   1.293   7.465 -1.4189  0.5784  1.8833
   34CHL1  H11B 2478  -0.120   1.455   7.467  0.7021 -0.2934  0.0659
   34CHL1    C9 2479   0.100   1.411   7.466  0.0033 -0.6156 -0.7566
   34CHL1    H9 2480   0.114   1.519   7.488 -1.2975 -0.6854  0.5793
   34CHL1   C10 2481   0.130   1.403   7.315  0.1177  0.0680 -1.1733
   34CHL1   C19 2482   0.069   1.266   7.267  0.6343 -0.1344 -0.2828
   34CHL1  H19A 2483  -0.040   1.279   7.258  0.5195 -1.3228 -0.7910
   34CHL1  H19B 2484   0.105   1.242   7.164 -0.3488  0.4466 -0.7727
   34CHL1  H19C 2485   0.088   1.176   7.330 -0.0793  1.1134  1.7922
   34CHL1    C1 2486   0.053   1.521   7.244 -0.3100 -0.2869  0.2170
   34CHL1   H1A 2487  -0.057   1.514   7.254 -0.6289  1.8154 -1.2318
   34CHL1   H1B 2488   0.080   1.614   7.300 -2.2674 -0.8087  2.1969
   34CHL1    C2 2489   0.092   1.533   7.095  0.0615  0.4489 -0.3162
   34CHL1   H2A 2490   0.045   1.627   7.057  1.7926  1.5902  0.2163
   34CHL1   H2B 2491   0.054   1.443   7.042 -1.8644  0.5715  0.7849
   34CHL1   C20 2492  -0.061   1.252   7.998  0.1197  0.2052  0.7242
   34CHL1   H20 2493  -0.065   1.144   7.973 -1.8501  0.5753 -0.7954
   34CHL1   C21 2494  -0.203   1.313   7.973  0.2455 -0.1607 -0.1424
   34CHL1  H21A 2495  -0.276   1.260   8.038  1.2065 -0.0839  1.0388
   34CHL1  H21B 2496  -0.227   1.297   7.865  0.4362  0.7278 -0.3261
   34CHL1  H21C 2497  -0.209   1.422   7.992  2.3028 -0.1819  0.9111
   34CHL1   C22 2498  -0.036   1.282   8.145  0.7009  0.0760  0.0416
   34CHL1  H22A 2499   0.072   1.280   8.168  0.4441 -2.2165  1.3499
   34CHL1  H22B 2500  -0.067   1.388   8.159  1.5113  0.0792  2.0485
   34CHL1   C23 2501  -0.081   1.172   8.245 -0.4339  0.1369  0.2591
   34CHL1  H23A 2502  -0.043   1.192   8.348  3.2719 -4.6869  0.1501
   34CHL1  H23B 2503  -0.192   1.169   8.245 -0.5341 -1.8198 -3.3594
   34CHL1   C24 2504  -0.034   1.026   8.212  0.3741  0.0548  0.0179
   34CHL1  H24A 2505  -0.092   0.995   8.123 -1.0608 -1.6381  1.4845
   34CHL1  H24B 2506   0.076   1.013   8.201  0.2939 -3.6431  1.8643
   34CHL1   C25 2507  -0.074   0.915   8.322  0.4246 -0.3980 -0.7243
   34CHL1   H25 2508  -0.039   0.822   8.272 -0.2857 -0.7947 -0.4848
   34CHL1   C26 2509  -0.006   0.936   8.457 -0.5327 -0.2283  0.6525
   34CHL1  H26A 2510   0.101   0.909   8.458  0.2029  2.4328 -0.2844
   34CHL1  H26B 2511  -0.023   1.043   8.482 -1.9656 -0.5562  1.1855
   34CHL1  H26C 2512  -0.062   0.885   8.539 -1.9187  0.5646  0.2409
   34CHL1   C27 2513  -0.229   0.896   8.329 -0.5872 -0.4013  0.3004
   34CHL1  H27A 2514  -0.264   0.795   8.358 -0.3813 -0.1817  1.3831
   34CHL1  H27B 2515  -0.283   0.969   8.394 -0.4528  1.0662 -1.1692
   34CHL1  H27C 2516  -0.275   0.910   8.229 -1.0271 -1.2146  0.3773
   35CHL1    C3 2517   3.858   3.326   7.251  0.8794  0.5344  0.4877
   35CHL1    H3 2518   3.833   3.218   7.254  0.9414  0.5195  0.4734
   35CHL1    O3 2519   3.871   3.377   7.115  0.2176 -0.1080 -0.0850
   35CHL1   H3' 2520   3.917   3.312   7.061 -0.5036 -0.2368 -0.5465
   35CHL1    C4 2521   3.756   3.399   7.328  0.7399 -0.2278 -0.0120
   35CHL1   H4A 2522   3.776   3.509   7.326  0.4035 -0.1373  0.8437
   35CHL1   H4B 2523   3.656   3.398   7.280 -0.0716  0.2867  1.5648
   35CHL1    C5 2524   3.746   3.381   7.478  0.0817 -0.5810  0.1632
   35CHL1    C6 2525   3.627   3.369   7.539  0.0058 -0.4436 -0.4895
   35CHL1    H6 2526   3.535   3.397   7.485  0.6166  1.0599 -0.7837
   35CHL1    C7 2527   3.615   3.330   7.693  0.3163 -0.4987  0.9699
   35CHL1   H7A 2528   3.547   3.400   7.747 -1.2013 -1.6396  0.6165
   35CHL1   H7B 2529   3.572   3.227   7.698  1.1323 -1.1259 -2.3067
   35CHL1    C8 2530   3.752   3.324   7.764  0.1065  0.5632 -0.1455
   35CHL1    H8 2531   3.775   3.429   7.793 -0.5546  0.6225  0.1978
   35CHL1   C14 2532   3.731   3.231   7.886  0.0954 -0.6508  0.4245
   35CHL1   H14 2533   3.724   3.128   7.845 -2.5862 -0.3799 -0.0005
   35CHL1   C15 2534   3.604   3.262   7.976  0.3097  0.8331  0.2729
   35CHL1  H15A 2535   3.602   3.372   7.985  1.7419  0.8333  0.7644
   35CHL1  H15B 2536   3.517   3.214   7.925  0.0356  0.1234  1.3536
   35CHL1   C16 2537   3.644   3.213   8.112  0.3771  0.2625  0.1010
   35CHL1  H16A 2538   3.640   3.301   8.180 -2.0805  0.5818 -0.3712
   35CHL1  H16B 2539   3.583   3.126   8.142  0.9600 -1.2654 -2.8009
   35CHL1   C17 2540   3.796   3.167   8.099  0.1506 -0.1821 -0.3196
   35CHL1   H17 2541   3.788   3.061   8.069  2.4665  0.1632 -2.5174
   35CHL1   C13 2542   3.859   3.235   7.976  0.0401  0.2909 -0.1805
   35CHL1   C18 2543   3.906   3.374   8.018 -0.1759 -0.2169 -0.1504
   35CHL1  H18A 2544   3.922   3.444   7.933 -2.0633  0.7090  0.2155
   35CHL1  H18B 2545   3.833   3.420   8.087 -0.3788  0.5571 -0.8583
   35CHL1  H18C 2546   4.006   3.354   8.062  0.1671  1.2870 -0.2187
   35CHL1   C12 2547   3.964   3.161   7.895 -0.3227 -0.8161  0.1376
   35CHL1  H12A 2548   4.061   3.147   7.947 -0.9879 -0.4095  1.5242
   35CHL1  H12B 2549   3.916   3.063   7.872 -2.3044  0.3943 -1.1891
   35CHL1   C11 2550   3.994   3.239   7.766  0.4267  0.5857 -0.2969
   35CHL1  H11A 2551   4.036   3.340   7.785 -0.0715  1.1806 -2.1902
   35CHL1  H11B 2552   4.058   3.177   7.700 -2.6477 -0.7298 -2.2612
   35CHL1    C9 2553   3.862   3.270   7.676 -0.0185 -0.3355 -0.0050
   35CHL1    H9 2554   3.839   3.168   7.639 -2.0575 -0.6045  1.7930
   35CHL1   C10 2555   3.884   3.355   7.549  0.0097  0.3835 -0.4190
   35CHL1   C19 2556   3.951   3.487   7.579  0.2057 -0.1520  0.2872
   35CHL1  H19A 2557   3.898   3.545   7.657 -0.5489 -0.5958  0.1147
   35CHL1  H19B 2558   4.054   3.480   7.620  0.3843  1.9520  0.3265
   35CHL1  H19C 2559   3.939   3.554   7.491 -0.0442 -0.2773  0.2245
   35CHL1    C1 2560   3.978   3.277   7.453 -1.2293  0.3337  0.3514
   35CHL1   H1A 2561   4.081   3.262   7.494 -0.8300  0.8284 -0.4387
   35CHL1   H1B 2562   3.933   3.176   7.448 -1.6199  0.4411  1.3767
   35CHL1    C2 2563   3.993   3.338   7.319  0.9508  0.1095  0.3859
   35CHL1   H2A 2564   4.062   3.278   7.256  2.1755 -0.6119  2.3245
   35CHL1   H2B 2565   4.032   3.442   7.319 -4.5640  2.5214 -0.4845
   35CHL1   C20 2566   3.870   3.175   8.235 -0.8327  0.8094 -0.4616
   35CHL1   H20 2567   3.906   3.278   8.258  0.5440  0.4557 -0.9207
   35CHL1   C21 2568   3.996   3.093   8.217 -0.5416  0.2591 -1.2290
   35CHL1  H21A 2569   3.960   2.995   8.177 -2.9680  1.2910 -1.7427
   35CHL1  H21B 2570   4.054   3.082   8.311 -1.5338  2.4540 -0.2917
   35CHL1  H21C 2571   4.066   3.137   8.144  0.7712 -1.4728 -1.0871
   35CHL1   C22 2572   3.774   3.131   8.346  0.1168 -0.2666 -0.2132
   35CHL1  H22A 2573   3.693   3.207   8.358  1.5016  1.2613 -0.0946
   35CHL1  H22B 2574   3.725   3.032   8.337  1.2309 -0.8985  0.4699
   35CHL1   C23 2575   3.848   3.112   8.479 -0.5506  0.5388 -0.4369
   35CHL1  H23A 2576   3.901   3.015   8.468 -2.1675 -0.4430  0.0466
   35CHL1  H23B 2577   3.922   3.192   8.501 -1.4619  1.2208  0.2204
   35CHL1   C24 2578   3.748   3.104   8.597  0.3661 -0.0720 -0.5364
   35CHL1  H24A 2579   3.723   3.209   8.622  0.1071  0.0392 -1.2245
   35CHL1  H24B 2580   3.653   3.051   8.572  0.5371 -0.0898 -1.1577
   35CHL1   C25 2581   3.803   3.057   8.736 -0.3345  1.2955 -0.2069
   35CHL1   H25 2582   3.891   3.123   8.755 -0.1002  0.2105  3.1634
   35CHL1   C26 2583   3.694   3.084   8.838  0.1718  0.2116 -0.1171
   35CHL1  H26A 2584   3.598   3.031   8.821 -1.5813  2.5015  2.0203
   35CHL1  H26B 2585   3.727   3.042   8.936 -1.8084 -0.6220  0.2347
   35CHL1  H26C 2586   3.670   3.192   8.835  1.7352  0.5683 -1.2714
   35CHL1   C27 2587   3.850   2.914   8.751  0.0243  0.7044 -0.3586
   35CHL1  H27A 2588   3.883   2.901   8.856 -2.1089  2.1902  0.5683
   35CHL1  H27B 2589   3.932   2.900   8.677 -0.5146  0.6373 -0.9517
   35CHL1  H27C 2590   3.771   2.839   8.730  0.5074 -0.6247  2.1918
   36CHL1    C3 2591   4.767   4.484   6.983 -0.3761 -0.9662  0.0191
   36CHL1    H3 2592   4.866   4.533   6.988 -1.0048  0.3596 -0.1624
   36CHL1    O3 2593   4.735   4.454   6.848 -0.4410 -0.6557 -0.3994
   36CHL1   H3' 2594   4.750   4.538   6.805 -0.4543  0.4604  1.6791
   36CHL1    C4 2595   4.783   4.352   7.056 -0.4121  0.0544 -0.4461
   36CHL1   H4A 2596   4.710   4.285   7.006  0.7021 -1.3609 -0.2658
   36CHL1   H4B 2597   4.888   4.329   7.025 -0.4740  0.3976 -0.9125
   36CHL1    C5 2598   4.772   4.348   7.208  0.0604  1.0973 -0.3711
   36CHL1    C6 2599   4.859   4.283   7.284  0.0421  0.5638 -0.3676
   36CHL1    H6 2600   4.932   4.219   7.233 -2.4151 -1.7536 -1.2533
   36CHL1    C7 2601   4.856   4.271   7.434 -0.1725  0.2934 -0.4684
   36CHL1   H7A 2602   4.877   4.166   7.462  1.0717  0.4678 -0.7111
   36CHL1   H7B 2603   4.933   4.334   7.483 -0.7811 -1.0896  2.5293
   36CHL1    C8 2604   4.709   4.311   7.491 -0.2988 -0.1461  0.4263
   36CHL1    H8 2605   4.643   4.225   7.467  1.4168 -0.9381 -1.7040
   36CHL1   C14 2606   4.726   4.334   7.640 -0.1812 -0.5551  0.1363
   36CHL1   H14 2607   4.787   4.427   7.633 -0.1650 -0.6391 -1.1263
   36CHL1   C15 2608   4.788   4.227   7.725 -0.5000 -0.0127 -0.6894
   36CHL1  H15A 2609   4.734   4.131   7.714 -1.1631  0.2198  0.4035
   36CHL1  H15B 2610   4.895   4.211   7.702 -0.2506  0.6666 -0.0534
   36CHL1   C16 2611   4.759   4.291   7.868 -0.7296 -0.3968  0.2606
   36CHL1  H16A 2612   4.740   4.202   7.931  0.4415 -0.3074  0.7723
   36CHL1  H16B 2613   4.857   4.337   7.895 -1.0242  0.6607 -0.4059
   36CHL1   C17 2614   4.658   4.405   7.857 -0.4996  0.7962  0.0631
   36CHL1   H17 2615   4.724   4.494   7.857  1.0512 -0.2944  0.8752
   36CHL1   C13 2616   4.601   4.390   7.714 -1.0339 -0.1013  0.6381
   36CHL1   C18 2617   4.490   4.283   7.714  0.0651 -0.2146  0.0303
   36CHL1  H18A 2618   4.395   4.319   7.757 -0.4018 -2.3490  0.9282
   36CHL1  H18B 2619   4.480   4.235   7.614  0.1397 -1.0307  0.4079
   36CHL1  H18C 2620   4.522   4.198   7.779 -0.6798 -0.8560 -0.4269
   36CHL1   C12 2621   4.553   4.516   7.640  0.4060  0.3768  0.2128
   36CHL1  H12A 2622   4.450   4.548   7.669  0.9340  1.0660  1.4073
   36CHL1  H12B 2623   4.621   4.599   7.668  1.4300 -0.3632 -0.0300
   36CHL1   C11 2624   4.537   4.497   7.489 -0.2567 -0.6636  0.2497
   36CHL1  H11A 2625   4.446   4.434   7.475 -1.5494  0.9729  0.8813
   36CHL1  H11B 2626   4.523   4.598   7.444 -1.1449 -0.8590  0.0681
   36CHL1    C9 2627   4.667   4.439   7.422  0.7233  0.2275  0.6064
   36CHL1    H9 2628   4.743   4.514   7.454  0.4298  0.4849  0.7078
   36CHL1   C10 2629   4.651   4.428   7.266 -0.3667 -0.1001  0.1410
   36CHL1   C19 2630   4.518   4.358   7.231 -0.3267  0.4979  0.0522
   36CHL1  H19A 2631   4.511   4.330   7.124 -0.9139  3.6917 -0.8702
   36CHL1  H19B 2632   4.512   4.270   7.297 -2.2947 -0.1805 -0.9447
   36CHL1  H19C 2633   4.422   4.406   7.262 -1.8974 -2.1333 -0.4499
   36CHL1    C1 2634   4.662   4.571   7.201  0.1066  0.2470 -0.1839
   36CHL1   H1A 2635   4.573   4.628   7.234  0.8435  1.2029  0.1924
   36CHL1   H1B 2636   4.759   4.615   7.231  1.3226 -2.0761 -0.4501
   36CHL1    C2 2637   4.655   4.569   7.044 -0.3022 -0.3904  0.4366
   36CHL1   H2A 2638   4.667   4.676   7.017  1.4988 -0.4847  0.7302
   36CHL1   H2B 2639   4.554   4.532   7.017 -0.6319  0.0069  1.0820
   36CHL1   C20 2640   4.570   4.416   7.980  0.4637 -0.7831  0.8089
   36CHL1   H20 2641   4.491   4.338   7.979  0.1997 -0.5223 -0.0294
   36CHL1   C21 2642   4.491   4.549   7.975  0.1794  0.0305  0.1230
   36CHL1  H21A 2643   4.436   4.563   7.880  0.0785  1.1337  0.3289
   36CHL1  H21B 2644   4.560   4.637   7.979 -0.9602  0.9740 -0.5849
   36CHL1  H21C 2645   4.413   4.558   8.054 -1.3233 -0.2580 -1.2908
   36CHL1   C22 2646   4.643   4.415   8.112 -0.1425  0.0164  0.5418
   36CHL1  H22A 2647   4.710   4.326   8.107  1.9205  1.5260 -0.4965
   36CHL1  H22B 2648   4.707   4.506   8.117 -1.0146  0.5760  1.7653
   36CHL1   C23 2649   4.546   4.408   8.229  0.5258 -0.6687  0.1378
   36CHL1  H23A 2650   4.485   4.501   8.234  4.3644  2.1245  0.2789
   36CHL1  H23B 2651   4.483   4.318   8.218 -2.6986  1.4169  0.2048
   36CHL1   C24 2652   4.617   4.399   8.366 -0.8693  0.6322  0.2911
   36CHL1  H24A 2653   4.690   4.315   8.367 -1.0830  0.4172 -0.6953
   36CHL1  H24B 2654   4.675   4.492   8.382  0.4861 -0.3741  1.4345
   36CHL1   C25 2655   4.520   4.378   8.484  0.4680  0.1284  0.2408
   36CHL1   H25 2656   4.445   4.301   8.456 -1.0224  1.2076  1.0935
   36CHL1   C26 2657   4.608   4.338   8.600 -0.3951 -0.0060  0.4110
   36CHL1  H26A 2658   4.653   4.238   8.583  0.7526  0.5757 -0.0118
   36CHL1  H26B 2659   4.694   4.402   8.631 -0.1472 -0.4425  0.6341
   36CHL1  H26C 2660   4.548   4.328   8.693  0.8384 -2.6909  0.9933
   36CHL1   C27 2661   4.457   4.510   8.509 -0.3236  0.1966 -0.1310
   36CHL1  H27A 2662   4.396   4.541   8.421  1.5321 -1.8021 -2.2390
   36CHL1  H27B 2663   4.396   4.504   8.602  0.2963 -0.9481  0.2160
   36CHL1  H27C 2664   4.532   4.591   8.523  0.5309 -0.1165 -2.4477
   37CHL1    C3 2665   6.540   1.686   6.951  0.7444  0.2405 -0.3106
   37CHL1    H3 2666   6.609   1.602   6.972  0.7120  0.3464  0.2241
   37CHL1    O3 2667   6.544   1.695   6.814 -0.2808 -0.3110  0.6027
   37CHL1   H3' 2668   6.494   1.777   6.811 -0.6318 -0.5095  0.8224
   37CHL1    C4 2669   6.405   1.653   6.999  0.9064 -0.1590 -0.1914
   37CHL1   H4A 2670   6.334   1.724   6.952  0.4110 -0.5271  0.0033
   37CHL1   H4B 2671   6.381   1.553   6.958 -0.5114 -0.8567  2.1505
   37CHL1    C5 2672   6.387   1.652   7.148 -0.4968 -0.5282 -0.8642
   37CHL1    C6 2673   6.334   1.551   7.221 -1.0967  0.0163 -1.2195
   37CHL1    H6 2674   6.310   1.459   7.164  1.3380 -2.2339  1.1036
   37CHL1    C7 2675   6.321   1.544   7.373  0.4065  0.3398 -0.0706
   37CHL1   H7A 2676   6.217   1.514   7.400  0.4540 -1.6582 -1.8188
   37CHL1   H7B 2677   6.390   1.465   7.411  0.2291  0.5089  0.6103
   37CHL1    C8 2678   6.345   1.682   7.439 -0.9171  0.6626 -0.4392
   37CHL1    H8 2679   6.250   1.739   7.429 -0.8845  0.8409  0.2405
   37CHL1   C14 2680   6.385   1.657   7.585 -0.1853  0.3332  0.6254
   37CHL1   H14 2681   6.483   1.604   7.578 -1.9886 -3.2864  0.0659
   37CHL1   C15 2682   6.294   1.567   7.670  0.5488 -0.5181 -1.0533
   37CHL1  H15A 2683   6.187   1.584   7.646  0.6700 -0.9058 -1.9037
   37CHL1  H15B 2684   6.318   1.458   7.663 -3.0354 -1.9704  3.7877
   37CHL1   C16 2685   6.333   1.603   7.816  0.4852  0.1141  0.2179
   37CHL1  H16A 2686   6.243   1.635   7.874  0.1277 -1.4119  0.5460
   37CHL1  H16B 2687   6.380   1.514   7.864 -1.3873 -0.3169  1.3893
   37CHL1   C17 2688   6.424   1.729   7.805 -0.0685  0.3297  1.0740
   37CHL1   H17 2689   6.528   1.692   7.799  0.1732  1.1816 -0.6724
   37CHL1   C13 2690   6.405   1.783   7.662 -0.3418 -0.3862 -0.9283
   37CHL1   C18 2691   6.279   1.872   7.660  0.2865  1.0972 -0.2347
   37CHL1  H18A 2692   6.196   1.817   7.709  0.4643  1.3323  0.3462
   37CHL1  H18B 2693   6.297   1.966   7.717  1.8767 -0.4747  2.0416
   37CHL1  H18C 2694   6.247   1.902   7.558 -3.5096 -0.1739  0.4291
   37CHL1   C12 2695   6.526   1.864   7.600  0.1247  0.1438  0.5447
   37CHL1  H12A 2696   6.542   1.953   7.665  1.1010  0.3083  0.1021
   37CHL1  H12B 2697   6.615   1.797   7.600  1.0031  1.2437  2.3356
   37CHL1   C11 2698   6.492   1.897   7.457 -0.5748  0.9359  0.0462
   37CHL1  H11A 2699   6.409   1.971   7.458 -3.3774 -1.9969  0.8914
   37CHL1  H11B 2700   6.570   1.948   7.396  0.0303 -0.2491 -0.2104
   37CHL1    C9 2701   6.456   1.770   7.373  0.4908 -0.1192  0.6657
   37CHL1    H9 2702   6.532   1.689   7.376  0.4457 -0.3603 -2.0145
   37CHL1   C10 2703   6.440   1.782   7.217 -0.0247  0.3411  0.2124
   37CHL1   C19 2704   6.335   1.900   7.189 -0.0308  0.4983  0.6107
   37CHL1  H19A 2705   6.339   1.913   7.078 -0.2638 -0.1719  0.5157
   37CHL1  H19B 2706   6.231   1.869   7.213 -0.6973  3.8525  2.6527
   37CHL1  H19C 2707   6.363   1.994   7.241 -2.4426  1.7669 -0.2338
   37CHL1    C1 2708   6.581   1.825   7.159  0.1656  0.4442  0.0863
   37CHL1   H1A 2709   6.600   1.932   7.181  3.6914  0.0830 -0.5669
   37CHL1   H1B 2710   6.649   1.748   7.201  1.0114  1.1523  0.0432
   37CHL1    C2 2711   6.595   1.820   7.006  0.1699  0.4499 -0.6493
   37CHL1   H2A 2712   6.698   1.846   6.975 -0.5666  3.7869 -0.7673
   37CHL1   H2B 2713   6.540   1.902   6.954 -3.2758 -0.3692  1.4060
   37CHL1   C20 2714   6.433   1.820   7.927 -0.3281 -0.1675 -0.1795
   37CHL1   H20 2715   6.494   1.912   7.912 -0.5759  0.2071  0.9894
   37CHL1   C21 2716   6.515   1.728   8.026  0.2102 -0.2454 -0.1279
   37CHL1  H21A 2717   6.458   1.637   8.055 -0.2334  0.1434  0.2379
   37CHL1  H21B 2718   6.534   1.785   8.120  1.6477  1.6935 -1.5077
   37CHL1  H21C 2719   6.617   1.697   7.995 -0.0292 -1.1197 -0.0599
   37CHL1   C22 2720   6.296   1.867   7.987  0.7491 -0.1991 -0.7980
   37CHL1  H22A 2721   6.232   1.925   7.917 -2.3870  1.5473  3.0568
   37CHL1  H22B 2722   6.243   1.781   8.032  3.2545 -0.5670  1.7653
   37CHL1   C23 2723   6.312   1.963   8.108 -0.0664 -0.5516  0.8906
   37CHL1  H23A 2724   6.394   1.949   8.182  0.9313  1.6759  0.3032
   37CHL1  H23B 2725   6.335   2.063   8.064 -2.1871 -0.1325  0.6631
   37CHL1   C24 2726   6.178   1.988   8.182 -0.3948 -0.5453  0.6457
   37CHL1  H24A 2727   6.097   1.998   8.107 -1.4006 -2.5437  1.3754
   37CHL1  H24B 2728   6.158   1.900   8.247 -1.3766 -0.1515  0.8878
   37CHL1   C25 2729   6.172   2.109   8.274 -0.2527 -0.5106 -0.3182
   37CHL1   H25 2730   6.230   2.194   8.232 -0.6152  0.5238  1.2028
   37CHL1   C26 2731   6.027   2.149   8.292 -0.1660 -0.6542  0.1221
   37CHL1  H26A 2732   5.980   2.155   8.192  2.7186  0.3773 -1.2959
   37CHL1  H26B 2733   5.967   2.074   8.348  0.8562 -0.1681  1.9591
   37CHL1  H26C 2734   6.018   2.246   8.346  0.4619 -0.8715  0.6466
   37CHL1   C27 2735   6.235   2.070   8.406  0.2731 -0.6411 -0.1509
   37CHL1  H27A 2736   6.336   2.023   8.405  0.2988 -0.6223 -1.6533
   37CHL1  H27B 2737   6.234   2.167   8.460  0.9395 -1.7824  2.0218
   37CHL1  H27C 2738   6.165   2.002   8.457 -1.5416  2.3405  1.6400
   38CHL1    C3 2739   3.630   1.314   6.797  0.2745  0.0610  0.4334
   38CHL1    H3 2740   3.528   1.358   6.807  0.9632  1.7222  0.5395
   38CHL1    O3 2741   3.669   1.335   6.663  0.0274 -0.6089 -0.0486
   38CHL1   H3' 2742   3.763   1.348   6.654 -0.2717  2.7164  0.3945
   38CHL1    C4 2743   3.727   1.387   6.888 -0.5511  0.4847 -0.1231
   38CHL1   H4A 2744   3.831   1.356   6.863 -1.1755 -0.2801 -1.9002
   38CHL1   H4B 2745   3.732   1.494   6.861  1.6737  0.8106  1.3117
   38CHL1    C5 2746   3.717   1.370   7.036  0.7379  0.6611 -0.8998
   38CHL1    C6 2747   3.710   1.475   7.121 -0.6322 -0.0636 -0.4459
   38CHL1    H6 2748   3.738   1.576   7.085  1.0545 -0.3146  0.0653
   38CHL1    C7 2749   3.696   1.468   7.266 -0.3089  0.1796 -1.0478
   38CHL1   H7A 2750   3.757   1.542   7.322  0.6813 -0.5425 -1.1670
   38CHL1   H7B 2751   3.586   1.474   7.285 -0.2007 -1.3237  0.2452
   38CHL1    C8 2752   3.724   1.321   7.315  0.0597  0.3691  0.0390
   38CHL1    H8 2753   3.834   1.311   7.310  0.0323  0.4923 -2.4373
   38CHL1   C14 2754   3.675   1.312   7.457  0.4499  0.4484 -0.1580
   38CHL1   H14 2755   3.565   1.324   7.465  0.6504  2.6357 -0.1823
   38CHL1   C15 2756   3.725   1.414   7.550 -0.5645  0.0452  0.7962
   38CHL1  H15A 2757   3.833   1.443   7.551 -0.4493 -0.3026 -0.4534
   38CHL1  H15B 2758   3.665   1.507   7.537 -2.3463 -1.2446 -0.6760
   38CHL1   C16 2759   3.697   1.352   7.685  0.3864  0.4122 -0.2860
   38CHL1  H16A 2760   3.789   1.371   7.745 -0.0615 -0.2877  0.6610
   38CHL1  H16B 2761   3.614   1.403   7.739 -0.2263 -0.4203 -0.4091
   38CHL1   C17 2762   3.664   1.197   7.673  0.6434 -0.7684 -0.8326
   38CHL1   H17 2763   3.555   1.188   7.693  0.8521 -1.7429 -0.0798
   38CHL1   C13 2764   3.696   1.172   7.521  0.8346 -0.0922 -0.0914
   38CHL1   C18 2765   3.841   1.119   7.508 -0.5641  0.0711  0.1197
   38CHL1  H18A 2766   3.853   1.019   7.554  0.2744  0.4490  0.7511
   38CHL1  H18B 2767   3.879   1.101   7.405 -0.6168 -0.5893  0.2117
   38CHL1  H18C 2768   3.922   1.186   7.546 -0.0809  0.9928 -2.3048
   38CHL1   C12 2769   3.600   1.082   7.437 -0.5450 -0.3644 -0.0027
   38CHL1  H12A 2770   3.603   0.976   7.471  0.7497 -0.0169  1.1076
   38CHL1  H12B 2771   3.496   1.120   7.446 -0.3871 -0.0117  0.4049
   38CHL1   C11 2772   3.637   1.082   7.288  0.3402 -0.3122 -0.2987
   38CHL1  H11A 2773   3.731   1.025   7.275  1.7312  1.9738 -0.8054
   38CHL1  H11B 2774   3.561   1.016   7.241  0.7117 -0.5902 -0.5067
   38CHL1    C9 2775   3.643   1.219   7.226 -0.4133 -0.0058 -0.1908
   38CHL1    H9 2776   3.541   1.261   7.222  0.1269  1.3355 -0.3799
   38CHL1   C10 2777   3.694   1.218   7.076 -0.6330 -0.4550  0.1083
   38CHL1   C19 2778   3.834   1.151   7.077  0.1582 -0.1176  0.3116
   38CHL1  H19A 2779   3.886   1.163   6.980  0.5699 -0.7672  0.4465
   38CHL1  H19B 2780   3.900   1.193   7.156 -1.1103 -0.2439  1.4736
   38CHL1  H19C 2781   3.831   1.046   7.113  0.0343 -0.1638  0.1678
   38CHL1    C1 2782   3.598   1.146   6.983  0.7032  0.0903 -0.6269
   38CHL1   H1A 2783   3.614   1.037   6.997  0.4809  0.3979  3.2225
   38CHL1   H1B 2784   3.495   1.177   7.013  1.1808 -1.2391  2.7903
   38CHL1    C2 2785   3.632   1.167   6.833  0.3162  0.0791  0.0309
   38CHL1   H2A 2786   3.571   1.099   6.771  0.3753 -1.0561  1.1688
   38CHL1   H2B 2787   3.729   1.122   6.802 -0.5339 -1.5553 -0.3880
   38CHL1   C20 2788   3.724   1.115   7.789  0.0944  0.2230  0.4686
   38CHL1   H20 2789   3.833   1.113   7.770 -0.0373  2.2141 -0.7407
   38CHL1   C21 2790   3.665   0.978   7.779  0.2345  0.2723  0.1972
   38CHL1  H21A 2791   3.559   0.981   7.813  0.3505  0.0311  0.5861
   38CHL1  H21B 2792   3.725   0.919   7.852 -0.4749 -2.6296 -1.4028
   38CHL1  H21C 2793   3.683   0.914   7.690  2.4348 -1.1494  1.5528
   38CHL1   C22 2794   3.706   1.179   7.922 -0.0093  0.5239  0.6244
   38CHL1  H22A 2795   3.731   1.287   7.920  0.4954  0.4044  0.2727
   38CHL1  H22B 2796   3.601   1.194   7.954  0.6796  0.7294  2.9618
   38CHL1   C23 2797   3.784   1.122   8.039  0.2631  0.0814 -0.7410
   38CHL1  H23A 2798   3.773   1.012   8.043 -2.1386  0.2945  0.6395
   38CHL1  H23B 2799   3.893   1.130   8.022  0.3883  2.0268  0.6318
   38CHL1   C24 2800   3.754   1.184   8.177 -0.3822 -0.6726 -0.4795
   38CHL1  H24A 2801   3.775   1.292   8.164 -0.8391 -0.3609  1.1422
   38CHL1  H24B 2802   3.646   1.172   8.200 -0.5260  0.7330 -0.3130
   38CHL1   C25 2803   3.846   1.137   8.289  0.3276 -0.2745 -0.9889
   38CHL1   H25 2804   3.866   1.028   8.278  0.9454 -0.1836 -0.7982
   38CHL1   C26 2805   3.978   1.217   8.293 -0.3176  0.5766  1.0690
   38CHL1  H26A 2806   4.022   1.226   8.191 -1.8683 -0.0335  0.3078
   38CHL1  H26B 2807   3.959   1.325   8.313  0.1265  0.5834  1.4682
   38CHL1  H26C 2808   4.051   1.189   8.372  0.7858 -0.7371 -0.3516
   38CHL1   C27 2809   3.767   1.151   8.418 -0.1831 -0.1536 -0.4014
   38CHL1  H27A 2810   3.686   1.078   8.439 -0.2957  0.0735 -0.0270
   38CHL1  H27B 2811   3.828   1.138   8.510 -1.5872 -0.3448  0.5403
   38CHL1  H27C 2812   3.733   1.256   8.434  1.2413  0.3883 -0.8098
   39CHL1    C3 2813   3.210   6.679   6.907 -0.4772 -0.3827 -0.0586
   39CHL1    H3 2814   3.140   6.763   6.928  0.0297 -0.1671  0.8369
   39CHL1    O3 2815   3.251   6.681   6.774 -0.2652 -0.0392  0.2510
   39CHL1   H3' 2816   3.173   6.695   6.721  0.7558  0.0854 -1.2668
   39CHL1    C4 2817   3.342   6.689   6.989 -0.2638  0.2868  0.1325
   39CHL1   H4A 2818   3.406   6.616   6.935  0.4963 -0.8663  2.4673
   39CHL1   H4B 2819   3.390   6.787   6.968 -1.1413  0.4035 -1.5118
   39CHL1    C5 2820   3.319   6.677   7.138 -0.3631  0.6928  0.1849
   39CHL1    C6 2821   3.364   6.774   7.219  0.4589  0.3053 -0.6524
   39CHL1    H6 2822   3.406   6.865   7.174  1.0620  1.3364  1.8392
   39CHL1    C7 2823   3.350   6.774   7.367  0.0898  0.3148 -0.2716
   39CHL1   H7A 2824   3.452   6.785   7.410 -0.0289 -0.4162  0.2337
   39CHL1   H7B 2825   3.297   6.862   7.408  1.7961  0.4101  1.8642
   39CHL1    C8 2826   3.298   6.637   7.423  0.1134 -0.2073  0.5457
   39CHL1    H8 2827   3.385   6.568   7.422 -0.1337 -0.5171 -0.0024
   39CHL1   C14 2828   3.242   6.669   7.561 -0.8250 -0.1543  0.1157
   39CHL1   H14 2829   3.148   6.725   7.544 -0.9138 -0.9171 -2.2871
   39CHL1   C15 2830   3.333   6.738   7.668 -0.1136  0.3328  0.4307
   39CHL1  H15A 2831   3.433   6.690   7.663 -1.2970 -2.1714 -1.8475
   39CHL1  H15B 2832   3.343   6.846   7.643 -1.1427  0.9796  2.5622
   39CHL1   C16 2833   3.257   6.701   7.798  0.2794 -0.1004 -0.1888
   39CHL1  H16A 2834   3.335   6.654   7.860 -0.3318  0.5612  1.1174
   39CHL1  H16B 2835   3.221   6.795   7.845  0.2709  0.9213 -2.1241
   39CHL1   C17 2836   3.151   6.597   7.763  0.2768  0.4735 -0.4871
   39CHL1   H17 2837   3.054   6.649   7.750 -0.6411 -0.7143  1.2163
   39CHL1   C13 2838   3.191   6.535   7.625  0.1631  0.5237  0.3601
   39CHL1   C18 2839   3.318   6.435   7.649  0.8496 -0.1626  0.9326
   39CHL1  H18A 2840   3.283   6.336   7.686  0.1248 -0.2921 -0.0567
   39CHL1  H18B 2841   3.378   6.417   7.557 -2.0971  0.3428 -1.2454
   39CHL1  H18C 2842   3.391   6.487   7.715  1.7281  1.6836 -1.3679
   39CHL1   C12 2843   3.076   6.491   7.535  0.2694  0.6944 -0.1352
   39CHL1  H12A 2844   3.023   6.402   7.576  0.7511  0.1938 -0.5882
   39CHL1  H12B 2845   3.004   6.575   7.539  0.5619  0.9277  0.3043
   39CHL1   C11 2846   3.121   6.460   7.390  0.2576  0.0347  0.3559
   39CHL1  H11A 2847   3.189   6.373   7.399  0.9240  0.5968  0.8490
   39CHL1  H11B 2848   3.037   6.426   7.326 -0.0421  0.9662  0.2434
   39CHL1    C9 2849   3.195   6.578   7.332  0.8881  0.0299  0.7988
   39CHL1    H9 2850   3.118   6.658   7.328  2.4867  1.5812 -1.7414
   39CHL1   C10 2851   3.235   6.552   7.181 -0.2536 -0.1159  0.2063
   39CHL1   C19 2852   3.333   6.431   7.182 -0.1557 -0.4252 -0.2132
   39CHL1  H19A 2853   3.376   6.402   7.083  3.6425 -1.6192  1.6210
   39CHL1  H19B 2854   3.417   6.442   7.254 -0.5769 -0.0972  0.2350
   39CHL1  H19C 2855   3.272   6.343   7.211  0.3724 -1.5628 -2.3635
   39CHL1    C1 2856   3.118   6.528   7.085  0.9093  0.2919 -0.0909
   39CHL1   H1A 2857   3.077   6.427   7.106  1.0871 -0.0928 -1.4977
   39CHL1   H1B 2858   3.041   6.601   7.117  0.2988 -0.2416 -0.3018
   39CHL1    C2 2859   3.147   6.547   6.941 -0.1067  0.4890  0.2053
   39CHL1   H2A 2860   3.055   6.529   6.881  1.2977 -2.5437 -1.2261
   39CHL1   H2B 2861   3.210   6.464   6.903 -0.1967  1.3496 -1.9491
   39CHL1   C20 2862   3.127   6.491   7.883 -0.7247  0.0958  0.5517
   39CHL1   H20 2863   3.207   6.414   7.883  0.4415  1.2337 -1.2295
   39CHL1   C21 2864   3.002   6.416   7.851  0.2024  0.1865 -0.2085
   39CHL1  H21A 2865   2.928   6.491   7.815 -0.3227 -1.3393 -2.5650
   39CHL1  H21B 2866   2.975   6.364   7.946 -1.4872  1.2897 -0.0507
   39CHL1  H21C 2867   3.003   6.334   7.776  1.4980  0.1287 -0.1443
   39CHL1   C22 2868   3.130   6.557   8.026 -0.5825  0.3095  0.5945
   39CHL1  H22A 2869   3.124   6.463   8.086  0.1080 -1.4804 -1.9775
   39CHL1  H22B 2870   3.232   6.601   8.036 -0.3158 -0.8353  4.3798
   39CHL1   C23 2871   3.014   6.651   8.067  0.4022 -0.3827  0.3316
   39CHL1  H23A 2872   3.026   6.735   7.995  0.2089 -1.6003 -1.1720
   39CHL1  H23B 2873   2.920   6.598   8.040 -0.0884  1.6232 -2.4365
   39CHL1   C24 2874   3.009   6.703   8.217  0.7401  0.2680  0.2628
   39CHL1  H24A 2875   2.990   6.612   8.278 -0.0322  0.5948  0.5278
   39CHL1  H24B 2876   3.108   6.739   8.253  0.9848 -0.9711  0.8728
   39CHL1   C25 2877   2.892   6.804   8.226 -0.2286  0.6721  0.8768
   39CHL1   H25 2878   2.809   6.764   8.164  0.1461  0.3745  0.5646
   39CHL1   C26 2879   2.834   6.810   8.360  0.4898 -0.1631 -1.3421
   39CHL1  H26A 2880   2.909   6.834   8.438 -0.1007 -2.1215 -0.0929
   39CHL1  H26B 2881   2.752   6.885   8.372 -1.8382 -2.6416 -0.5568
   39CHL1  H26C 2882   2.798   6.711   8.395  3.0321 -0.9450 -0.7252
   39CHL1   C27 2883   2.931   6.948   8.175  0.2339  0.3148 -0.6266
   39CHL1  H27A 2884   2.849   7.021   8.196  1.4958  1.6399 -0.1336
   39CHL1  H27B 2885   3.022   6.983   8.228 -0.7274 -1.5417  2.5433
   39CHL1  H27C 2886   2.941   6.951   8.065 -2.0544  1.0774 -0.8710
   40CHL1    C3 2887   5.426   2.907   7.018 -0.2259 -0.0912  0.1325
   40CHL1    H3 2888   5.442   3.005   7.068  1.2720 -0.8398  1.1802
   40CHL1    O3 2889   5.479   2.923   6.884 -0.4347  0.1188 -0.2349
   40CHL1   H3' 2890   5.574   2.940   6.890 -0.8052  2.8807 -0.9876
   40CHL1    C4 2891   5.505   2.799   7.101 -0.1828 -0.1893  0.4862
   40CHL1   H4A 2892   5.505   2.708   7.037 -0.1552  0.7340 -0.8651
   40CHL1   H4B 2893   5.613   2.825   7.107 -0.2624  0.2887 -0.1161
   40CHL1    C5 2894   5.445   2.763   7.239  0.3802 -0.4448  0.1376
   40CHL1    C6 2895   5.513   2.797   7.352 -0.2694  0.3018 -0.8822
   40CHL1    H6 2896   5.616   2.831   7.335  0.2725 -1.2010 -0.8028
   40CHL1    C7 2897   5.467   2.756   7.492  0.0117  0.1191  0.1518
   40CHL1   H7A 2898   5.526   2.682   7.550  1.4525 -3.0031 -4.7228
   40CHL1   H7B 2899   5.469   2.854   7.545  2.3658  0.9609 -1.3257
   40CHL1    C8 2900   5.323   2.694   7.503 -0.4162  0.2091  0.1447
   40CHL1    H8 2901   5.337   2.583   7.497 -1.3171 -0.1151  2.7698
   40CHL1   C14 2902   5.261   2.713   7.644 -0.0953 -0.0282  0.0332
   40CHL1   H14 2903   5.251   2.824   7.653 -0.1558  0.3904 -3.5595
   40CHL1   C15 2904   5.343   2.675   7.766 -0.2472 -0.0714  0.0392
   40CHL1  H15A 2905   5.392   2.576   7.756 -0.3496 -0.0480 -0.7302
   40CHL1  H15B 2906   5.422   2.750   7.786 -0.7420  0.1787  1.1562
   40CHL1   C16 2907   5.234   2.661   7.874  0.0336  0.3958  0.3636
   40CHL1  H16A 2908   5.230   2.556   7.910 -0.7718  0.2724 -0.0762
   40CHL1  H16B 2909   5.255   2.730   7.959  0.9829  0.3174  0.2047
   40CHL1   C17 2910   5.096   2.692   7.809  0.4365  0.3725 -0.1000
   40CHL1   H17 2911   5.091   2.803   7.811  1.7248  0.5651 -2.8652
   40CHL1   C13 2912   5.120   2.655   7.661 -0.4924 -1.1223  0.4974
   40CHL1   C18 2913   5.125   2.502   7.643  0.0176 -0.0019 -0.7585
   40CHL1  H18A 2914   5.023   2.459   7.636  0.1490 -0.6218  0.8573
   40CHL1  H18B 2915   5.165   2.475   7.543 -2.9797  0.0095 -2.0780
   40CHL1  H18C 2916   5.189   2.451   7.717  0.0710  0.8425 -0.2088
   40CHL1   C12 2917   5.038   2.719   7.542 -0.1218  0.1165 -0.4844
   40CHL1  H12A 2918   4.931   2.688   7.542 -0.8581  2.3290 -1.9148
   40CHL1  H12B 2919   5.037   2.829   7.557 -3.4054 -0.2037  3.3768
   40CHL1   C11 2920   5.090   2.689   7.401 -0.0718  0.4926 -0.4677
   40CHL1  H11A 2921   5.086   2.579   7.388 -1.4494  0.6726 -1.9217
   40CHL1  H11B 2922   5.020   2.734   7.327 -0.0303 -0.3117 -1.0003
   40CHL1    C9 2923   5.232   2.745   7.389  0.3458 -0.5065  0.0355
   40CHL1    H9 2924   5.224   2.856   7.398 -0.0049 -0.5351  0.0684
   40CHL1   C10 2925   5.296   2.728   7.245 -0.2286  0.3289 -0.4634
   40CHL1   C19 2926   5.271   2.583   7.206 -0.4866 -0.2174  0.0652
   40CHL1  H19A 2927   5.319   2.575   7.106 -0.3065  1.5468 -0.0293
   40CHL1  H19B 2928   5.320   2.517   7.281  1.2903  0.1572 -0.7071
   40CHL1  H19C 2929   5.162   2.565   7.200 -0.2646 -1.2347 -1.4108
   40CHL1    C1 2930   5.217   2.826   7.147 -0.9675 -0.0348  1.0719
   40CHL1   H1A 2931   5.122   2.775   7.119 -0.5834 -0.2938  0.2074
   40CHL1   H1B 2932   5.187   2.923   7.192 -1.8161  1.4559 -2.3653
   40CHL1    C2 2933   5.277   2.868   7.013  0.0796 -0.1621  0.4211
   40CHL1   H2A 2934   5.214   2.946   6.965 -0.5078 -1.5657 -1.2080
   40CHL1   H2B 2935   5.274   2.774   6.952  1.0670  0.5832 -0.8336
   40CHL1   C20 2936   4.986   2.632   7.893  0.8511 -0.4455 -0.1812
   40CHL1   H20 2937   5.011   2.524   7.901 -0.6675 -0.7763  0.5128
   40CHL1   C21 2938   4.848   2.653   7.824 -0.9117  0.3573  0.4167
   40CHL1  H21A 2939   4.828   2.572   7.751  1.1462  0.6844 -0.5932
   40CHL1  H21B 2940   4.840   2.752   7.775  0.2658  0.1577 -0.2241
   40CHL1  H21C 2941   4.762   2.642   7.894 -0.7027  0.0780  0.6341
   40CHL1   C22 2942   4.974   2.686   8.035 -0.2168  0.0624 -0.2756
   40CHL1  H22A 2943   5.070   2.722   8.078  0.2182 -1.6577  0.2909
   40CHL1  H22B 2944   4.911   2.777   8.036  1.9113  1.6305  0.3635
   40CHL1   C23 2945   4.907   2.586   8.133  0.1649  0.0579 -0.3226
   40CHL1  H23A 2946   4.821   2.535   8.084  0.0337 -1.0151  0.9654
   40CHL1  H23B 2947   4.975   2.500   8.152 -3.7242 -3.3581 -0.4474
   40CHL1   C24 2948   4.870   2.654   8.266  0.0676 -0.0476  0.9327
   40CHL1  H24A 2949   4.952   2.705   8.321 -1.2115  2.8535  0.3180
   40CHL1  H24B 2950   4.810   2.741   8.233 -0.3982 -1.1017 -1.2098
   40CHL1   C25 2951   4.770   2.571   8.354 -0.0958  0.0095  0.1308
   40CHL1   H25 2952   4.683   2.527   8.300 -1.0922 -2.8475  3.6779
   40CHL1   C26 2953   4.838   2.454   8.430  0.1100  0.6255 -0.2099
   40CHL1  H26A 2954   4.912   2.511   8.490 -0.4929 -0.2610  1.4444
   40CHL1  H26B 2955   4.774   2.400   8.502  0.6452  2.8090  2.0531
   40CHL1  H26C 2956   4.887   2.386   8.357  4.3278  3.0707  0.0294
   40CHL1   C27 2957   4.710   2.662   8.467  0.4654 -0.4300 -0.0322
   40CHL1  H27A 2958   4.796   2.693   8.529 -0.5201  1.3622  0.4929
   40CHL1  H27B 2959   4.660   2.754   8.431  0.9622 -0.2077 -0.1642
   40CHL1  H27C 2960   4.643   2.613   8.541  1.8792  1.9904  3.0360
   41CHL1    C3 2961   0.534   3.402   6.926 -0.5081 -0.9691 -0.1352
   41CHL1    H3 2962   0.443   3.350   6.964 -0.0054 -0.6288  1.6142
   41CHL1    O3 2963   0.541   3.371   6.789 -0.2280  0.3328 -0.0650
   41CHL1   H3' 2964   0.611   3.306   6.779 -2.3159 -2.0229 -0.4116
   41CHL1    C4 2965   0.517   3.558   6.956 -0.1111  0.5481 -0.2816
   41CHL1   H4A 2966   0.603   3.606   6.905  3.9585 -4.9860  0.4332
   41CHL1   H4B 2967   0.424   3.587   6.901 -0.2645  1.8159  0.6177
   41CHL1    C5 2968   0.501   3.582   7.103 -0.3897 -0.2105  0.1652
   41CHL1    C6 2969   0.388   3.637   7.149  0.3080  0.0609  0.1918
   41CHL1    H6 2970   0.298   3.649   7.087  0.7224  0.0507 -0.4177
   41CHL1    C7 2971   0.360   3.670   7.293 -0.8793  0.3994 -0.1585
   41CHL1   H7A 2972   0.312   3.767   7.317 -0.7234  0.0932  1.5054
   41CHL1   H7B 2973   0.301   3.581   7.324  1.6020 -1.3763 -0.2102
   41CHL1    C8 2974   0.491   3.644   7.381  0.2244 -0.0327 -0.0244
   41CHL1    H8 2975   0.544   3.741   7.369 -3.3837  2.2533  0.9253
   41CHL1   C14 2976   0.452   3.632   7.522  1.1330  0.2234 -0.6869
   41CHL1   H14 2977   0.373   3.554   7.523 -1.2636  2.3904  2.4853
   41CHL1   C15 2978   0.379   3.754   7.592 -0.0943  0.0630  0.4211
   41CHL1  H15A 2979   0.449   3.841   7.582 -1.7243  1.3284 -0.5836
   41CHL1  H15B 2980   0.279   3.794   7.565  0.9210  1.7441 -1.1179
   41CHL1   C16 2981   0.381   3.713   7.740  0.2460  0.0957 -0.1814
   41CHL1  H16A 2982   0.425   3.797   7.799 -1.0581 -0.5230  1.8017
   41CHL1  H16B 2983   0.280   3.678   7.770  1.2701 -2.0908  1.0073
   41CHL1   C17 2984   0.478   3.593   7.754  0.2033 -0.2441 -0.2095
   41CHL1   H17 2985   0.410   3.505   7.752  1.7114 -1.6484  3.0677
   41CHL1   C13 2986   0.560   3.589   7.625 -0.4952  0.0520 -0.3085
   41CHL1   C18 2987   0.676   3.701   7.642 -0.5793  0.4026  0.3252
   41CHL1  H18A 2988   0.628   3.790   7.689 -1.5516 -0.8034  1.7077
   41CHL1  H18B 2989   0.753   3.660   7.710 -0.2795  0.5689  0.0857
   41CHL1  H18C 2990   0.724   3.717   7.543  0.5693 -0.1345  0.7799
   41CHL1   C12 2991   0.616   3.450   7.595  0.1493  0.1976 -0.0883
   41CHL1  H12A 2992   0.688   3.418   7.672  0.3535 -0.0757 -0.3899
   41CHL1  H12B 2993   0.526   3.385   7.591 -0.5171  0.9408  1.8231
   41CHL1   C11 2994   0.676   3.462   7.448  0.3597 -0.1772 -0.2990
   41CHL1  H11A 2995   0.769   3.523   7.448  1.1511 -1.3126  1.4697
   41CHL1  H11B 2996   0.709   3.360   7.418 -1.3506 -1.2402  1.2114
   41CHL1    C9 2997   0.566   3.511   7.343  0.8040 -0.4537 -0.3006
   41CHL1    H9 2998   0.486   3.435   7.350  1.5966 -1.3592 -0.9336
   41CHL1   C10 2999   0.607   3.517   7.201 -0.4826  0.8701  0.2279
   41CHL1   C19 3000   0.733   3.604   7.187 -0.3646  0.0157 -0.1778
   41CHL1  H19A 3001   0.824   3.563   7.235  1.3769  0.8581 -2.5991
   41CHL1  H19B 3002   0.766   3.615   7.082 -1.4474 -1.7271 -0.7328
   41CHL1  H19C 3003   0.709   3.708   7.219 -0.5514 -0.8992  2.9739
   41CHL1    C1 3004   0.646   3.369   7.153  0.4262 -0.2504  0.3694
   41CHL1   H1A 3005   0.736   3.340   7.211  1.5071  2.4150  0.1972
   41CHL1   H1B 3006   0.569   3.300   7.194  0.0229 -0.4170 -0.6425
   41CHL1    C2 3007   0.665   3.350   6.997 -0.0502 -0.0238 -0.4211
   41CHL1   H2A 3008   0.691   3.244   6.977  1.1893  0.4213 -1.2924
   41CHL1   H2B 3009   0.749   3.414   6.962 -0.4559 -0.6410 -2.6704
   41CHL1   C20 3010   0.542   3.593   7.896 -0.4973 -0.3009  0.8646
   41CHL1   H20 3011   0.614   3.678   7.893 -1.0227  0.1487 -1.9497
   41CHL1   C21 3012   0.618   3.464   7.920 -0.5373  0.2777 -0.1402
   41CHL1  H21A 3013   0.716   3.460   7.868 -0.3362 -0.2623  0.2633
   41CHL1  H21B 3014   0.561   3.377   7.879  1.9801 -2.1721  1.2088
   41CHL1  H21C 3015   0.628   3.447   8.029 -0.2334  0.2913 -0.1639
   41CHL1   C22 3016   0.438   3.605   8.013 -0.2071 -0.1460 -0.0299
   41CHL1  H22A 3017   0.353   3.671   7.986  1.5041  1.6167 -1.3905
   41CHL1  H22B 3018   0.391   3.508   8.039  0.5664 -0.3746  0.5502
   41CHL1   C23 3019   0.509   3.653   8.140 -0.0186 -0.1891 -0.9551
   41CHL1  H23A 3020   0.601   3.593   8.153  0.4097  0.2619 -1.8443
   41CHL1  H23B 3021   0.549   3.756   8.126 -1.8065  0.6704 -0.1007
   41CHL1   C24 3022   0.422   3.645   8.265  0.2311 -0.1463  0.2646
   41CHL1  H24A 3023   0.318   3.665   8.232 -0.6471 -3.6459  0.4915
   41CHL1  H24B 3024   0.428   3.542   8.307  1.2703  0.1907  0.9611
   41CHL1   C25 3025   0.477   3.739   8.377  0.0035  0.0147 -0.4536
   41CHL1   H25 3026   0.399   3.757   8.454  0.8833 -0.4031  0.5637
   41CHL1   C26 3027   0.589   3.664   8.456 -0.3364  0.1472  0.3635
   41CHL1  H26A 3028   0.641   3.735   8.524  0.4709  0.2663 -0.3557
   41CHL1  H26B 3029   0.550   3.575   8.510 -2.9561  0.4840 -0.8115
   41CHL1  H26C 3030   0.668   3.620   8.390  0.9748 -0.2543  2.1385
   41CHL1   C27 3031   0.522   3.879   8.330  0.3462  0.2364 -0.2131
   41CHL1  H27A 3032   0.446   3.914   8.257  0.8781  0.3793 -0.7007
   41CHL1  H27B 3033   0.525   3.954   8.411  2.4510  1.5335 -1.4123
   41CHL1  H27C 3034   0.621   3.884   8.281  0.2455 -0.6183 -0.5204
   42CHL1    C3 3035   1.826   0.045   7.155  0.4469 -0.1050 -0.3588
   42CHL1    H3 3036   1.915   0.092   7.201 -0.3926  0.0344  1.1865
   42CHL1    O3 3037   1.853   0.003   7.024  0.5041 -0.2943 -0.0189
   42CHL1   H3' 3038   1.762  -0.006   6.995 -0.5270  1.6492  2.2647
   42CHL1    C4 3039   1.774  -0.074   7.233  0.4209 -0.3479  0.3888
   42CHL1   H4A 3040   1.690  -0.122   7.178  0.5420  1.9270 -1.9688
   42CHL1   H4B 3041   1.844  -0.160   7.224 -0.9723 -1.3950 -0.9647
   42CHL1    C5 3042   1.738  -0.042   7.378 -0.0802  0.5635  0.2713
   42CHL1    C6 3043   1.810  -0.092   7.480  0.0577  0.4222  0.4068
   42CHL1    H6 3044   1.890  -0.166   7.462  0.9113  1.5204 -0.4237
   42CHL1    C7 3045   1.799  -0.061   7.621  0.1169 -0.3039 -0.6213
   42CHL1   H7A 3046   1.813  -0.147   7.691 -1.2733 -0.5049 -0.5424
   42CHL1   H7B 3047   1.876   0.011   7.654  1.7535 -2.5998  0.8264
   42CHL1    C8 3048   1.658   0.001   7.653  0.7081  0.2742  0.3121
   42CHL1    H8 3049   1.581  -0.077   7.636  1.1430  0.1164 -1.0932
   42CHL1   C14 3050   1.651   0.049   7.796 -0.4856 -0.0505  0.3374
   42CHL1   H14 3051   1.724   0.132   7.794  0.9148 -1.2534 -1.1496
   42CHL1   C15 3052   1.677  -0.049   7.908 -0.4057 -0.6133 -0.1634
   42CHL1  H15A 3053   1.602  -0.132   7.910 -1.7013  0.5325  0.1908
   42CHL1  H15B 3054   1.782  -0.084   7.896 -0.1085  0.4883 -0.9708
   42CHL1   C16 3055   1.652   0.037   8.031 -0.1432  0.7103 -0.0386
   42CHL1  H16A 3056   1.592  -0.028   8.097  1.4499 -1.6429 -0.7779
   42CHL1  H16B 3057   1.746   0.054   8.089  0.7093 -1.2125 -0.7644
   42CHL1   C17 3058   1.572   0.163   7.979  0.2920  0.2316  0.0596
   42CHL1   H17 3059   1.644   0.247   7.969 -1.9315  2.1371 -0.8628
   42CHL1   C13 3060   1.527   0.130   7.832 -0.1205 -0.1951  0.3198
   42CHL1   C18 3061   1.401   0.043   7.831  0.4583 -0.5259  1.2855
   42CHL1  H18A 3062   1.396  -0.025   7.919 -1.8848 -0.0596  1.5808
   42CHL1  H18B 3063   1.310   0.107   7.828 -0.2608 -1.4998 -2.8481
   42CHL1  H18C 3064   1.393  -0.014   7.736  0.9388  3.0068 -1.0814
   42CHL1   C12 3065   1.509   0.249   7.735 -0.8751  0.3214 -0.2362
   42CHL1  H12A 3066   1.422   0.315   7.757 -2.1220 -0.8054 -1.6152
   42CHL1  H12B 3067   1.601   0.311   7.744 -0.8085  0.1344  0.4472
   42CHL1   C11 3068   1.500   0.204   7.593  0.6250 -0.7100 -0.1301
   42CHL1  H11A 3069   1.399   0.159   7.581  0.4309 -0.2069 -0.3823
   42CHL1  H11B 3070   1.498   0.293   7.527 -1.9207  0.3611  1.2274
   42CHL1    C9 3071   1.620   0.110   7.547  0.5755 -0.6015  0.6868
   42CHL1    H9 3072   1.714   0.169   7.554 -1.3434  3.3312 -2.8416
   42CHL1   C10 3073   1.628   0.066   7.394 -0.1741 -0.0491 -0.2376
   42CHL1   C19 3074   1.490   0.014   7.348 -0.1005  0.4937  0.2468
   42CHL1  H19A 3075   1.506  -0.040   7.252  1.0910  1.5645 -0.1788
   42CHL1  H19B 3076   1.439  -0.055   7.419 -2.7890  0.6300 -1.3935
   42CHL1  H19C 3077   1.413   0.093   7.336 -0.8386 -0.1473  0.6766
   42CHL1    C1 3078   1.672   0.189   7.307 -0.3384  0.4646  0.9068
   42CHL1   H1A 3079   1.583   0.255   7.297  0.1081  0.9123 -0.2648
   42CHL1   H1B 3080   1.752   0.247   7.358  1.2049 -0.0881 -0.7680
   42CHL1    C2 3081   1.716   0.150   7.162 -0.1287 -0.7005  0.3331
   42CHL1   H2A 3082   1.751   0.238   7.102 -0.5137 -0.5875  0.2755
   42CHL1   H2B 3083   1.632   0.101   7.109 -1.2642  1.2361  0.2478
   42CHL1   C20 3084   1.476   0.201   8.091  0.1409  0.2536 -0.4661
   42CHL1   H20 3085   1.403   0.118   8.101 -2.1196  2.2593  0.7583
   42CHL1   C21 3086   1.390   0.320   8.051  0.6204 -0.1066  0.2381
   42CHL1  H21A 3087   1.350   0.311   7.948 -1.6135 -0.4084  1.0888
   42CHL1  H21B 3088   1.451   0.412   8.061  0.0533  0.1781  1.2385
   42CHL1  H21C 3089   1.302   0.333   8.117 -0.7923  2.1531 -1.9011
   42CHL1   C22 3090   1.549   0.213   8.228 -0.1144  0.2599 -0.7868
   42CHL1  H22A 3091   1.608   0.123   8.257 -1.8806 -1.5922 -2.6353
   42CHL1  H22B 3092   1.617   0.301   8.218  0.1408  0.1378 -0.1757
   42CHL1   C23 3093   1.448   0.234   8.340 -0.2798 -0.6157  1.2410
   42CHL1  H23A 3094   1.386   0.324   8.318  0.2475 -0.7988 -1.3338
   42CHL1  H23B 3095   1.374   0.151   8.329 -2.0456  0.7954  1.9295
   42CHL1   C24 3096   1.521   0.251   8.471 -0.3057  0.6116 -0.2024
   42CHL1  H24A 3097   1.586   0.162   8.484 -0.2775  0.3402 -1.9502
   42CHL1  H24B 3098   1.593   0.336   8.477 -0.5370  0.6830  3.2006
   42CHL1   C25 3099   1.415   0.259   8.583 -0.0152 -0.0391  0.0390
   42CHL1   H25 3100   1.365   0.359   8.579  1.5162  0.8758  1.7833
   42CHL1   C26 3101   1.318   0.136   8.603 -0.2905 -0.3013  0.4174
   42CHL1  H26A 3102   1.276   0.099   8.507 -0.3124  2.1025 -0.5502
   42CHL1  H26B 3103   1.359   0.047   8.656 -1.2662 -2.0849 -1.6610
   42CHL1  H26C 3104   1.231   0.174   8.660 -0.3240  1.6870 -0.8781
   42CHL1   C27 3105   1.491   0.272   8.713 -0.0666 -0.0596 -0.6828
   42CHL1  H27A 3106   1.428   0.291   8.803 -1.0004  0.1874 -1.3708
   42CHL1  H27B 3107   1.548   0.367   8.714 -0.5582  0.2534  0.7307
   42CHL1  H27C 3108   1.565   0.192   8.735  0.6081  0.9220  0.7521
   43CHL1    C3 3109   1.080   3.545   6.992 -0.7474  0.3717 -0.4593
   43CHL1    H3 3110   0.973   3.573   6.999 -0.7177  0.1361  1.5052
   43CHL1    O3 3111   1.134   3.579   6.867  0.3122 -0.1532  0.3020
   43CHL1   H3' 3112   1.230   3.572   6.867  0.3062 -1.0697 -1.5693
   43CHL1    C4 3113   1.151   3.627   7.093  0.5389  0.7600  0.1308
   43CHL1   H4A 3114   1.261   3.614   7.080  0.5611  0.6009  0.4781
   43CHL1   H4B 3115   1.125   3.734   7.075  1.4284  1.4068  2.3325
   43CHL1    C5 3116   1.122   3.597   7.240 -0.6139  0.8017  0.0824
   43CHL1    C6 3117   1.074   3.686   7.326 -0.5467 -0.5764  1.0575
   43CHL1    H6 3118   1.059   3.788   7.287  0.2555 -0.4703  1.0195
   43CHL1    C7 3119   1.049   3.658   7.472 -0.2560  0.2245  0.6528
   43CHL1   H7A 3120   1.083   3.746   7.532 -0.7972 -0.8085  2.5793
   43CHL1   H7B 3121   0.942   3.634   7.488  0.2635 -3.0756 -0.1249
   43CHL1    C8 3122   1.122   3.530   7.516  0.6252  0.2189  0.5389
   43CHL1    H8 3123   1.229   3.558   7.519  0.9192 -0.6866 -0.7511
   43CHL1   C14 3124   1.072   3.486   7.653  0.1106  0.2567  0.8519
   43CHL1   H14 3125   0.966   3.454   7.641  0.3444  0.4255 -2.5482
   43CHL1   C15 3126   1.065   3.588   7.767  0.5919 -0.4067 -0.7060
   43CHL1  H15A 3127   1.149   3.660   7.757  2.2047 -1.1317  4.7010
   43CHL1  H15B 3128   0.975   3.653   7.760 -0.2909 -1.6198 -1.0028
   43CHL1   C16 3129   1.052   3.502   7.892  0.5728 -0.2065 -0.1374
   43CHL1  H16A 3130   1.137   3.522   7.961  1.0360 -1.7373 -0.2182
   43CHL1  H16B 3131   0.954   3.513   7.942  0.2476 -2.5681 -0.1175
   43CHL1   C17 3132   1.075   3.352   7.852 -0.1282 -0.7577 -0.8213
   43CHL1   H17 3133   0.973   3.311   7.839 -0.1522 -0.5592 -1.2696
   43CHL1   C13 3134   1.140   3.359   7.712  0.2013 -0.3614  0.2759
   43CHL1   C18 3135   1.291   3.394   7.735  0.4316 -0.5095  0.0822
   43CHL1  H18A 3136   1.304   3.484   7.799 -0.7890  0.4959 -1.0148
   43CHL1  H18B 3137   1.344   3.305   7.776  0.1376 -0.2556  1.0519
   43CHL1  H18C 3138   1.342   3.420   7.640  1.3895  3.6509  1.5333
   43CHL1   C12 3139   1.106   3.248   7.613 -0.0866 -0.2387 -0.4110
   43CHL1  H12A 3140   1.157   3.158   7.654  0.1164 -0.3193 -0.8433
   43CHL1  H12B 3141   0.995   3.240   7.622 -0.0037  0.0570  1.3713
   43CHL1   C11 3142   1.146   3.278   7.470  0.0951  0.1169 -0.4352
   43CHL1  H11A 3143   1.257   3.282   7.477 -0.0017  1.9174  0.6167
   43CHL1  H11B 3144   1.118   3.190   7.408 -0.6493 -2.4223  3.1515
   43CHL1    C9 3145   1.092   3.412   7.416 -0.3947  0.3588 -0.1366
   43CHL1    H9 3146   0.981   3.411   7.410 -0.6025 -0.4199  2.7247
   43CHL1   C10 3147   1.150   3.445   7.270  0.2232  0.0763 -0.3030
   43CHL1   C19 3148   1.300   3.411   7.256  0.5402 -0.4698  0.3717
   43CHL1  H19A 3149   1.345   3.451   7.350  0.5358 -0.1152  0.2253
   43CHL1  H19B 3150   1.306   3.301   7.251 -2.1836 -0.6899  0.7035
   43CHL1  H19C 3151   1.351   3.459   7.169  3.4187 -3.3925  0.2638
   43CHL1    C1 3152   1.068   3.361   7.167  0.5099  0.0809  0.5605
   43CHL1   H1A 3153   1.097   3.256   7.187 -1.1840 -0.7255 -0.8926
   43CHL1   H1B 3154   0.960   3.387   7.179  0.5533  0.6312 -0.1524
   43CHL1    C2 3155   1.099   3.398   7.020 -0.5723  0.4583 -0.6823
   43CHL1   H2A 3156   1.039   3.337   6.949 -0.3008 -0.6384 -0.0048
   43CHL1   H2B 3157   1.198   3.359   6.986  1.1447  0.7308  3.4763
   43CHL1   C20 3158   1.147   3.257   7.959  0.3307  0.0489  0.6589
   43CHL1   H20 3159   1.257   3.272   7.962  0.2508  1.0381 -0.3650
   43CHL1   C21 3160   1.137   3.111   7.910  0.3213  0.1886  0.6683
   43CHL1  H21A 3161   1.221   3.095   7.838 -0.6090 -1.2116 -0.1565
   43CHL1  H21B 3162   1.044   3.087   7.854  0.4792  2.0647 -0.4659
   43CHL1  H21C 3163   1.152   3.043   7.997 -0.1178 -0.0146  0.5888
   43CHL1   C22 3164   1.093   3.286   8.101 -0.2141 -0.4257  0.2372
   43CHL1  H22A 3165   1.114   3.389   8.137 -0.5822 -0.4755  0.5992
   43CHL1  H22B 3166   0.984   3.272   8.111 -0.5089  2.7852  4.7099
   43CHL1   C23 3167   1.151   3.188   8.212  0.7343 -0.4890 -0.1873
   43CHL1  H23A 3168   1.103   3.088   8.202 -0.2219 -0.1414  0.7349
   43CHL1  H23B 3169   1.260   3.174   8.196  0.6194  0.2437 -1.8255
   43CHL1   C24 3170   1.153   3.247   8.352  0.3922 -0.8321 -0.4840
   43CHL1  H24A 3171   1.190   3.352   8.350 -1.7611 -0.0206 -1.1311
   43CHL1  H24B 3172   1.045   3.245   8.375  0.4724  1.1363  0.2478
   43CHL1   C25 3173   1.218   3.182   8.469 -0.3007 -0.6896 -0.3892
   43CHL1   H25 3174   1.327   3.192   8.449 -0.4154  3.3659  0.2296
   43CHL1   C26 3175   1.183   3.260   8.599 -0.1328  0.1904 -0.2330
   43CHL1  H26A 3176   1.073   3.266   8.615 -0.3624  0.0978 -1.6502
   43CHL1  H26B 3177   1.236   3.211   8.684 -0.6579  0.9444  0.5466
   43CHL1  H26C 3178   1.217   3.365   8.599 -0.6414  0.3610 -0.0625
   43CHL1   C27 3179   1.171   3.032   8.495  0.0225 -0.2091  0.1616
   43CHL1  H27A 3180   1.218   2.964   8.421  2.5912 -0.2372  1.7060
   43CHL1  H27B 3181   1.192   2.990   8.595 -0.8929 -0.0824  0.4158
   43CHL1  H27C 3182   1.061   3.031   8.484 -0.2121  2.1569  1.5939
   44CHL1    C3 3183   1.586   0.827   6.896  0.4295  0.1508 -0.9734
   44CHL1    H3 3184   1.617   0.926   6.937  0.7006  0.3556 -1.6660
   44CHL1    O3 3185   1.574   0.823   6.756  0.1291  0.0342  0.1694
   44CHL1   H3' 3186   1.553   0.736   6.720 -0.2749  0.1396  0.1383
   44CHL1    C4 3187   1.693   0.723   6.946  0.5915 -0.5573  1.0039
   44CHL1   H4A 3188   1.662   0.622   6.912  0.9194  0.0438 -1.2038
   44CHL1   H4B 3189   1.791   0.752   6.903 -0.1785 -0.5755 -0.8114
   44CHL1    C5 3190   1.714   0.723   7.092 -0.5085 -0.0349  0.3179
   44CHL1    C6 3191   1.841   0.752   7.139  0.2124 -0.3489 -0.5306
   44CHL1    H6 3192   1.919   0.779   7.067 -0.0271  0.3066 -0.5471
   44CHL1    C7 3193   1.869   0.752   7.286  0.8242 -0.3592  0.3193
   44CHL1   H7A 3194   1.967   0.714   7.322 -0.3858 -2.9707  1.0748
   44CHL1   H7B 3195   1.861   0.859   7.318  1.0940  0.0935 -1.0754
   44CHL1    C8 3196   1.758   0.693   7.382  0.3662 -0.8495  0.3735
   44CHL1    H8 3197   1.769   0.582   7.373  0.2905 -0.8203 -0.0910
   44CHL1   C14 3198   1.779   0.741   7.527 -0.3978  0.4478  0.8770
   44CHL1   H14 3199   1.761   0.851   7.530 -1.7978  0.3170 -1.1491
   44CHL1   C15 3200   1.919   0.720   7.594 -0.3021  0.2266 -0.3552
   44CHL1  H15A 3201   1.959   0.618   7.578 -1.7230 -0.3746 -0.2659
   44CHL1  H15B 3202   1.985   0.804   7.562 -1.6862  1.2918 -0.5389
   44CHL1   C16 3203   1.877   0.733   7.745 -0.1476 -0.4040 -0.3639
   44CHL1  H16A 3204   1.909   0.641   7.798  0.9257 -0.1454 -0.5300
   44CHL1  H16B 3205   1.918   0.823   7.797 -2.3174 -1.1296  2.9026
   44CHL1   C17 3206   1.719   0.731   7.759  0.3123  0.1327  0.6521
   44CHL1   H17 3207   1.693   0.839   7.766  1.6012  0.4954  0.0923
   44CHL1   C13 3208   1.677   0.681   7.625  0.8481 -0.3725 -0.4855
   44CHL1   C18 3209   1.692   0.528   7.622 -0.0532  0.3891  0.3879
   44CHL1  H18A 3210   1.613   0.488   7.690  1.8268 -0.5247  2.1539
   44CHL1  H18B 3211   1.670   0.487   7.521  1.5571  3.2663 -1.2499
   44CHL1  H18C 3212   1.789   0.505   7.670 -1.8154  0.8286  4.6218
   44CHL1   C12 3213   1.542   0.740   7.578 -0.2528 -0.1982  0.3310
   44CHL1  H12A 3214   1.461   0.706   7.645 -1.2668  1.1092 -0.1838
   44CHL1  H12B 3215   1.562   0.849   7.585 -1.2220 -0.0575  1.1678
   44CHL1   C11 3216   1.510   0.711   7.427 -0.1771  0.2575 -0.4505
   44CHL1  H11A 3217   1.476   0.605   7.427 -1.4738  0.6061  1.7816
   44CHL1  H11B 3218   1.418   0.772   7.410 -1.6075 -1.6104  0.2284
   44CHL1    C9 3219   1.626   0.748   7.337 -0.1128 -0.0453  0.5563
   44CHL1    H9 3220   1.622   0.859   7.334  0.2706 -0.0416 -0.0361
   44CHL1   C10 3221   1.593   0.705   7.187  1.0092  0.6519  0.7746
   44CHL1   C19 3222   1.556   0.554   7.189 -0.4217  0.2920  0.3324
   44CHL1  H19A 3223   1.532   0.535   7.082 -1.3262 -1.4755  0.8093
   44CHL1  H19B 3224   1.640   0.484   7.208 -1.6995 -1.2859  0.3559
   44CHL1  H19C 3225   1.467   0.523   7.247  0.1957 -0.2945  0.9877
   44CHL1    C1 3226   1.478   0.789   7.129  0.1775  0.8399  0.7451
   44CHL1   H1A 3227   1.383   0.766   7.182  1.4415 -1.2547  2.2682
   44CHL1   H1B 3228   1.513   0.894   7.145 -0.3506  1.3196 -1.0878
   44CHL1    C2 3229   1.451   0.793   6.973  0.2988  0.3230 -0.6649
   44CHL1   H2A 3230   1.378   0.872   6.946  0.7084  0.5943 -0.9703
   44CHL1   H2B 3231   1.404   0.699   6.936  0.5065  0.1408 -0.4668
   44CHL1   C20 3232   1.672   0.655   7.884  0.5669 -0.1925  0.6879
   44CHL1   H20 3233   1.717   0.554   7.879  3.0381  0.7970  1.0641
   44CHL1   C21 3234   1.518   0.646   7.898  0.1963  0.0219  0.6492
   44CHL1  H21A 3235   1.474   0.578   7.822 -1.3393  0.4886  1.0868
   44CHL1  H21B 3236   1.471   0.746   7.888 -0.6610 -0.1915  2.1676
   44CHL1  H21C 3237   1.483   0.609   7.997 -1.6803  0.5717  0.2325
   44CHL1   C22 3238   1.737   0.707   8.018 -0.0577 -0.1222 -0.3458
   44CHL1  H22A 3239   1.846   0.720   8.001 -0.4230  1.4170 -1.7140
   44CHL1  H22B 3240   1.708   0.812   8.038 -1.2687 -0.6792  1.0584
   44CHL1   C23 3241   1.725   0.617   8.139 -0.5666  0.0529  0.3431
   44CHL1  H23A 3242   1.619   0.585   8.152 -0.9007  0.5419 -0.9987
   44CHL1  H23B 3243   1.782   0.525   8.113 -1.0139  0.5266 -2.5749
   44CHL1   C24 3244   1.773   0.675   8.267  0.0522  0.9920 -0.2810
   44CHL1  H24A 3245   1.875   0.718   8.266 -0.1672  1.5536 -1.5135
   44CHL1  H24B 3246   1.707   0.764   8.281  1.4900  1.7826  1.9559
   44CHL1   C25 3247   1.745   0.588   8.387  0.5017  1.0360 -0.6104
   44CHL1   H25 3248   1.638   0.558   8.390  0.3433  1.6812  1.2334
   44CHL1   C26 3249   1.834   0.463   8.391  0.8090 -0.3022  0.5183
   44CHL1  H26A 3250   1.807   0.414   8.487  0.4176  0.5924  0.8816
   44CHL1  H26B 3251   1.802   0.404   8.303  1.8351  0.7643 -0.5899
   44CHL1  H26C 3252   1.942   0.486   8.385  0.4634  1.0752 -1.5102
   44CHL1   C27 3253   1.778   0.666   8.502 -0.7439 -0.0974  0.3747
   44CHL1  H27A 3254   1.704   0.747   8.519  1.0937  1.2349  2.5469
   44CHL1  H27B 3255   1.799   0.612   8.597  2.6461 -1.6881 -1.0937
   44CHL1  H27C 3256   1.878   0.712   8.488 -1.7485  1.3555 -3.1174
   45CHL1    C3 3257   4.244   2.794   6.862  0.3090  0.5344 -0.3412
   45CHL1    H3 3258   4.215   2.692   6.896  1.1173  0.0034 -1.1880
   45CHL1    O3 3259   4.246   2.809   6.721  0.1235 -0.5554 -0.6906
   45CHL1   H3' 3260   4.286   2.892   6.694  1.7619 -1.5291 -1.4179
   45CHL1    C4 3261   4.141   2.897   6.915 -0.0102 -0.2194  0.8574
   45CHL1   H4A 3262   4.166   2.998   6.878 -0.3170 -0.9709 -1.6334
   45CHL1   H4B 3263   4.040   2.870   6.876  0.4259  0.0178 -0.4684
   45CHL1    C5 3264   4.145   2.910   7.067 -0.2909  0.2873 -0.5509
   45CHL1    C6 3265   4.036   2.905   7.137 -0.3823 -0.3499 -0.8440
   45CHL1    H6 3266   3.944   2.918   7.077 -0.0664  1.2298 -1.0452
   45CHL1    C7 3267   4.032   2.905   7.290  0.0921 -0.0418  0.3720
   45CHL1   H7A 3268   3.955   2.970   7.337  0.0772  1.5404 -1.6517
   45CHL1   H7B 3269   3.992   2.805   7.313 -0.6562  0.4597  1.3007
   45CHL1    C8 3270   4.166   2.921   7.368 -0.2429 -0.1623 -0.4968
   45CHL1    H8 3271   4.185   3.030   7.370  0.5779 -0.2236 -2.5448
   45CHL1   C14 3272   4.165   2.852   7.504 -0.0066  1.1662 -0.1535
   45CHL1   H14 3273   4.157   2.744   7.482  1.4548  0.4772  2.2863
   45CHL1   C15 3274   4.041   2.880   7.595 -0.5037  0.0747 -0.5157
   45CHL1  H15A 3275   4.026   2.990   7.595 -2.1427 -0.1230 -0.4074
   45CHL1  H15B 3276   3.957   2.820   7.556  0.7320 -2.0973 -0.0065
   45CHL1   C16 3277   4.090   2.813   7.720 -0.0182 -0.1546 -0.0255
   45CHL1  H16A 3278   4.059   2.875   7.807  0.0675  0.5601 -0.4981
   45CHL1  H16B 3279   4.040   2.714   7.733  0.9480 -0.8748 -1.4469
   45CHL1   C17 3280   4.243   2.788   7.708 -0.9129  0.1743 -0.1319
   45CHL1   H17 3281   4.253   2.680   7.683  0.2510  0.0305  0.8572
   45CHL1   C13 3282   4.290   2.868   7.583  0.5512  0.1930  0.2378
   45CHL1   C18 3283   4.319   3.015   7.611  0.5854 -0.6659  0.5104
   45CHL1  H18A 3284   4.234   3.082   7.638  1.6674  1.3365 -0.7923
   45CHL1  H18B 3285   4.383   3.010   7.702 -0.5205  0.9315  1.4462
   45CHL1  H18C 3286   4.377   3.059   7.527 -2.0752 -1.4237 -1.9010
   45CHL1   C12 3287   4.406   2.802   7.502 -0.3276 -0.2398  0.1804
   45CHL1  H12A 3288   4.496   2.833   7.560 -0.7314  0.2255  0.5709
   45CHL1  H12B 3289   4.396   2.691   7.505 -0.7193 -0.2199 -0.2565
   45CHL1   C11 3290   4.418   2.852   7.360  0.0589  0.4371 -0.2315
   45CHL1  H11A 3291   4.458   2.955   7.372  1.3666 -0.3211  2.8931
   45CHL1  H11B 3292   4.498   2.796   7.307  1.2254  1.1911  0.6883
   45CHL1    C9 3293   4.279   2.856   7.281 -0.2031 -0.3944 -0.1146
   45CHL1    H9 3294   4.259   2.747   7.279 -0.0652 -0.4212 -0.0705
   45CHL1   C10 3295   4.286   2.902   7.132  0.6344 -0.1810 -1.0301
   45CHL1   C19 3296   4.323   3.051   7.133 -0.2027 -0.0828 -0.2627
   45CHL1  H19A 3297   4.420   3.072   7.183  1.9752  0.9215 -4.4262
   45CHL1  H19B 3298   4.352   3.079   7.030  0.2117 -0.1598 -0.1685
   45CHL1  H19C 3299   4.248   3.125   7.171 -0.4108 -0.7053  0.5720
   45CHL1    C1 3300   4.398   2.823   7.065 -0.5035 -0.3356 -0.3288
   45CHL1   H1A 3301   4.498   2.857   7.098 -0.3319 -0.7835 -0.3855
   45CHL1   H1B 3302   4.378   2.717   7.091 -1.1804 -0.2634 -0.5373
   45CHL1    C2 3303   4.384   2.823   6.912 -0.4691  0.0691 -0.5363
   45CHL1   H2A 3304   4.454   2.753   6.862 -0.6579  0.8266 -1.9033
   45CHL1   H2B 3305   4.418   2.920   6.871  2.5784 -0.2279  1.0097
   45CHL1   C20 3306   4.330   2.798   7.835  0.1236  0.0156  0.4866
   45CHL1   H20 3307   4.325   2.900   7.880 -0.6914 -0.7854  2.2811
   45CHL1   C21 3308   4.476   2.778   7.809 -0.1887  0.5051 -0.1866
   45CHL1  H21A 3309   4.501   2.685   7.754 -1.5971 -2.0162  3.1136
   45CHL1  H21B 3310   4.530   2.769   7.906 -0.4905  1.1771  0.0497
   45CHL1  H21C 3311   4.525   2.870   7.771 -0.5944  2.7010  3.9512
   45CHL1   C22 3312   4.288   2.692   7.944 -0.1098  0.1149  0.0695
   45CHL1  H22A 3313   4.179   2.675   7.931 -0.7878  2.4436  1.9393
   45CHL1  H22B 3314   4.336   2.595   7.920  0.3036 -0.1878  1.9552
   45CHL1   C23 3315   4.292   2.740   8.082  0.3576 -0.0703 -0.0113
   45CHL1  H23A 3316   4.402   2.752   8.097  0.3026 -0.7972  1.0619
   45CHL1  H23B 3317   4.244   2.837   8.106  0.2282 -0.6161  2.0610
   45CHL1   C24 3318   4.225   2.645   8.176  0.2665 -0.4045 -0.1927
   45CHL1  H24A 3319   4.115   2.641   8.165 -0.0390  1.8836  1.2486
   45CHL1  H24B 3320   4.268   2.548   8.145 -2.3388 -1.8573  0.4429
   45CHL1   C25 3321   4.261   2.674   8.323 -0.2200 -0.3838  0.0877
   45CHL1   H25 3322   4.370   2.699   8.330 -0.5013  0.6831  0.9544
   45CHL1   C26 3323   4.170   2.787   8.374 -0.6477 -0.1168 -0.5484
   45CHL1  H26A 3324   4.189   2.877   8.312 -1.7793  0.2153 -0.4282
   45CHL1  H26B 3325   4.066   2.748   8.367 -0.6680 -0.5578  1.4639
   45CHL1  H26C 3326   4.196   2.811   8.480 -1.0091 -2.2466  0.0735
   45CHL1   C27 3327   4.233   2.552   8.409  0.2666 -0.1065 -0.0086
   45CHL1  H27A 3328   4.277   2.572   8.509  0.6154  1.7743 -0.4946
   45CHL1  H27B 3329   4.123   2.540   8.420 -0.0092  2.2574  0.3419
   45CHL1  H27C 3330   4.265   2.453   8.370  0.1654  0.6207 -2.0334
   46CHL1    C3 3331   3.071   2.370   7.035 -0.4521  0.2955  0.1461
   46CHL1    H3 3332   3.003   2.458   7.036 -3.2695 -1.6868 -1.3132
   46CHL1    O3 3333   3.090   2.336   6.899  0.5590  0.1730 -0.3314
   46CHL1   H3' 3334   3.132   2.250   6.892  1.1178  0.4025  0.1446
   46CHL1    C4 3335   3.211   2.386   7.100  0.2353  0.0314 -0.3834
   46CHL1   H4A 3336   3.267   2.291   7.084  0.5785  0.0514  0.6171
   46CHL1   H4B 3337   3.271   2.470   7.058 -0.3902  1.9078  2.2265
   46CHL1    C5 3338   3.181   2.419   7.244 -0.4950 -0.4064  0.7790
   46CHL1    C6 3339   3.227   2.542   7.292  0.5167 -0.2931 -0.6060
   46CHL1    H6 3340   3.269   2.616   7.223  1.1478  1.0880  1.1704
   46CHL1    C7 3341   3.222   2.576   7.440 -0.3069 -0.1219  0.5550
   46CHL1   H7A 3342   3.323   2.611   7.470 -0.4460  1.4513 -0.6725
   46CHL1   H7B 3343   3.142   2.653   7.443  0.0243  0.1997  1.0702
   46CHL1    C8 3344   3.181   2.460   7.524  0.1182 -0.4092 -1.3145
   46CHL1    H8 3345   3.271   2.396   7.537  0.1004  0.0410  1.7637
   46CHL1   C14 3346   3.149   2.520   7.661 -0.3166  1.4621 -0.0994
   46CHL1   H14 3347   3.061   2.588   7.652 -1.0111  0.6212  0.1877
   46CHL1   C15 3348   3.254   2.601   7.738  0.3605  0.2406 -0.2935
   46CHL1  H15A 3349   3.356   2.556   7.734  0.5782  0.6026  0.8976
   46CHL1  H15B 3350   3.270   2.704   7.698 -1.2142 -0.1531 -2.0916
   46CHL1   C16 3351   3.200   2.601   7.877 -0.5360  0.5442 -0.6431
   46CHL1  H16A 3352   3.276   2.576   7.955 -0.7786  1.3228 -0.1399
   46CHL1  H16B 3353   3.170   2.702   7.913 -0.9015 -0.1932  1.2969
   46CHL1   C17 3354   3.080   2.496   7.879 -0.5778 -0.0088 -0.5025
   46CHL1   H17 3355   3.000   2.563   7.841 -0.0130  0.9632 -0.0293
   46CHL1   C13 3356   3.105   2.406   7.757  0.3939 -0.4472  0.3237
   46CHL1   C18 3357   3.216   2.305   7.791 -0.0348 -0.1643  0.3204
   46CHL1  H18A 3358   3.302   2.332   7.856 -0.5565  1.5338  0.3573
   46CHL1  H18B 3359   3.166   2.219   7.841 -0.9611 -0.8461 -1.6518
   46CHL1  H18C 3360   3.250   2.276   7.689 -2.9154  3.4115 -1.8941
   46CHL1   C12 3361   2.980   2.331   7.709 -0.1058 -0.5267  0.6649
   46CHL1  H12A 3362   2.952   2.244   7.773  1.9592 -0.0668  2.3087
   46CHL1  H12B 3363   2.896   2.404   7.708  0.9450  0.7046  0.3343
   46CHL1   C11 3364   3.008   2.276   7.566 -0.4310  0.2785 -0.9781
   46CHL1  H11A 3365   3.071   2.185   7.573 -1.1002 -0.2437 -1.5692
   46CHL1  H11B 3366   2.914   2.235   7.523  0.0590 -0.1106 -1.6836
   46CHL1    C9 3367   3.067   2.378   7.473  0.3867 -0.1897 -0.5084
   46CHL1    H9 3368   2.985   2.453   7.457 -0.1862 -0.2145  1.9132
   46CHL1   C10 3369   3.102   2.321   7.328 -0.3432 -0.8638 -0.3969
   46CHL1   C19 3370   3.187   2.187   7.344  0.1650  0.3470 -0.0930
   46CHL1  H19A 3371   3.207   2.135   7.248 -0.1770  0.2014 -0.0866
   46CHL1  H19B 3372   3.282   2.201   7.399  0.6355  2.3360 -1.2973
   46CHL1  H19C 3373   3.132   2.117   7.410  2.2195  1.1442  2.6452
   46CHL1    C1 3374   2.967   2.286   7.253 -0.7522  0.0252  0.2280
   46CHL1   H1A 3375   2.920   2.198   7.300 -0.5783 -0.1481  0.0766
   46CHL1   H1B 3376   2.898   2.373   7.265  1.7278  1.9305  1.8780
   46CHL1    C2 3377   2.983   2.261   7.095  0.5592  0.1422 -0.8177
   46CHL1   H2A 3378   2.878   2.241   7.066  0.8515 -2.0375 -0.5821
   46CHL1   H2B 3379   3.035   2.162   7.092 -0.1650 -0.4238  1.9316
   46CHL1   C20 3380   3.037   2.428   8.012  0.2552  0.3695 -0.2797
   46CHL1   H20 3381   3.036   2.317   8.008  0.6134  0.3569 -0.0745
   46CHL1   C21 3382   2.894   2.482   8.044  0.1977 -0.0419  0.2816
   46CHL1  H21A 3383   2.812   2.441   7.982 -0.7067  0.5074  1.0892
   46CHL1  H21B 3384   2.894   2.592   8.028 -0.1221  0.0736  1.0179
   46CHL1  H21C 3385   2.868   2.463   8.151 -0.0731  1.0283  0.4133
   46CHL1   C22 3386   3.136   2.450   8.132 -0.7302 -0.0096  0.6634
   46CHL1  H22A 3387   3.235   2.415   8.099 -1.4032 -2.2112  0.8159
   46CHL1  H22B 3388   3.153   2.558   8.155  1.1891  0.6935 -3.2503
   46CHL1   C23 3389   3.101   2.360   8.244  0.4055  0.7653 -0.7925
   46CHL1  H23A 3390   3.002   2.397   8.279  0.2853  2.0092 -2.3454
   46CHL1  H23B 3391   3.098   2.251   8.221  3.5485  0.7318 -1.4413
   46CHL1   C24 3392   3.204   2.393   8.354  0.0888 -0.3193  0.3118
   46CHL1  H24A 3393   3.301   2.354   8.315 -0.3638 -0.8917 -0.2438
   46CHL1  H24B 3394   3.215   2.503   8.363 -1.2728 -0.0308 -1.1002
   46CHL1   C25 3395   3.177   2.338   8.493 -0.1231 -0.0042  0.8876
   46CHL1   H25 3396   3.072   2.369   8.514 -0.0648  1.1677 -0.4237
   46CHL1   C26 3397   3.190   2.181   8.508 -0.2032  0.4383 -0.1412
   46CHL1  H26A 3398   3.130   2.142   8.592 -0.2618  1.3573  0.2576
   46CHL1  H26B 3399   3.156   2.126   8.418 -1.2403  1.5055 -0.4212
   46CHL1  H26C 3400   3.298   2.159   8.521 -0.0579 -0.5215 -2.4486
   46CHL1   C27 3401   3.261   2.411   8.598 -0.5136 -0.0757  0.5588
   46CHL1  H27A 3402   3.262   2.521   8.581  1.2924  0.0123  1.0220
   46CHL1  H27B 3403   3.232   2.397   8.704 -3.2199  0.1717 -0.0788
   46CHL1  H27C 3404   3.368   2.385   8.585  0.0599  2.3629 -0.1655
   47CHL1    C3 3405   0.782   1.933   7.007  0.0323  0.2295 -0.2696
   47CHL1    H3 3406   0.826   1.834   6.983  0.4865  0.8705 -2.2788
   47CHL1    O3 3407   0.759   2.010   6.889  0.4142 -0.2709  0.1841
   47CHL1   H3' 3408   0.762   1.953   6.812  1.2577  1.2110 -0.9455
   47CHL1    C4 3409   0.657   1.901   7.090  0.1102  0.2575 -0.2858
   47CHL1   H4A 3410   0.612   2.002   7.103  0.5147  0.1634  2.4440
   47CHL1   H4B 3411   0.591   1.849   7.016 -0.7042  1.9887 -0.8343
   47CHL1    C5 3412   0.675   1.847   7.235  0.3804 -0.0749 -0.0597
   47CHL1    C6 3413   0.631   1.727   7.278 -0.2123 -1.1061 -0.3378
   47CHL1    H6 3414   0.568   1.671   7.207  1.1253 -2.1508 -0.7500
   47CHL1    C7 3415   0.640   1.665   7.418 -0.0136  0.3628  0.4588
   47CHL1   H7A 3416   0.542   1.633   7.460 -0.0722 -1.2493 -0.8155
   47CHL1   H7B 3417   0.703   1.574   7.413 -1.7324 -1.1606  3.8720
   47CHL1    C8 3418   0.694   1.769   7.519  1.1624  0.0860 -0.3679
   47CHL1    H8 3419   0.615   1.846   7.536  0.3371 -0.4241 -1.7080
   47CHL1   C14 3420   0.734   1.702   7.650 -0.1608 -0.0012  0.7064
   47CHL1   H14 3421   0.818   1.643   7.608 -0.3619  0.6520 -0.6638
   47CHL1   C15 3422   0.630   1.610   7.708 -0.2957 -0.4616 -0.3851
   47CHL1  H15A 3423   0.531   1.657   7.725  0.1913  0.1692  0.8772
   47CHL1  H15B 3424   0.617   1.515   7.654  0.1625 -0.7785  0.0499
   47CHL1   C16 3425   0.688   1.582   7.848  0.2004 -0.1135  0.1810
   47CHL1  H16A 3426   0.610   1.596   7.926  1.4520 -1.6439  1.8197
   47CHL1  H16B 3427   0.724   1.478   7.864  1.6004 -0.2309 -2.9781
   47CHL1   C17 3428   0.808   1.681   7.866 -0.2366  0.5317 -0.0222
   47CHL1   H17 3429   0.899   1.624   7.836 -0.8240 -1.4351  1.7074
   47CHL1   C13 3430   0.789   1.789   7.756  0.6523 -0.3803 -0.4481
   47CHL1   C18 3431   0.677   1.889   7.809 -0.2807 -0.2541 -0.1932
   47CHL1  H18A 3432   0.642   1.954   7.726  1.0366  1.2884  0.4216
   47CHL1  H18B 3433   0.600   1.825   7.857  0.2103 -0.2948  0.5602
   47CHL1  H18C 3434   0.708   1.965   7.883  1.3692 -0.0207 -1.0831
   47CHL1   C12 3435   0.911   1.861   7.699 -0.4087  0.0666  0.6428
   47CHL1  H12A 3436   0.962   1.934   7.766 -0.8906  0.4970  0.5520
   47CHL1  H12B 3437   0.988   1.788   7.665  1.6456  3.2697 -2.2923
   47CHL1   C11 3438   0.873   1.935   7.573 -0.2913 -0.0141 -0.2942
   47CHL1  H11A 3439   0.800   2.013   7.604 -2.0257 -2.1051  1.2209
   47CHL1  H11B 3440   0.965   1.981   7.532 -0.1792  0.3452  0.3578
   47CHL1    C9 3441   0.805   1.850   7.460 -0.1017  0.5883  0.2801
   47CHL1    H9 3442   0.883   1.778   7.430  0.9914  1.4193  1.0350
   47CHL1   C10 3443   0.767   1.924   7.322  0.1858 -0.0923 -0.0631
   47CHL1   C19 3444   0.710   2.065   7.356 -0.0174 -0.6926  0.2550
   47CHL1  H19A 3445   0.787   2.133   7.399 -2.1190  1.2752  1.1190
   47CHL1  H19B 3446   0.670   2.128   7.274  0.6432  1.8166  1.7330
   47CHL1  H19C 3447   0.625   2.049   7.426 -1.3919 -0.9520 -1.4186
   47CHL1    C1 3448   0.896   1.942   7.235  0.3041  0.7018 -0.5735
   47CHL1   H1A 3449   0.965   1.999   7.302  1.5744 -2.2707  0.8239
   47CHL1   H1B 3450   0.942   1.843   7.217 -0.3578  0.2391  0.2256
   47CHL1    C2 3451   0.875   2.011   7.097  0.1593  0.0234  0.1489
   47CHL1   H2A 3452   0.974   2.003   7.049 -0.8751 -2.9058 -1.7817
   47CHL1   H2B 3453   0.833   2.111   7.120  0.2699  0.0438  0.2638
   47CHL1   C20 3454   0.832   1.725   8.010 -0.3795  0.3036 -1.1830
   47CHL1   H20 3455   0.741   1.781   8.044 -0.4870 -0.2266 -0.5811
   47CHL1   C21 3456   0.962   1.810   8.016  1.0461 -0.1886 -0.4057
   47CHL1  H21A 3457   0.957   1.907   7.962  3.4095  0.1329 -0.1779
   47CHL1  H21B 3458   1.046   1.749   7.976  1.8746  0.7986 -0.2311
   47CHL1  H21C 3459   0.983   1.839   8.122 -1.2235 -2.1826  0.6852
   47CHL1   C22 3460   0.858   1.601   8.104  0.6155 -0.2220  0.2317
   47CHL1  H22A 3461   0.780   1.522   8.094  1.9085 -1.8022  1.9521
   47CHL1  H22B 3462   0.960   1.565   8.081  0.8131 -0.1544  0.9757
   47CHL1   C23 3463   0.864   1.644   8.249  0.1131  0.6602 -0.1431
   47CHL1  H23A 3464   0.960   1.690   8.282  0.1501 -0.9868  2.3708
   47CHL1  H23B 3465   0.781   1.716   8.264 -0.6596 -0.1853 -0.2830
   47CHL1   C24 3466   0.842   1.511   8.333  0.6962 -0.2966  0.4581
   47CHL1  H24A 3467   0.747   1.469   8.295 -1.0826  2.7902  1.1217
   47CHL1  H24B 3468   0.923   1.444   8.297 -1.0712 -1.2085 -2.1742
   47CHL1   C25 3469   0.830   1.531   8.486 -0.4579 -1.0603 -0.5374
   47CHL1   H25 3470   0.931   1.560   8.522  0.7397 -3.1611 -2.0069
   47CHL1   C26 3471   0.727   1.633   8.527 -0.5451 -0.1748  0.0396
   47CHL1  H26A 3472   0.629   1.597   8.491  0.2656 -2.2468 -0.2446
   47CHL1  H26B 3473   0.723   1.633   8.638 -0.4398 -1.4748  0.0551
   47CHL1  H26C 3474   0.755   1.734   8.490  0.3805  0.0255  1.2205
   47CHL1   C27 3475   0.793   1.396   8.552  0.9146  0.0413  0.5248
   47CHL1  H27A 3476   0.779   1.403   8.662  0.7994  2.0038  0.4159
   47CHL1  H27B 3477   0.708   1.355   8.493  0.9691 -1.5355  1.4758
   47CHL1  H27C 3478   0.873   1.322   8.532  2.4714  1.2702  1.8960
   48CHL1    C3 3479   3.850   6.749   6.847 -0.0559  0.4167  0.3287
   48CHL1    H3 3480   3.903   6.840   6.883  1.2322  0.0811 -0.6421
   48CHL1    O3 3481   3.833   6.748   6.711  0.4350  0.0391  0.5081
   48CHL1   H3' 3482   3.790   6.664   6.693 -1.8588  1.1148  0.4883
   48CHL1    C4 3483   3.927   6.619   6.878  0.1012  0.7097 -0.5419
   48CHL1   H4A 3484   3.882   6.530   6.831  0.5836  0.4272 -0.4755
   48CHL1   H4B 3485   4.026   6.634   6.829 -0.0155  0.1857 -0.9396
   48CHL1    C5 3486   3.940   6.596   7.033 -0.5807 -0.0058  0.1729
   48CHL1    C6 3487   4.059   6.580   7.094  0.3866 -0.0903  0.1030
   48CHL1    H6 3488   4.154   6.592   7.040  0.0470  0.5577 -0.3766
   48CHL1    C7 3489   4.073   6.552   7.241  0.5273  0.2226 -1.0765
   48CHL1   H7A 3490   4.141   6.466   7.260 -3.3749 -2.9984 -0.2652
   48CHL1   H7B 3491   4.116   6.646   7.281 -0.0900  0.2291 -0.4259
   48CHL1    C8 3492   3.942   6.514   7.311  0.4830 -0.0272 -0.4062
   48CHL1    H8 3493   3.912   6.410   7.290  1.7899 -0.3862 -0.5699
   48CHL1   C14 3494   3.954   6.507   7.471  0.0018 -0.1693  0.4816
   48CHL1   H14 3495   4.005   6.601   7.499  3.2361 -1.1720 -1.5296
   48CHL1   C15 3496   4.050   6.405   7.538 -0.3722 -0.0187  0.4823
   48CHL1  H15A 3497   4.037   6.307   7.487 -2.9575 -0.0125  1.0341
   48CHL1  H15B 3498   4.157   6.429   7.521 -0.5707  0.6408  0.1339
   48CHL1   C16 3499   4.014   6.417   7.691  0.4117 -0.2594  0.5741
   48CHL1  H16A 3500   3.987   6.314   7.723  3.6017 -1.4871 -0.2693
   48CHL1  H16B 3501   4.101   6.445   7.753 -0.9718  1.4592  1.8539
   48CHL1   C17 3502   3.891   6.519   7.693  0.4554  0.0320 -0.1746
   48CHL1   H17 3503   3.948   6.614   7.697 -0.0631  0.3661 -0.4631
   48CHL1   C13 3504   3.827   6.504   7.554 -1.1874 -0.6623 -0.5680
   48CHL1   C18 3505   3.747   6.369   7.540  0.0695 -0.3748 -0.4752
   48CHL1  H18A 3506   3.820   6.286   7.555 -0.0839 -0.9817 -2.6705
   48CHL1  H18B 3507   3.657   6.361   7.604  0.6707 -0.8042  0.3437
   48CHL1  H18C 3508   3.717   6.355   7.434 -0.8092 -0.2454 -0.2528
   48CHL1   C12 3509   3.740   6.624   7.507 -0.3837 -0.6468  0.4032
   48CHL1  H12A 3510   3.646   6.616   7.566 -0.5541  0.0686  0.2329
   48CHL1  H12B 3511   3.784   6.723   7.534  2.0400 -1.8400  1.1217
   48CHL1   C11 3512   3.707   6.623   7.352 -0.0148 -0.0676  0.1061
   48CHL1  H11A 3513   3.652   6.528   7.339  0.3975 -0.2379 -0.4046
   48CHL1  H11B 3514   3.636   6.708   7.347  0.1688  0.1593  1.0333
   48CHL1    C9 3515   3.838   6.615   7.265 -0.1641  0.3866 -0.4800
   48CHL1    H9 3516   3.886   6.714   7.281  0.3878 -0.0459  0.6049
   48CHL1   C10 3517   3.806   6.595   7.112  0.5982 -0.1604  0.5949
   48CHL1   C19 3518   3.727   6.461   7.084  0.3630 -0.3430 -0.3984
   48CHL1  H19A 3519   3.622   6.459   7.121  1.1901 -2.1037  2.1297
   48CHL1  H19B 3520   3.720   6.441   6.975 -1.4343  0.4044 -0.4417
   48CHL1  H19C 3521   3.766   6.369   7.133  0.8651  0.8362  1.5429
   48CHL1    C1 3522   3.712   6.715   7.061  0.2530  0.9122 -0.5346
   48CHL1   H1A 3523   3.611   6.695   7.104  0.6508  0.0314  0.0056
   48CHL1   H1B 3524   3.749   6.808   7.111  1.3029  0.0188  0.3953
   48CHL1    C2 3525   3.707   6.739   6.912 -0.1671 -0.1662  0.6266
   48CHL1   H2A 3526   3.643   6.825   6.884  1.6906  0.4902 -2.0449
   48CHL1   H2B 3527   3.660   6.650   6.865 -0.1682 -0.6225  1.4710
   48CHL1   C20 3528   3.788   6.520   7.815  0.2797 -0.9728 -0.3718
   48CHL1   H20 3529   3.694   6.470   7.783  0.1444 -1.6670  1.0230
   48CHL1   C21 3530   3.745   6.664   7.843  0.7573 -0.6935 -0.1599
   48CHL1  H21A 3531   3.725   6.719   7.748  0.9649 -1.2603 -0.5381
   48CHL1  H21B 3532   3.813   6.724   7.908 -0.7679  2.4887 -1.2629
   48CHL1  H21C 3533   3.645   6.668   7.891  0.6684  0.9460 -0.4129
   48CHL1   C22 3534   3.847   6.448   7.936 -0.9761 -0.0218  0.5646
   48CHL1  H22A 3535   3.830   6.339   7.920  1.5321 -0.4255  0.1291
   48CHL1  H22B 3536   3.957   6.454   7.953 -0.3534 -2.2622 -1.8960
   48CHL1   C23 3537   3.768   6.493   8.064  1.2405  0.4103  0.5478
   48CHL1  H23A 3538   3.784   6.602   8.082 -0.0567  0.5199  1.1009
   48CHL1  H23B 3539   3.659   6.494   8.044  1.2040  0.6811  0.7501
   48CHL1   C24 3540   3.797   6.420   8.198  0.1710  0.0294 -0.7326
   48CHL1  H24A 3541   3.705   6.445   8.254  0.0754 -0.6625 -0.5731
   48CHL1  H24B 3542   3.795   6.309   8.183  0.3734 -0.2444  1.1101
   48CHL1   C25 3543   3.931   6.459   8.259  0.1959  0.6071 -0.6666
   48CHL1   H25 3544   4.015   6.426   8.195  1.7631  2.2366  0.4462
   48CHL1   C26 3545   3.949   6.609   8.274 -0.4672 -0.3981  0.5951
   48CHL1  H26A 3546   4.040   6.627   8.334 -0.7042  3.2110  0.0742
   48CHL1  H26B 3547   3.972   6.657   8.176 -1.0749 -1.3300 -0.0206
   48CHL1  H26C 3548   3.862   6.663   8.318  0.4292 -0.5447  2.6204
   48CHL1   C27 3549   3.938   6.393   8.395 -0.1961  0.6149  0.2800
   48CHL1  H27A 3550   4.029   6.414   8.457  0.5581 -1.5431 -0.0186
   48CHL1  H27B 3551   3.852   6.421   8.460 -1.7912 -0.3132 -1.3481
   48CHL1  H27C 3552   3.926   6.283   8.384  1.0486  0.5895 -1.0715
   49CHL1    C3 3553   4.199   1.605   6.862 -0.7514 -0.1533 -0.2300
   49CHL1    H3 3554   4.221   1.709   6.896  1.0796 -0.4971 -0.2328
   49CHL1    O3 3555   4.171   1.615   6.725 -0.1761 -0.1965  0.3244
   49CHL1   H3' 3556   4.255   1.609   6.679 -0.8530 -0.1180 -0.9885
   49CHL1    C4 3557   4.324   1.524   6.894 -0.6429 -0.1079 -0.0991
   49CHL1   H4A 3558   4.307   1.424   6.849 -1.0874 -0.2840  0.4398
   49CHL1   H4B 3559   4.416   1.550   6.837  0.5070 -2.5369  0.5303
   49CHL1    C5 3560   4.344   1.512   7.044  0.3135 -0.3745 -0.8250
   49CHL1    C6 3561   4.460   1.543   7.109 -0.3647  1.5163  0.3643
   49CHL1    H6 3562   4.548   1.582   7.057  1.1671 -1.8925  0.1910
   49CHL1    C7 3563   4.487   1.521   7.254 -0.8057 -0.5097 -0.4280
   49CHL1   H7A 3564   4.581   1.463   7.265 -1.0953 -0.9598 -0.3353
   49CHL1   H7B 3565   4.501   1.618   7.308  1.9692 -0.9899 -0.1438
   49CHL1    C8 3566   4.376   1.438   7.324 -0.4691 -0.2447 -0.8581
   49CHL1    H8 3567   4.387   1.331   7.295 -1.3503 -0.9250  1.1214
   49CHL1   C14 3568   4.389   1.453   7.476  0.4589  0.2607 -0.0770
   49CHL1   H14 3569   4.389   1.563   7.492 -0.1280  0.1806  0.4953
   49CHL1   C15 3570   4.520   1.408   7.547  0.0289 -0.2779 -0.5649
   49CHL1  H15A 3571   4.545   1.307   7.510 -0.5289 -0.8046  0.4456
   49CHL1  H15B 3572   4.599   1.485   7.530 -2.3042  2.2741 -0.6116
   49CHL1   C16 3573   4.482   1.385   7.697 -0.1306 -0.3533 -0.5538
   49CHL1  H16A 3574   4.504   1.277   7.713  2.8064 -0.0946 -2.1116
   49CHL1  H16B 3575   4.539   1.435   7.778  2.2396 -0.3340 -2.1492
   49CHL1   C17 3576   4.325   1.401   7.705  0.3648 -0.5579  0.4663
   49CHL1   H17 3577   4.308   1.506   7.737 -1.1246 -0.6907  0.2054
   49CHL1   C13 3578   4.280   1.386   7.560  0.6409 -0.1395 -0.0857
   49CHL1   C18 3579   4.284   1.234   7.520  0.2477 -0.2218 -0.1649
   49CHL1  H18A 3580   4.381   1.184   7.539 -0.7632 -1.8497  0.8978
   49CHL1  H18B 3581   4.209   1.175   7.576  1.6266 -2.3687 -0.4814
   49CHL1  H18C 3582   4.246   1.219   7.416  0.2401  0.3305 -0.2499
   49CHL1   C12 3583   4.148   1.451   7.511  0.2988  0.2344 -0.7349
   49CHL1  H12A 3584   4.059   1.408   7.560  0.4100  0.5895 -0.2120
   49CHL1  H12B 3585   4.146   1.558   7.540 -2.2440  0.4448 -1.4587
   49CHL1   C11 3586   4.127   1.444   7.365  0.1149  0.4777 -0.3591
   49CHL1  H11A 3587   4.108   1.337   7.342  1.9924 -0.2802  1.3412
   49CHL1  H11B 3588   4.035   1.499   7.334  1.0708  1.6381 -1.2031
   49CHL1    C9 3589   4.242   1.489   7.274  0.1420  0.4616  0.8199
   49CHL1    H9 3590   4.243   1.600   7.277  1.4765  0.4373  2.9004
   49CHL1   C10 3591   4.218   1.457   7.119 -0.8178  0.1184  0.3590
   49CHL1   C19 3592   4.194   1.307   7.095 -0.4276  0.0780 -0.6339
   49CHL1  H19A 3593   4.197   1.281   6.987 -1.9861  1.2367 -0.9960
   49CHL1  H19B 3594   4.265   1.241   7.148 -0.5944  0.9349  0.6930
   49CHL1  H19C 3595   4.093   1.290   7.139 -1.6133  2.5417 -2.1925
   49CHL1    C1 3596   4.093   1.534   7.082 -0.4915  0.3513 -0.0674
   49CHL1   H1A 3597   4.008   1.483   7.132  0.8919 -0.7793  1.2373
   49CHL1   H1B 3598   4.098   1.639   7.120 -1.1938  0.3476  0.0588
   49CHL1    C2 3599   4.067   1.545   6.929  0.2646  0.5286 -0.1444
   49CHL1   H2A 3600   3.979   1.611   6.917 -0.7307 -0.1284  2.6799
   49CHL1   H2B 3601   4.041   1.444   6.892 -2.7572 -0.3100  3.6373
   49CHL1   C20 3602   4.264   1.324   7.825 -0.1792  0.1817 -0.0449
   49CHL1   H20 3603   4.293   1.217   7.821 -0.7093  0.0382 -0.0826
   49CHL1   C21 3604   4.110   1.337   7.812 -0.1652 -0.0622 -0.2549
   49CHL1  H21A 3605   4.075   1.268   7.732  1.7663 -2.0070  0.4500
   49CHL1  H21B 3606   4.071   1.436   7.782 -1.5150 -0.8509 -1.1837
   49CHL1  H21C 3607   4.064   1.309   7.909 -0.1731 -0.3050 -0.3276
   49CHL1   C22 3608   4.308   1.381   7.964  0.2837  0.0554 -0.8632
   49CHL1  H22A 3609   4.402   1.440   7.964  0.3323  0.1160  1.9672
   49CHL1  H22B 3610   4.231   1.445   8.010  0.1371 -0.5083 -0.2958
   49CHL1   C23 3611   4.335   1.275   8.074  0.0301 -0.0778  0.2966
   49CHL1  H23A 3612   4.257   1.196   8.077  0.1584 -0.1644  1.5955
   49CHL1  H23B 3613   4.423   1.219   8.037 -0.1507  0.0539 -0.3471
   49CHL1   C24 3614   4.352   1.333   8.209  0.0917  0.1576 -0.8341
   49CHL1  H24A 3615   4.424   1.417   8.206  1.2417 -0.7093  0.6950
   49CHL1  H24B 3616   4.250   1.372   8.226  0.8172  1.0195  2.3184
   49CHL1   C25 3617   4.388   1.238   8.314 -0.8152 -0.4171  0.1814
   49CHL1   H25 3618   4.310   1.160   8.310 -1.7430  0.4777  0.4677
   49CHL1   C26 3619   4.527   1.180   8.284 -0.1971 -0.0899 -0.1831
   49CHL1  H26A 3620   4.611   1.252   8.275 -0.7570  0.5311 -0.5591
   49CHL1  H26B 3621   4.546   1.112   8.370  1.3326  1.6197  0.9155
   49CHL1  H26C 3622   4.522   1.123   8.188  2.1710  2.3016 -1.8735
   49CHL1   C27 3623   4.387   1.303   8.451  0.8938 -0.1816 -0.0199
   49CHL1  H27A 3624   4.426   1.237   8.531 -1.0938 -1.3483  0.0601
   49CHL1  H27B 3625   4.434   1.403   8.463 -0.3579  0.9784 -3.4815
   49CHL1  H27C 3626   4.287   1.338   8.484  1.3875  1.6058 -0.3319
   50CHL1    C3 3627   4.463   1.912   6.996 -0.3403 -0.4700  0.2262
   50CHL1    H3 3628   4.428   1.807   6.998  2.5970 -1.7189 -2.8729
   50CHL1    O3 3629   4.441   1.964   6.864 -0.2320 -0.3963  1.4263
   50CHL1   H3' 3630   4.493   1.913   6.802 -0.9704  2.2914 -1.7410
   50CHL1    C4 3631   4.390   1.999   7.097 -0.3474  0.6767 -0.2782
   50CHL1   H4A 3632   4.409   2.108   7.086  1.9172  0.1273 -2.7005
   50CHL1   H4B 3633   4.283   1.987   7.071  0.4793 -0.1746 -3.6904
   50CHL1    C5 3634   4.415   1.964   7.245  0.3125 -0.1260  0.7825
   50CHL1    C6 3635   4.319   1.936   7.329  0.3339  0.3629  0.5439
   50CHL1    H6 3636   4.216   1.957   7.297  0.6564  1.6767  0.2860
   50CHL1    C7 3637   4.346   1.895   7.471 -0.3390  0.5979 -0.5105
   50CHL1   H7A 3638   4.257   1.932   7.526 -0.5878 -1.0458  0.2701
   50CHL1   H7B 3639   4.336   1.784   7.464 -0.6865  0.7065 -2.2292
   50CHL1    C8 3640   4.484   1.932   7.522 -0.5823 -0.5557  0.1840
   50CHL1    H8 3641   4.493   2.039   7.551 -0.8006 -0.2775 -0.7610
   50CHL1   C14 3642   4.520   1.844   7.643  0.1109 -0.2400  0.1275
   50CHL1   H14 3643   4.526   1.738   7.607  0.1365 -0.5977  1.1673
   50CHL1   C15 3644   4.412   1.826   7.757 -0.0573  0.1272 -0.0007
   50CHL1  H15A 3645   4.372   1.929   7.768  0.2823  0.2750 -0.1519
   50CHL1  H15B 3646   4.325   1.763   7.727 -2.3303  2.7366  0.6349
   50CHL1   C16 3647   4.500   1.786   7.878 -0.1684  0.6039 -1.1838
   50CHL1  H16A 3648   4.501   1.866   7.954  3.2614 -3.8473  4.2239
   50CHL1  H16B 3649   4.459   1.700   7.936  0.9100  0.6830 -0.2803
   50CHL1   C17 3650   4.652   1.774   7.833 -0.5862 -0.5458 -0.6030
   50CHL1   H17 3651   4.666   1.671   7.792  1.1821 -0.6298  0.1519
   50CHL1   C13 3652   4.655   1.870   7.711 -0.2656 -0.1786  0.6648
   50CHL1   C18 3653   4.659   2.014   7.757  0.5896 -0.5658  0.5344
   50CHL1  H18A 3654   4.761   2.033   7.797  0.5506  2.1333 -0.4742
   50CHL1  H18B 3655   4.638   2.087   7.676 -2.2373  0.7737  2.2838
   50CHL1  H18C 3656   4.580   2.037   7.832  0.7760  0.7776  0.3350
   50CHL1   C12 3657   4.769   1.852   7.603 -0.4486 -0.2798 -0.2401
   50CHL1  H12A 3658   4.871   1.875   7.641 -1.5405  1.9873  1.6531
   50CHL1  H12B 3659   4.771   1.745   7.577  0.3264 -0.5291  0.7616
   50CHL1   C11 3660   4.740   1.935   7.479 -0.0303  0.7564 -0.0816
   50CHL1  H11A 3661   4.740   2.044   7.502 -0.2100  0.4207  1.6291
   50CHL1  H11B 3662   4.820   1.903   7.408 -0.3276 -2.8728  1.0039
   50CHL1    C9 3663   4.595   1.906   7.426 -0.9692  0.1149  0.0478
   50CHL1    H9 3664   4.589   1.796   7.418  0.6195 -0.0084  0.2453
   50CHL1   C10 3665   4.569   1.964   7.280 -0.4729  0.0171  0.2723
   50CHL1   C19 3666   4.613   2.116   7.278  0.8081  0.3520  0.8197
   50CHL1  H19A 3667   4.591   2.168   7.182  0.4078  0.6498  1.0670
   50CHL1  H19B 3668   4.564   2.171   7.361 -0.3676 -0.4279  0.6668
   50CHL1  H19C 3669   4.722   2.134   7.287  0.8107  0.0168  1.5393
   50CHL1    C1 3670   4.653   1.892   7.168  0.8169 -0.3535  0.5380
   50CHL1   H1A 3671   4.762   1.896   7.190  0.4961 -2.1727  2.8468
   50CHL1   H1B 3672   4.635   1.784   7.185 -0.3491 -0.4759 -1.2604
   50CHL1    C2 3673   4.615   1.923   7.027  0.7627 -0.3118  0.0953
   50CHL1   H2A 3674   4.675   1.860   6.958 -0.0492 -0.9247 -0.0705
   50CHL1   H2B 3675   4.645   2.029   7.011  1.1257 -0.6950 -2.0782
   50CHL1   C20 3676   4.748   1.786   7.951  0.8062 -0.1885  0.6209
   50CHL1   H20 3677   4.716   1.876   8.008 -0.2652  0.3459 -0.7802
   50CHL1   C21 3678   4.897   1.780   7.894  0.9944  0.3103 -0.0137
   50CHL1  H21A 3679   4.963   1.754   7.979  1.4018  0.2332 -0.3513
   50CHL1  H21B 3680   4.925   1.875   7.845 -0.0619  1.0269  0.7312
   50CHL1  H21C 3681   4.904   1.697   7.819 -2.6319 -0.6344  0.5061
   50CHL1   C22 3682   4.737   1.664   8.045 -0.6537  0.1698  0.3668
   50CHL1  H22A 3683   4.631   1.630   8.055 -0.4060 -0.0644  3.0087
   50CHL1  H22B 3684   4.800   1.583   8.002 -1.1578 -0.7711  1.3309
   50CHL1   C23 3685   4.779   1.688   8.191 -1.0535 -0.2921  0.0753
   50CHL1  H23A 3686   4.883   1.726   8.193  0.0920 -3.1435 -1.0022
   50CHL1  H23B 3687   4.701   1.760   8.224 -0.7460  1.4601 -2.7067
   50CHL1   C24 3688   4.780   1.567   8.285  0.5161 -0.2725 -0.9437
   50CHL1  H24A 3689   4.681   1.517   8.286  0.4418 -0.2305  1.6569
   50CHL1  H24B 3690   4.854   1.500   8.236  0.1347 -0.9238 -0.6406
   50CHL1   C25 3691   4.819   1.609   8.431 -0.1776 -0.2226  0.3373
   50CHL1   H25 3692   4.924   1.643   8.426  0.0514 -0.5259  2.4110
   50CHL1   C26 3693   4.726   1.712   8.499  0.2660  0.0578  0.6174
   50CHL1  H26A 3694   4.736   1.813   8.453 -1.7373  0.1800  0.3740
   50CHL1  H26B 3695   4.621   1.681   8.479  0.5027 -0.0014 -0.5956
   50CHL1  H26C 3696   4.742   1.727   8.608  1.0034  0.9411  0.4053
   50CHL1   C27 3697   4.826   1.480   8.520  0.7521  0.5114 -0.2771
   50CHL1  H27A 3698   4.737   1.415   8.513  1.4899 -0.5437 -0.1001
   50CHL1  H27B 3699   4.922   1.428   8.497  2.6297  2.9255  1.5634
   50CHL1  H27C 3700   4.838   1.512   8.626  0.7660 -2.0119  0.5412
   51CHL1    C3 3701   4.320   0.917   7.065 -0.6660  0.1939 -0.1966
   51CHL1    H3 3702   4.368   1.017   7.078 -0.7656  0.6077 -2.6601
   51CHL1    O3 3703   4.329   0.879   6.933  0.0251  0.0755  0.4275
   51CHL1   H3' 3704   4.263   0.931   6.886 -0.4394 -0.5647  0.3683
   51CHL1    C4 3705   4.392   0.813   7.147  0.7926 -0.0559 -0.2709
   51CHL1   H4A 3706   4.350   0.714   7.118 -1.5183  0.5377  0.8068
   51CHL1   H4B 3707   4.499   0.801   7.120  0.9577 -0.1504  0.3961
   51CHL1    C5 3708   4.380   0.829   7.293  0.5015  0.1988 -0.4856
   51CHL1    C6 3709   4.479   0.845   7.378 -0.1304 -0.0256 -0.4469
   51CHL1    H6 3710   4.584   0.851   7.344  0.1613 -0.3810  0.3558
   51CHL1    C7 3711   4.482   0.844   7.527 -0.8749 -0.5303  0.2289
   51CHL1   H7A 3712   4.564   0.784   7.573 -0.6220 -0.2689  0.1262
   51CHL1   H7B 3713   4.496   0.949   7.561 -0.8954 -0.5263  0.2250
   51CHL1    C8 3714   4.341   0.794   7.576  0.8260  0.8048  0.4995
   51CHL1    H8 3715   4.338   0.683   7.582 -1.2512  0.7897  0.1340
   51CHL1   C14 3716   4.328   0.843   7.720  0.6215 -0.5002  0.2721
   51CHL1   H14 3717   4.324   0.954   7.717 -2.5924 -0.5172 -3.3914
   51CHL1   C15 3718   4.441   0.794   7.819 -0.2920 -0.6385  0.1104
   51CHL1  H15A 3719   4.462   0.685   7.808  0.9275 -0.3718 -0.4026
   51CHL1  H15B 3720   4.532   0.858   7.821 -0.2042 -0.6277 -1.7622
   51CHL1   C16 3721   4.390   0.823   7.949  0.5167  0.6310 -0.5009
   51CHL1  H16A 3722   4.401   0.736   8.017 -0.9742  1.2527  0.5955
   51CHL1  H16B 3723   4.443   0.904   8.004 -1.2550  1.5811 -0.1129
   51CHL1   C17 3724   4.243   0.861   7.939  1.1059  0.7106  0.0605
   51CHL1   H17 3725   4.244   0.971   7.927  2.9727  0.5584 -1.6963
   51CHL1   C13 3726   4.197   0.805   7.799  0.5144 -0.0858 -0.9372
   51CHL1   C18 3727   4.174   0.653   7.803  0.4589 -0.4931 -0.2802
   51CHL1  H18A 3728   4.209   0.611   7.706  1.0170  2.0693 -1.2898
   51CHL1  H18B 3729   4.225   0.605   7.889  0.8800 -2.1188 -1.4007
   51CHL1  H18C 3730   4.065   0.632   7.809  0.6406 -1.4341 -0.0983
   51CHL1   C12 3731   4.073   0.870   7.726  0.0376  0.4213  0.3682
   51CHL1  H12A 3732   3.984   0.820   7.769  0.9040 -0.2770  1.4120
   51CHL1  H12B 3733   4.081   0.976   7.758  1.3654  0.1201  1.1198
   51CHL1   C11 3734   4.086   0.844   7.575  0.4491  0.0616 -0.6768
   51CHL1  H11A 3735   4.062   0.735   7.571 -2.6574  0.4217  2.8067
   51CHL1  H11B 3736   4.014   0.901   7.514 -1.0626 -1.5921 -0.5129
   51CHL1    C9 3737   4.224   0.861   7.501 -0.3173  0.7010  0.1683
   51CHL1    H9 3738   4.248   0.969   7.509  0.3042  0.6463 -0.7278
   51CHL1   C10 3739   4.235   0.821   7.344  0.5821 -0.4373  0.0715
   51CHL1   C19 3740   4.155   0.690   7.324  0.0382  0.2753 -0.4904
   51CHL1  H19A 3741   4.049   0.714   7.345 -0.2420 -0.2684 -1.2476
   51CHL1  H19B 3742   4.172   0.655   7.220 -0.9924  0.3378 -0.6864
   51CHL1  H19C 3743   4.198   0.610   7.388 -0.6117  0.9083  0.7903
   51CHL1    C1 3744   4.168   0.931   7.261 -0.2346  0.2972  0.6977
   51CHL1   H1A 3745   4.064   0.948   7.296 -1.5150 -0.5908 -2.3550
   51CHL1   H1B 3746   4.215   1.030   7.281 -0.5075  0.6430 -0.3265
   51CHL1    C2 3747   4.172   0.924   7.108 -1.0704  0.0251  0.6977
   51CHL1   H2A 3748   4.127   1.017   7.068  1.6202  0.7069 -0.9608
   51CHL1   H2B 3749   4.113   0.833   7.082  0.7226 -1.1422  0.5563
   51CHL1   C20 3750   4.163   0.815   8.065  0.0055 -0.0331 -0.0701
   51CHL1   H20 3751   4.155   0.705   8.074 -0.8245  0.0104 -0.1646
   51CHL1   C21 3752   4.019   0.868   8.054 -0.1165  0.1198  0.7068
   51CHL1  H21A 3753   4.027   0.977   8.033 -0.8942  0.5189  2.2777
   51CHL1  H21B 3754   3.961   0.861   8.149  0.3240 -2.1428  0.8581
   51CHL1  H21C 3755   3.959   0.803   7.986  0.6144 -2.3816  2.3258
   51CHL1   C22 3756   4.231   0.852   8.198 -0.1055 -0.4663 -0.1641
   51CHL1  H22A 3757   4.335   0.816   8.213  0.2921  0.7300 -0.0093
   51CHL1  H22B 3758   4.240   0.962   8.202  0.0976 -0.4993  0.5632
   51CHL1   C23 3759   4.160   0.813   8.324  0.6993  0.4325  0.8448
   51CHL1  H23A 3760   4.063   0.868   8.323 -0.1936 -1.0391 -0.9305
   51CHL1  H23B 3761   4.123   0.711   8.300 -0.6062  0.8724  0.9166
   51CHL1   C24 3762   4.235   0.825   8.462  0.0211 -0.3374 -0.8813
   51CHL1  H24A 3763   4.316   0.750   8.470 -0.3221 -0.4968  1.8487
   51CHL1  H24B 3764   4.289   0.922   8.458  0.8612 -0.6422  1.6305
   51CHL1   C25 3765   4.145   0.823   8.583  0.2311 -0.6141  0.2954
   51CHL1   H25 3766   4.058   0.754   8.573 -2.4218  1.7816  4.0430
   51CHL1   C26 3767   4.216   0.782   8.716  0.8720  0.2798 -0.7848
   51CHL1  H26A 3768   4.300   0.851   8.740  1.3977 -0.2395 -1.0942
   51CHL1  H26B 3769   4.143   0.774   8.799  0.7683 -0.6228 -0.9488
   51CHL1  H26C 3770   4.249   0.677   8.701  1.2480 -0.2339  2.6531
   51CHL1   C27 3771   4.064   0.952   8.591  0.5582 -0.5767  0.3572
   51CHL1  H27A 3772   4.136   1.034   8.611  1.3517 -1.3380  0.6846
   51CHL1  H27B 3773   3.994   0.978   8.508 -0.7032  0.7597  1.7649
   51CHL1  H27C 3774   3.997   0.942   8.679 -0.6148 -1.0962 -0.5631
   52CHL1    C3 3775   5.842   0.062   6.923  0.1772 -0.3029  0.4012
   52CHL1    H3 3776   5.928   0.033   6.988  0.5035  0.5308  0.3516
   52CHL1    O3 3777   5.877   0.075   6.784 -0.4308 -0.0164 -0.3995
   52CHL1   H3' 3778   5.795   0.087   6.737 -0.6245 -0.0330 -0.0667
   52CHL1    C4 3779   5.746  -0.060   6.932  0.7499  0.1776 -0.0612
   52CHL1   H4A 3780   5.657  -0.040   6.869  0.3578  0.0089  0.4234
   52CHL1   H4B 3781   5.794  -0.150   6.886  1.0955  0.3306 -0.0017
   52CHL1    C5 3782   5.696  -0.086   7.074  0.3748  0.3364  0.2018
   52CHL1    C6 3783   5.699  -0.205   7.130  0.8621 -0.1843  0.0554
   52CHL1    H6 3784   5.756  -0.285   7.080  0.0454 -0.1282 -0.9934
   52CHL1    C7 3785   5.640  -0.237   7.261 -0.5208  0.0370 -0.3653
   52CHL1   H7A 3786   5.566  -0.319   7.249 -0.8664  0.4356 -1.0085
   52CHL1   H7B 3787   5.721  -0.271   7.330  0.1934  2.1501 -0.0915
   52CHL1    C8 3788   5.572  -0.117   7.337 -0.0792 -0.4003  0.5043
   52CHL1    H8 3789   5.468  -0.112   7.298 -0.7113  0.3567  2.1724
   52CHL1   C14 3790   5.560  -0.131   7.489 -0.2070  0.1929  0.5083
   52CHL1   H14 3791   5.665  -0.125   7.524 -0.7313 -1.1655  2.4535
   52CHL1   C15 3792   5.521  -0.269   7.545 -0.2713  0.8235 -0.7831
   52CHL1  H15A 3793   5.456  -0.325   7.474  0.2972 -1.0588  0.0880
   52CHL1  H15B 3794   5.617  -0.326   7.550 -0.0737  1.0498 -1.9129
   52CHL1   C16 3795   5.456  -0.242   7.682  0.3023 -0.6475  0.5192
   52CHL1  H16A 3796   5.349  -0.272   7.678  0.3541 -0.7460 -0.3523
   52CHL1  H16B 3797   5.502  -0.311   7.755 -2.0899 -0.3499  2.4485
   52CHL1   C17 3798   5.464  -0.087   7.707  0.1486  0.0636 -0.5437
   52CHL1   H17 3799   5.562  -0.068   7.757 -1.4157  2.4254  1.8589
   52CHL1   C13 3800   5.477  -0.029   7.560 -0.6721 -0.3008 -0.7223
   52CHL1   C18 3801   5.338  -0.024   7.500 -0.2076  0.0029  0.4691
   52CHL1  H18A 3802   5.283  -0.116   7.530  1.3759 -1.3166 -0.4289
   52CHL1  H18B 3803   5.272   0.054   7.544  0.2573  2.7493 -3.2487
   52CHL1  H18C 3804   5.333  -0.002   7.392 -0.0217  0.8717  0.6312
   52CHL1   C12 3805   5.562   0.103   7.541  1.0835  0.4066  0.4075
   52CHL1  H12A 3806   5.509   0.191   7.583  0.3203  0.2747 -0.2519
   52CHL1  H12B 3807   5.659   0.085   7.591  0.4746  1.3545  1.9741
   52CHL1   C11 3808   5.581   0.135   7.390  0.4235  0.4125 -0.0621
   52CHL1  H11A 3809   5.480   0.154   7.349  0.3240 -1.0137 -0.5423
   52CHL1  H11B 3810   5.651   0.220   7.376 -0.0724  0.5230 -2.1879
   52CHL1    C9 3811   5.644   0.015   7.303  0.2423 -0.0532 -0.5067
   52CHL1    H9 3812   5.747   0.001   7.344 -0.0443  0.2115  0.3166
   52CHL1   C10 3813   5.642   0.038   7.144  0.5736 -0.1855  0.8947
   52CHL1   C19 3814   5.499   0.068   7.089 -0.8816  0.4432 -0.2902
   52CHL1  H19A 3815   5.511   0.107   6.985 -2.1076  0.6533 -0.3703
   52CHL1  H19B 3816   5.432  -0.020   7.082 -2.6378  1.8167 -2.5023
   52CHL1  H19C 3817   5.442   0.134   7.157  0.0265  0.7773  0.1571
   52CHL1    C1 3818   5.724   0.172   7.114  0.0240  0.6148 -0.2119
   52CHL1   H1A 3819   5.680   0.263   7.159 -1.6057 -1.0861  1.8343
   52CHL1   H1B 3820   5.809   0.153   7.182  0.5348 -1.0939 -1.2539
   52CHL1    C2 3821   5.778   0.185   6.973  0.0065 -0.2436 -0.3120
   52CHL1   H2A 3822   5.841   0.275   6.982 -0.6857  0.2612 -0.4247
   52CHL1   H2B 3823   5.684   0.213   6.920 -1.9163  1.4177  3.5836
   52CHL1   C20 3824   5.353  -0.040   7.796 -0.4038  0.4746 -0.5614
   52CHL1   H20 3825   5.254  -0.063   7.752 -1.2826  1.3010  0.9058
   52CHL1   C21 3826   5.371   0.111   7.812  0.0743 -0.2127 -0.7768
   52CHL1  H21A 3827   5.349   0.170   7.720 -0.2444  1.3117  0.2393
   52CHL1  H21B 3828   5.476   0.123   7.846  0.2330  0.6633 -1.5387
   52CHL1  H21C 3829   5.307   0.158   7.890  1.0191 -0.3588  0.1057
   52CHL1   C22 3830   5.352  -0.119   7.933 -0.3170 -0.6251  0.2184
   52CHL1  H22A 3831   5.319  -0.220   7.903 -3.2690  0.0081  1.0222
   52CHL1  H22B 3832   5.455  -0.119   7.976 -0.1090  2.0113 -0.0940
   52CHL1   C23 3833   5.252  -0.069   8.033 -0.6569 -0.6404  0.0575
   52CHL1  H23A 3834   5.276   0.038   8.051  2.3577 -1.3686  0.8982
   52CHL1  H23B 3835   5.148  -0.086   7.997  0.0366  1.8415 -3.6787
   52CHL1   C24 3836   5.268  -0.136   8.167 -0.5433  0.1667  0.0898
   52CHL1  H24A 3837   5.239  -0.243   8.157  0.4741 -0.1767  0.5809
   52CHL1  H24B 3838   5.375  -0.116   8.192 -0.8449  0.3799  1.3001
   52CHL1   C25 3839   5.181  -0.070   8.278 -0.1736  0.1634  0.9924
   52CHL1   H25 3840   5.191   0.040   8.268 -0.3977  0.0463 -0.8312
   52CHL1   C26 3841   5.036  -0.109   8.266  0.1860  0.3690 -0.3915
   52CHL1  H26A 3842   5.025  -0.210   8.222  0.7496  0.3787 -0.5701
   52CHL1  H26B 3843   4.975  -0.114   8.358 -0.3601 -0.2376 -0.7799
   52CHL1  H26C 3844   4.989  -0.050   8.184  1.1082 -1.6605 -2.4896
   52CHL1   C27 3845   5.233  -0.109   8.418 -0.3128  0.0331 -0.8361
   52CHL1  H27A 3846   5.344  -0.114   8.417 -0.0269  2.8052  1.7413
   52CHL1  H27B 3847   5.219  -0.023   8.488  0.5327  0.6101 -1.3533
   52CHL1  H27C 3848   5.206  -0.210   8.456  0.0836  0.2120 -0.0605
   53CHL1    C3 3849   2.238   3.241   6.993  0.5280  0.9731 -0.1416
   53CHL1    H3 3850   2.347   3.250   6.973  0.5620  0.4965 -0.1882
   53CHL1    O3 3851   2.183   3.252   6.861 -0.5408 -0.0683  0.2730
   53CHL1   H3' 3852   2.174   3.165   6.821 -1.3822  0.2277 -0.1955
   53CHL1    C4 3853   2.207   3.102   7.050 -0.2820  0.1873  0.3893
   53CHL1   H4A 3854   2.098   3.082   7.036 -0.4095  1.0499  0.0789
   53CHL1   H4B 3855   2.261   3.024   6.992 -0.7584 -1.8008  2.4909
   53CHL1    C5 3856   2.229   3.076   7.197 -0.1558 -0.6618 -0.2274
   53CHL1    C6 3857   2.283   2.965   7.256  0.3883 -0.2163 -0.8610
   53CHL1    H6 3858   2.307   2.878   7.194 -0.4745  0.5213 -2.2723
   53CHL1    C7 3859   2.309   2.946   7.405 -0.3179 -0.1616 -0.0087
   53CHL1   H7A 3860   2.283   2.843   7.436  0.8411 -0.4189  0.1501
   53CHL1   H7B 3861   2.420   2.944   7.409 -0.3472  0.3589  1.3595
   53CHL1    C8 3862   2.252   3.056   7.494 -0.3932 -0.9200  0.0821
   53CHL1    H8 3863   2.146   3.022   7.500 -0.6214 -0.3494 -0.5988
   53CHL1   C14 3864   2.332   3.065   7.625 -0.9223 -0.1777 -0.1812
   53CHL1   H14 3865   2.436   3.095   7.601 -0.9330 -0.5843 -0.7666
   53CHL1   C15 3866   2.349   2.930   7.700  0.2000  0.0087  0.1996
   53CHL1  H15A 3867   2.255   2.871   7.693  0.2021  0.0397 -0.1135
   53CHL1  H15B 3868   2.429   2.858   7.673 -0.1521 -0.7240  1.0411
   53CHL1   C16 3869   2.368   2.969   7.847  0.1205 -0.2269 -0.3650
   53CHL1  H16A 3870   2.281   2.935   7.905 -1.1450  2.0323 -0.8004
   53CHL1  H16B 3871   2.464   2.937   7.893 -0.4807 -2.2703 -0.4757
   53CHL1   C17 3872   2.359   3.131   7.845  0.7372  0.4537 -0.1764
   53CHL1   H17 3873   2.463   3.170   7.833  1.4608 -1.7500 -1.8372
   53CHL1   C13 3874   2.275   3.166   7.722 -0.4047  0.0204  0.0922
   53CHL1   C18 3875   2.120   3.149   7.736  0.5468  0.1428  0.0566
   53CHL1  H18A 3876   2.080   3.210   7.820 -0.9847 -1.8721  0.8887
   53CHL1  H18B 3877   2.055   3.177   7.650 -0.7981 -0.5285  0.8132
   53CHL1  H18C 3878   2.096   3.043   7.759  0.5097 -0.0656 -0.8980
   53CHL1   C12 3879   2.305   3.301   7.652 -0.2956 -0.4339 -0.1525
   53CHL1  H12A 3880   2.266   3.387   7.710  0.2915 -0.1930 -0.1044
   53CHL1  H12B 3881   2.415   3.317   7.648 -0.5391  1.5768  0.1996
   53CHL1   C11 3882   2.238   3.321   7.521 -0.0280  0.3179  0.0943
   53CHL1  H11A 3883   2.128   3.326   7.536 -0.1678 -0.9745 -0.4130
   53CHL1  H11B 3884   2.271   3.417   7.476 -1.0531  0.1156 -1.1398
   53CHL1    C9 3885   2.271   3.197   7.428 -0.6086 -0.2711  0.9526
   53CHL1    H9 3886   2.381   3.195   7.416 -0.7014  0.3840 -0.1332
   53CHL1   C10 3887   2.197   3.202   7.290  0.6530  0.0544  0.4642
   53CHL1   C19 3888   2.039   3.202   7.308  0.0494  0.4645 -0.0290
   53CHL1  H19A 3889   1.985   3.282   7.364 -3.4616 -3.5934  3.0619
   53CHL1  H19B 3890   1.985   3.213   7.212 -1.2403  1.1123  0.7285
   53CHL1  H19C 3891   2.013   3.103   7.352 -3.2404  2.0896  2.1175
   53CHL1    C1 3892   2.226   3.335   7.229  0.0644  0.5788  0.1971
   53CHL1   H1A 3893   2.188   3.420   7.288  1.2181  0.8482  0.5876
   53CHL1   H1B 3894   2.337   3.333   7.230  0.0682  0.7618  0.2003
   53CHL1    C2 3895   2.177   3.358   7.088 -0.4582  0.7195  0.0222
   53CHL1   H2A 3896   2.224   3.452   7.051  1.2058  0.0209  0.2592
   53CHL1   H2B 3897   2.067   3.353   7.100 -0.4441  2.2026  0.9799
   53CHL1   C20 3898   2.314   3.182   7.985 -0.5362 -0.4205  0.0911
   53CHL1   H20 3899   2.209   3.147   7.998 -0.1021 -2.1113 -0.6380
   53CHL1   C21 3900   2.317   3.337   7.990 -0.4300  0.6219  0.4279
   53CHL1  H21A 3901   2.410   3.380   7.945  0.4641 -1.3881  0.2259
   53CHL1  H21B 3902   2.306   3.380   8.092 -0.9215  0.5767  0.3937
   53CHL1  H21C 3903   2.232   3.382   7.935  0.0560 -0.4444 -1.2582
   53CHL1   C22 3904   2.395   3.124   8.108  0.0453  0.1800 -0.3192
   53CHL1  H22A 3905   2.382   3.014   8.117 -1.4470  0.3520 -0.0601
   53CHL1  H22B 3906   2.503   3.145   8.101  0.6327 -0.6299  3.5772
   53CHL1   C23 3907   2.348   3.171   8.251 -0.4653 -0.1140  0.1147
   53CHL1  H23A 3908   2.398   3.271   8.259  1.4231 -1.1444  2.2018
   53CHL1  H23B 3909   2.237   3.180   8.253 -0.6390 -1.4964 -1.4797
   53CHL1   C24 3910   2.396   3.078   8.366 -0.0260 -0.2239  0.2403
   53CHL1  H24A 3911   2.343   2.981   8.359 -2.2712  1.0478 -2.5152
   53CHL1  H24B 3912   2.507   3.066   8.365 -0.2101 -2.1280 -0.4269
   53CHL1   C25 3913   2.363   3.150   8.498 -0.9282 -0.2766 -0.4564
   53CHL1   H25 3914   2.255   3.175   8.509 -1.4247 -1.8657 -1.5127
   53CHL1   C26 3915   2.397   3.056   8.612 -0.2236 -0.3500  0.3526
   53CHL1  H26A 3916   2.325   2.972   8.622  1.6032 -2.0325 -0.0090
   53CHL1  H26B 3917   2.495   3.005   8.604 -0.4939 -0.8850  0.4162
   53CHL1  H26C 3918   2.391   3.109   8.709 -1.2195  2.3543 -1.0705
   53CHL1   C27 3919   2.433   3.289   8.517 -0.5483 -0.4362  0.2730
   53CHL1  H27A 3920   2.425   3.318   8.624 -0.9364  0.8206 -0.0703
   53CHL1  H27B 3921   2.539   3.293   8.486  0.0012  0.2560  2.1383
   53CHL1  H27C 3922   2.380   3.370   8.461  1.5356  1.3444  0.7237
   54CHL1    C3 3923   2.465   5.130   7.057  0.1178  0.4248  0.3838
   54CHL1    H3 3924   2.442   5.029   7.097  2.4585 -0.4479 -0.3384
   54CHL1    O3 3925   2.489   5.135   6.919  0.1369 -0.2163  0.1813
   54CHL1   H3' 3926   2.501   5.229   6.904  1.1844 -0.4698 -0.6078
   54CHL1    C4 3927   2.357   5.221   7.085  0.4308  0.0016 -0.3460
   54CHL1   H4A 3928   2.372   5.321   7.040  2.2429 -0.2435 -0.3517
   54CHL1   H4B 3929   2.264   5.190   7.032 -0.4629  1.1525  0.4927
   54CHL1    C5 3930   2.334   5.245   7.233 -0.8721 -0.8842  0.1457
   54CHL1    C6 3931   2.213   5.229   7.288 -0.5604  0.0560  0.3303
   54CHL1    H6 3932   2.128   5.198   7.225 -1.8962  1.5576  1.3193
   54CHL1    C7 3933   2.187   5.259   7.431  0.3339 -0.4116 -0.8305
   54CHL1   H7A 3934   2.102   5.330   7.439  0.5903 -0.2195  0.3468
   54CHL1   H7B 3935   2.175   5.163   7.485  1.5751  0.5903  1.3449
   54CHL1    C8 3936   2.300   5.338   7.500  0.1777  0.0439  0.4668
   54CHL1    H8 3937   2.299   5.445   7.470  0.4381 -0.5318 -1.7881
   54CHL1   C14 3938   2.287   5.325   7.654  0.1917  0.0576  0.1980
   54CHL1   H14 3939   2.318   5.220   7.675  0.0407  0.0928  0.5939
   54CHL1   C15 3940   2.153   5.350   7.722  0.1386  0.0373  0.3689
   54CHL1  H15A 3941   2.108   5.442   7.679 -0.4301 -1.2314 -1.9026
   54CHL1  H15B 3942   2.091   5.259   7.712  0.7212 -0.3720  0.4232
   54CHL1   C16 3943   2.186   5.378   7.868  0.2955 -0.6022  0.1798
   54CHL1  H16A 3944   2.145   5.478   7.895 -0.0535 -1.1103  1.6385
   54CHL1  H16B 3945   2.134   5.312   7.941  1.2861  0.9724  2.4258
   54CHL1   C17 3946   2.340   5.386   7.874  0.2243  0.2726 -0.2485
   54CHL1   H17 3947   2.374   5.282   7.895 -0.0448  0.6106  2.1702
   54CHL1   C13 3948   2.383   5.413   7.729  1.0186 -0.1363 -0.0710
   54CHL1   C18 3949   2.376   5.565   7.697 -0.9005  0.0689  0.3403
   54CHL1  H18A 3950   2.435   5.631   7.764  0.1188 -0.2253 -0.2486
   54CHL1  H18B 3951   2.412   5.589   7.595  0.2603  2.7465  1.2931
   54CHL1  H18C 3952   2.272   5.603   7.707 -0.6506  0.6218  0.8708
   54CHL1   C12 3953   2.526   5.356   7.699  0.2838 -0.6622  0.2814
   54CHL1  H12A 3954   2.598   5.433   7.735  1.0060  0.5452 -3.3193
   54CHL1  H12B 3955   2.543   5.261   7.755  2.4765 -0.4246  0.1217
   54CHL1   C11 3956   2.554   5.337   7.552  0.8870  0.0390  0.9322
   54CHL1  H11A 3957   2.563   5.442   7.515  3.0515  0.0197  1.2656
   54CHL1  H11B 3958   2.648   5.279   7.540  0.3788 -0.6915  0.4484
   54CHL1    C9 3959   2.435   5.275   7.464 -0.3928 -0.3235 -0.5985
   54CHL1    H9 3960   2.423   5.169   7.496 -0.2083 -0.0539  0.4150
   54CHL1   C10 3961   2.464   5.279   7.309  0.9907 -0.5078  0.1299
   54CHL1   C19 3962   2.498   5.425   7.278 -0.6914  0.3067 -0.3259
   54CHL1  H19A 3963   2.438   5.493   7.342 -0.7265 -0.7935  0.8381
   54CHL1  H19B 3964   2.605   5.435   7.308 -1.2728  2.0083  1.3606
   54CHL1  H19C 3965   2.495   5.456   7.171 -0.4574 -0.3947 -0.5365
   54CHL1    C1 3966   2.587   5.193   7.276 -0.3429  0.5523 -0.2673
   54CHL1   H1A 3967   2.680   5.222   7.331  0.2556  0.9185 -1.4434
   54CHL1   H1B 3968   2.563   5.091   7.314 -0.9159 -0.2504 -2.6489
   54CHL1    C2 3969   2.603   5.181   7.125  0.1458 -0.1208 -0.3914
   54CHL1   H2A 3970   2.671   5.100   7.093 -0.0417  0.5190 -2.5339
   54CHL1   H2B 3971   2.628   5.276   7.074  0.9745  0.5271  1.1610
   54CHL1   C20 3972   2.390   5.472   7.991  0.2307 -0.0030 -0.4672
   54CHL1   H20 3973   2.346   5.574   7.989  1.0337  0.3716  0.5289
   54CHL1   C21 3974   2.549   5.484   7.994 -0.7854 -0.7157 -0.6400
   54CHL1  H21A 3975   2.578   5.532   8.090  1.2815 -0.5696 -1.2771
   54CHL1  H21B 3976   2.592   5.545   7.912  0.2589  0.5553  0.8092
   54CHL1  H21C 3977   2.601   5.386   7.982  1.0563 -0.1038  1.5976
   54CHL1   C22 3978   2.330   5.419   8.124 -0.6201 -0.8033  0.1721
   54CHL1  H22A 3979   2.222   5.442   8.107 -0.0737 -0.5768 -4.2264
   54CHL1  H22B 3980   2.348   5.310   8.124 -0.2719 -0.7482  0.7362
   54CHL1   C23 3981   2.384   5.481   8.256  0.5255  0.2736  0.0886
   54CHL1  H23A 3982   2.484   5.435   8.269  1.0583  0.0603 -3.6549
   54CHL1  H23B 3983   2.389   5.592   8.257  0.2638  0.3328  2.5477
   54CHL1   C24 3984   2.297   5.430   8.378  0.7491 -0.0875  0.7996
   54CHL1  H24A 3985   2.208   5.496   8.377 -0.1031 -1.1105 -1.8759
   54CHL1  H24B 3986   2.272   5.323   8.361 -0.6277  0.3180  0.1509
   54CHL1   C25 3987   2.368   5.444   8.514  0.0589  0.0036 -0.8297
   54CHL1   H25 3988   2.455   5.375   8.514 -1.4872 -2.0285 -1.4965
   54CHL1   C26 3989   2.401   5.596   8.537 -0.0276  0.2303  0.2508
   54CHL1  H26A 3990   2.442   5.620   8.638 -0.6357  0.7648  0.3771
   54CHL1  H26B 3991   2.480   5.629   8.466 -0.1507  3.3906  1.4112
   54CHL1  H26C 3992   2.315   5.663   8.517  0.4112  0.5678 -0.5605
   54CHL1   C27 3993   2.279   5.403   8.633 -0.0181  0.5178  0.5855
   54CHL1  H27A 3994   2.262   5.293   8.630  0.9221  0.3688  0.5927
   54CHL1  H27B 3995   2.318   5.414   8.737  0.5616 -1.0647  0.5694
   54CHL1  H27C 3996   2.175   5.444   8.638 -0.4145 -0.2108 -1.0287
   55CHL1    C3 3997   3.799   0.625   6.857 -0.2504  0.1508 -0.3009
   55CHL1    H3 3998   3.901   0.580   6.858 -1.6000 -3.1542 -0.2329
   55CHL1    O3 3999   3.789   0.682   6.730 -0.7392 -0.3544 -0.6625
   55CHL1   H3' 4000   3.701   0.681   6.691 -0.2292 -1.1562 -1.8435
   55CHL1    C4 4001   3.683   0.526   6.896 -0.0214  0.6903 -0.1193
   55CHL1   H4A 4002   3.584   0.573   6.876 -0.8972 -0.3692  1.4682
   55CHL1   H4B 4003   3.685   0.438   6.829  1.2319  0.4716  0.1847
   55CHL1    C5 4004   3.691   0.483   7.039 -0.7027  0.2170 -0.6457
   55CHL1    C6 4005   3.688   0.352   7.075 -0.1863  0.4495  0.5017
   55CHL1    H6 4006   3.684   0.278   6.994  1.3424  2.2486 -1.3388
   55CHL1    C7 4007   3.676   0.308   7.221  0.1603  0.1622  0.2485
   55CHL1   H7A 4008   3.589   0.239   7.234 -1.1075  1.8634  1.2891
   55CHL1   H7B 4009   3.772   0.259   7.249 -0.5104 -0.8542  0.8617
   55CHL1    C8 4010   3.638   0.431   7.317  0.2066 -0.1549  0.2577
   55CHL1    H8 4011   3.533   0.461   7.296  0.4311 -0.5939 -1.7277
   55CHL1   C14 4012   3.657   0.387   7.463  0.1713 -0.3156 -0.3067
   55CHL1   H14 4013   3.761   0.349   7.465  0.6692  1.0117  1.8036
   55CHL1   C15 4014   3.577   0.272   7.520  0.0402  0.1939 -0.2134
   55CHL1  H15A 4015   3.467   0.282   7.508  0.1178 -1.2721 -2.7562
   55CHL1  H15B 4016   3.604   0.172   7.480  1.3276  0.5475 -0.2872
   55CHL1   C16 4017   3.611   0.281   7.672  1.0681 -0.2701 -0.5712
   55CHL1  H16A 4018   3.510   0.278   7.718  1.0056 -2.6961 -0.7305
   55CHL1  H16B 4019   3.668   0.189   7.700 -0.5403 -0.9846  0.5274
   55CHL1   C17 4020   3.693   0.417   7.696  0.1571 -0.0064 -0.3433
   55CHL1   H17 4021   3.797   0.380   7.679  0.9880  1.6670  0.8385
   55CHL1   C13 4022   3.663   0.497   7.567  0.8756 -0.1078 -0.3341
   55CHL1   C18 4023   3.518   0.557   7.578 -0.3403 -0.0745  0.0445
   55CHL1  H18A 4024   3.436   0.496   7.620 -2.0862  2.0423 -0.1606
   55CHL1  H18B 4025   3.524   0.648   7.640 -1.3212  1.7327 -2.3536
   55CHL1  H18C 4026   3.485   0.598   7.480  1.0928 -1.2777 -0.9966
   55CHL1   C12 4027   3.769   0.604   7.533  0.3437 -0.2703 -0.2106
   55CHL1  H12A 4028   3.767   0.692   7.601  0.5322  0.3060 -0.9455
   55CHL1  H12B 4029   3.872   0.561   7.536  0.2650 -0.4943 -0.6272
   55CHL1   C11 4030   3.739   0.663   7.393 -0.5584  0.6103  0.3054
   55CHL1  H11A 4031   3.645   0.723   7.387  0.0224  1.5963  0.9918
   55CHL1  H11B 4032   3.815   0.740   7.371 -0.6730  0.7794  0.5042
   55CHL1    C9 4033   3.733   0.551   7.287  0.2638 -0.3774 -0.0121
   55CHL1    H9 4034   3.836   0.510   7.286  1.1338  1.6915 -0.5979
   55CHL1   C10 4035   3.709   0.602   7.141 -0.2125  0.4969 -0.1036
   55CHL1   C19 4036   3.589   0.688   7.139 -0.9443  0.0677  0.9339
   55CHL1  H19A 4037   3.613   0.787   7.184 -0.0539  0.1289  0.3442
   55CHL1  H19B 4038   3.550   0.713   7.038 -1.1353  1.1482  1.2561
   55CHL1  H19C 4039   3.500   0.636   7.181 -0.3640  0.7301  3.1315
   55CHL1    C1 4040   3.822   0.695   7.090  0.2919  0.0371  0.2783
   55CHL1   H1A 4041   3.843   0.776   7.163 -0.3942  0.0526  0.4608
   55CHL1   H1B 4042   3.921   0.644   7.079  0.0292 -0.6603  1.0397
   55CHL1    C2 4043   3.804   0.745   6.947  0.7911  0.0986 -0.2237
   55CHL1   H2A 4044   3.885   0.819   6.926 -0.7798  2.7762  2.2814
   55CHL1   H2B 4045   3.716   0.812   6.944  1.5240  1.0461 -1.5849
   55CHL1   C20 4046   3.679   0.473   7.836  0.1429  0.6161 -0.0966
   55CHL1   H20 4047   3.571   0.486   7.857  0.1258  0.9727 -0.4140
   55CHL1   C21 4048   3.733   0.620   7.853 -0.0383  0.2654  0.2860
   55CHL1  H21A 4049   3.667   0.705   7.823 -2.0968 -1.5443 -0.6431
   55CHL1  H21B 4050   3.828   0.634   7.797  0.1285 -0.5659  0.3468
   55CHL1  H21C 4051   3.749   0.631   7.962 -0.9871 -1.1020  0.5992
   55CHL1   C22 4052   3.728   0.370   7.945 -0.5131 -0.1810 -0.6029
   55CHL1  H22A 4053   3.690   0.413   8.041 -2.6015 -3.5431  0.2485
   55CHL1  H22B 4054   3.676   0.273   7.931 -0.1749 -0.2074 -1.7604
   55CHL1   C23 4055   3.877   0.351   7.967  0.2870 -0.3256 -0.7963
   55CHL1  H23A 4056   3.928   0.331   7.870  0.7202  0.8312 -0.8291
   55CHL1  H23B 4057   3.927   0.443   8.005  1.8644 -1.9202  1.1627
   55CHL1   C24 4058   3.922   0.243   8.068 -0.6913 -0.0410 -0.4547
   55CHL1  H24A 4059   3.852   0.157   8.084 -0.2008 -0.6937 -1.7422
   55CHL1  H24B 4060   4.012   0.189   8.032 -1.4032 -1.0687 -0.7346
   55CHL1   C25 4061   3.971   0.300   8.200  0.2063 -0.1912 -0.6661
   55CHL1   H25 4062   4.042   0.382   8.177 -0.7979  1.1314  0.7638
   55CHL1   C26 4063   3.848   0.349   8.287  0.3337 -0.2132  0.4303
   55CHL1  H26A 4064   3.784   0.262   8.314 -0.2187 -0.4153 -1.3660
   55CHL1  H26B 4065   3.891   0.399   8.376 -1.1296  2.1954 -0.1285
   55CHL1  H26C 4066   3.786   0.431   8.245  1.9675  0.8571  0.0012
   55CHL1   C27 4067   4.048   0.191   8.279 -0.3429 -1.3498 -0.5674
   55CHL1  H27A 4068   4.118   0.126   8.222 -1.8635 -1.6747 -2.1302
   55CHL1  H27B 4069   4.103   0.239   8.363 -0.0637  0.0818 -1.5267
   55CHL1  H27C 4070   3.974   0.117   8.315  1.2311 -2.1527  1.1499
   56CHL1    C3 4071   2.496   3.617   7.271  0.3787  0.3259 -0.4346
   56CHL1    H3 4072   2.450   3.528   7.319  0.6033  0.3629 -0.1445
   56CHL1    O3 4073   2.522   3.587   7.134 -0.3831 -0.1136 -0.1751
   56CHL1   H3' 4074   2.583   3.513   7.121  0.4810  0.8405 -2.0079
   56CHL1    C4 4075   2.385   3.730   7.277  0.5002 -0.3742 -0.2759
   56CHL1   H4A 4076   2.433   3.823   7.240  2.3680 -0.8647  0.7823
   56CHL1   H4B 4077   2.296   3.701   7.217  1.0470 -0.5035 -1.0403
   56CHL1    C5 4078   2.349   3.748   7.421  0.3958  0.5934 -0.0144
   56CHL1    C6 4079   2.221   3.733   7.463 -0.1764  0.5878 -0.9959
   56CHL1    H6 4080   2.142   3.722   7.387 -1.2368 -1.0366  0.2953
   56CHL1    C7 4081   2.171   3.756   7.607 -0.4032  0.2009 -0.3842
   56CHL1   H7A 4082   2.074   3.810   7.608 -0.0987  0.7674 -0.6290
   56CHL1   H7B 4083   2.144   3.657   7.649  0.9927  0.9776  2.5774
   56CHL1    C8 4084   2.279   3.824   7.700  0.4946 -0.2030  1.0254
   56CHL1    H8 4085   2.282   3.933   7.678 -1.0620 -0.7162 -2.3130
   56CHL1   C14 4086   2.237   3.803   7.846 -0.1435  0.5409  0.3444
   56CHL1   H14 4087   2.222   3.693   7.850  0.1481  0.4895  0.0561
   56CHL1   C15 4088   2.115   3.867   7.896  0.6807 -0.4079 -0.0387
   56CHL1  H15A 4089   2.119   3.971   7.857  1.0261 -0.6906 -0.7840
   56CHL1  H15B 4090   2.022   3.824   7.852 -0.1979  1.3087  0.0590
   56CHL1   C16 4091   2.128   3.872   8.051  0.8484 -0.2930  0.2481
   56CHL1  H16A 4092   2.123   3.977   8.087 -1.7767  0.4768 -1.9956
   56CHL1  H16B 4093   2.054   3.808   8.103 -0.8225  0.9564 -0.5028
   56CHL1   C17 4094   2.272   3.811   8.077  0.3683 -0.2527  0.2336
   56CHL1   H17 4095   2.258   3.702   8.087  0.9884 -0.2863  0.8200
   56CHL1   C13 4096   2.342   3.834   7.945 -0.0108 -0.2247 -0.0291
   56CHL1   C18 4097   2.378   3.988   7.932  0.5212 -0.5535  0.3855
   56CHL1  H18A 4098   2.286   4.050   7.933 -1.3967 -3.2720  1.4737
   56CHL1  H18B 4099   2.442   4.034   8.011  0.9155 -2.0529  0.9742
   56CHL1  H18C 4100   2.431   4.004   7.835  0.4018 -0.2110  0.3754
   56CHL1   C12 4101   2.466   3.753   7.920 -0.3685  0.5102 -0.1155
   56CHL1  H12A 4102   2.550   3.787   7.985 -0.8966  0.2279  0.7254
   56CHL1  H12B 4103   2.446   3.649   7.953  2.1124 -0.3568 -1.1000
   56CHL1   C11 4104   2.520   3.767   7.776 -0.5452  0.7760  0.3191
   56CHL1  H11A 4105   2.550   3.873   7.771  0.0250  0.6036  0.0766
   56CHL1  H11B 4106   2.609   3.702   7.763  0.7496  2.7535 -1.2745
   56CHL1    C9 4107   2.414   3.747   7.664  0.4701 -0.1055  0.2144
   56CHL1    H9 4108   2.387   3.639   7.667  1.8290 -0.6291 -2.7720
   56CHL1   C10 4109   2.467   3.770   7.521 -0.0089 -0.6485 -0.5924
   56CHL1   C19 4110   2.497   3.917   7.502 -0.3065  0.4079 -0.2942
   56CHL1  H19A 4111   2.542   3.932   7.401 -0.9038  0.9314 -0.4829
   56CHL1  H19B 4112   2.424   3.996   7.528 -1.9940 -1.1864 -0.0404
   56CHL1  H19C 4113   2.583   3.936   7.570 -0.7761 -0.9076  0.7225
   56CHL1    C1 4114   2.587   3.677   7.495 -0.3464  0.8423  0.1529
   56CHL1   H1A 4115   2.672   3.710   7.557  0.0102 -1.6283  1.1281
   56CHL1   H1B 4116   2.557   3.578   7.538 -2.4767  0.7931 -1.2696
   56CHL1    C2 4117   2.623   3.647   7.351 -0.1886 -0.0548  0.4700
   56CHL1   H2A 4118   2.696   3.563   7.344  0.5132  0.5924  0.0013
   56CHL1   H2B 4119   2.679   3.727   7.300 -1.0940  1.1245  1.2557
   56CHL1   C20 4120   2.338   3.840   8.207  0.1613 -0.0119  1.1003
   56CHL1   H20 4121   2.428   3.903   8.187  0.4645 -0.7802 -0.0506
   56CHL1   C21 4122   2.393   3.707   8.267  0.4735  0.2053  0.0417
   56CHL1  H21A 4123   2.441   3.636   8.197 -0.1723 -2.9538  2.5983
   56CHL1  H21B 4124   2.308   3.646   8.303  0.0947  0.5948 -0.1815
   56CHL1  H21C 4125   2.461   3.726   8.353  0.2779 -0.5348  0.3649
   56CHL1   C22 4126   2.250   3.915   8.308 -0.3778 -0.5265 -0.4302
   56CHL1  H22A 4127   2.238   4.020   8.273  0.2342  0.2671  1.6110
   56CHL1  H22B 4128   2.142   3.888   8.315  0.3471 -3.5836  0.0686
   56CHL1   C23 4129   2.311   3.931   8.445  0.4153 -0.2907  0.0465
   56CHL1  H23A 4130   2.293   3.835   8.497 -1.7012  0.3992  0.6846
   56CHL1  H23B 4131   2.420   3.948   8.438  0.2541  0.6954 -0.2056
   56CHL1   C24 4132   2.251   4.049   8.521 -0.4130 -0.4121 -0.1362
   56CHL1  H24A 4133   2.260   4.136   8.453 -1.1453 -0.6006 -0.4839
   56CHL1  H24B 4134   2.144   4.050   8.552 -0.2103 -0.2707  0.5833
   56CHL1   C25 4135   2.339   4.098   8.637 -0.3680 -1.0300 -0.0311
   56CHL1   H25 4136   2.441   4.102   8.594 -1.2415  2.1265 -2.1905
   56CHL1   C26 4137   2.293   4.248   8.674 -0.5397 -0.0194 -0.2005
   56CHL1  H26A 4138   2.195   4.241   8.725  1.0911  0.0880  3.2566
   56CHL1  H26B 4139   2.282   4.313   8.585  2.6614 -2.2412 -2.4678
   56CHL1  H26C 4140   2.360   4.313   8.735 -1.6372  1.3443 -0.4113
   56CHL1   C27 4141   2.329   4.002   8.758  0.1171 -0.8704 -0.4855
   56CHL1  H27A 4142   2.353   3.899   8.724 -2.8749 -2.3458  1.3864
   56CHL1  H27B 4143   2.402   4.029   8.837  1.8266  0.5641 -2.4492
   56CHL1  H27C 4144   2.227   4.008   8.802  0.7896  3.7897  0.9639
   57SAPC     N 4145   1.684   5.464  10.812 -0.3622 -0.5882  0.1931
   57SAPC   C12 4146   1.586   5.356  10.773 -0.7013  0.5281  0.2291
   57SAPC  H12A 4147   1.521   5.380  10.690  0.6042  1.4416 -0.5594
   57SAPC  H12B 4148   1.522   5.335  10.858 -1.4521  1.6176 -0.0476
   57SAPC   C13 4149   1.622   5.593  10.846  0.5786  0.7779 -0.1409
   57SAPC  H13A 4150   1.553   5.586  10.929 -2.1402  0.0647 -2.2732
   57SAPC  H13B 4151   1.704   5.660  10.863 -0.7318  2.7611 -1.2127
   57SAPC  H13C 4152   1.564   5.633  10.764  0.0108 -0.7800 -0.5459
   57SAPC   C14 4153   1.764   5.436  10.940  0.5448  0.2819  0.3702
   57SAPC  H14A 4154   1.694   5.415  11.020 -1.3412  2.6652 -0.5440
   57SAPC  H14B 4155   1.831   5.353  10.921  0.4852  0.0184  1.2632
   57SAPC  H14C 4156   1.813   5.530  10.959 -4.4095  2.7423  2.6924
   57SAPC   C15 4157   1.783   5.492  10.700  0.1040  0.1647 -0.5164
   57SAPC  H15A 4158   1.808   5.399  10.650  0.2819 -0.9178  1.4685
   57SAPC  H15B 4159   1.739   5.558  10.627 -1.4513  0.0009  0.2359
   57SAPC  H15C 4160   1.873   5.528  10.747 -0.2105 -1.2594  1.3332
   57SAPC   C11 4161   1.650   5.226  10.734 -0.4369  0.5394 -0.9780
   57SAPC  H11A 4162   1.726   5.239  10.655 -0.4732  0.4724 -1.0240
   57SAPC  H11B 4163   1.566   5.164  10.695 -0.3081 -1.7005  1.9418
   57SAPC     P 4164   1.823   5.052  10.817  0.3075 -0.0939 -0.0518
   57SAPC   O13 4165   1.940   5.114  10.755  0.5046 -0.3896 -0.4031
   57SAPC   O14 4166   1.837   4.987  10.948  0.1506  0.1156  0.1662
   57SAPC   O12 4167   1.710   5.156  10.847  0.1369  0.5360  0.4414
   57SAPC   O11 4168   1.750   4.954  10.710  0.5550  0.7133  0.2271
   57SAPC    C1 4169   1.840   4.882  10.619  0.0972 -0.1972 -0.1979
   57SAPC    HA 4170   1.937   4.854  10.666 -0.0251 -1.6079 -0.7105
   57SAPC    HB 4171   1.775   4.792  10.608 -1.4135  0.4308  2.5591
   57SAPC    C2 4172   1.862   4.949  10.478  0.1255 -0.2646  0.3467
   57SAPC    HS 4173   1.937   5.030  10.497 -0.1440 -0.3156  1.7359
   57SAPC   O21 4174   1.736   4.989  10.422 -0.0338  0.2656  0.1437
   57SAPC   C21 4175   1.732   5.115  10.382 -0.1989  0.4414 -0.0759
   57SAPC   O22 4176   1.825   5.191  10.384  0.2637 -0.2061 -0.1701
   57SAPC   C22 4177   1.586   5.154  10.331 -0.0057  0.5560  0.1975
   57SAPC   H2R 4178   1.529   5.059  10.322  0.3383  0.4170 -0.6057
   57SAPC   H2S 4179   1.541   5.222  10.406 -0.2331 -0.5644  1.0955
   57SAPC    C3 4180   1.923   4.843  10.381 -0.3377  0.1895  0.0108
   57SAPC    HX 4181   1.853   4.759  10.363  1.7753 -1.9548  1.1357
   57SAPC    HY 4182   2.020   4.808  10.422 -0.4251 -0.8097 -0.6034
   57SAPC   O31 4183   1.957   4.912  10.257  0.3828 -0.2440 -0.5154
   57SAPC   C31 4184   1.908   4.865  10.149  0.4694  0.3135  0.4928
   57SAPC   O32 4185   1.856   4.758  10.126 -0.2144 -0.2007 -0.2611
   57SAPC   C32 4186   1.921   4.973  10.040 -0.3998  0.3825 -0.1207
   57SAPC   H2X 4187   2.030   4.983  10.025  0.0978 -1.9862  1.3547
   57SAPC   H2Y 4188   1.883   5.072  10.075 -1.3432  0.0084 -0.0342
   57SAPC   C23 4189   1.590   5.239  10.195 -0.3077  0.4075  0.0504
   57SAPC   H3R 4190   1.640   5.179  10.115  1.9242  0.3472  1.3953
   57SAPC   H3S 4191   1.659   5.325  10.212 -2.7466  2.1156  1.9896
   57SAPC   C24 4192   1.458   5.317  10.152 -0.5903 -0.3941 -0.1400
   57SAPC   H4R 4193   1.491   5.372  10.061 -0.1515  0.7867  0.6955
   57SAPC   H4S 4194   1.432   5.379  10.240  1.0246 -0.0355  0.1322
   57SAPC   C25 4195   1.341   5.230  10.114  0.2590  0.7875  0.4958
   57SAPC   H5R 4196   1.265   5.235  10.193 -0.2269  1.7298 -0.0061
   57SAPC   C26 4197   1.321   5.153  10.006 -0.8474 -0.5268  0.8151
   57SAPC   H6R 4198   1.225   5.100   9.997 -1.6144  1.0328 -0.9366
   57SAPC   C27 4199   1.405   5.145   9.887  0.9277 -0.4463  0.0954
   57SAPC   H7R 4200   1.495   5.209   9.900  0.8615 -0.4582  0.6535
   57SAPC   H7S 4201   1.354   5.197   9.804  1.1283 -1.0870 -0.4443
   57SAPC   C28 4202   1.427   5.003   9.841 -0.4356 -0.1536  0.3990
   57SAPC   H8R 4203   1.468   4.940   9.921 -0.3347  0.6259  0.9679
   57SAPC   C29 4204   1.401   4.940   9.723 -0.2261 -0.4370 -0.1494
   57SAPC   H9R 4205   1.414   4.831   9.717 -2.8773 -0.8960  1.0074
   57SAPC  C210 4206   1.343   5.004   9.602  1.1344  0.4325  0.0330
   57SAPC  H10R 4207   1.408   4.980   9.515 -0.5206 -0.7066 -0.9628
   57SAPC  H10S 4208   1.338   5.112   9.625 -1.9707  0.5032 -0.5267
   57SAPC  C211 4209   1.198   4.956   9.580 -0.1959  0.9143 -0.0382
   57SAPC  H11R 4210   1.143   4.933   9.672 -0.3194  1.3202 -0.0067
   57SAPC  C212 4211   1.137   4.939   9.459 -0.5602  0.4505  0.0655
   57SAPC  H12R 4212   1.029   4.917   9.465 -0.2797 -1.1221 -0.1300
   57SAPC  C213 4213   1.202   4.968   9.325 -0.6533 -0.3981 -0.1624
   57SAPC  H13R 4214   1.312   4.962   9.319 -0.6789 -0.4799 -0.5751
   57SAPC  H13S 4215   1.168   5.072   9.306 -0.9154 -0.1101  1.6829
   57SAPC  C214 4216   1.145   4.887   9.209 -0.2086 -0.3276  0.4345
   57SAPC  H14R 4217   1.042   4.912   9.180  0.5066  0.6091 -1.4857
   57SAPC  C215 4218   1.196   4.787   9.135  0.7216  0.0987 -0.3548
   57SAPC  H15R 4219   1.133   4.755   9.050  1.0103 -1.3409 -0.0503
   57SAPC  C216 4220   1.332   4.732   9.161  0.1945 -0.3858  0.2297
   57SAPC  H16R 4221   1.377   4.782   9.249 -0.1696 -1.8897  1.3132
   57SAPC  H16S 4222   1.416   4.743   9.088 -0.9397  1.5761 -0.8588
   57SAPC  C217 4223   1.320   4.586   9.184 -0.0787 -0.0047  0.1753
   57SAPC  H17R 4224   1.278   4.539   9.092 -0.3666 -2.0787  1.3244
   57SAPC  H17S 4225   1.255   4.571   9.273  2.0650 -0.3317  1.7525
   57SAPC  C218 4226   1.451   4.522   9.231 -0.0690  1.2177  0.3852
   57SAPC  H18R 4227   1.505   4.573   9.313 -0.7802 -1.5584  2.7533
   57SAPC  H18S 4228   1.522   4.520   9.145 -1.3723 -0.4064 -0.7105
   57SAPC  C219 4229   1.418   4.374   9.270  0.6921 -0.1174 -0.3384
   57SAPC  H19R 4230   1.352   4.334   9.189  0.6828 -0.4426 -0.1716
   57SAPC  H19S 4231   1.357   4.366   9.362 -0.7799  1.9981 -1.0729
   57SAPC  C220 4232   1.540   4.280   9.294 -0.4970 -0.4166  0.4525
   57SAPC  H20R 4233   1.597   4.271   9.199 -0.9933 -0.6507  0.1667
   57SAPC  H20S 4234   1.511   4.180   9.333  0.8643 -0.9862  0.0498
   57SAPC  H20T 4235   1.597   4.331   9.374  0.3497 -0.7283  0.0625
   57SAPC   C33 4236   1.844   4.940   9.909  0.3284 -0.0391  0.3258
   57SAPC   H3X 4237   1.844   5.036   9.854 -0.3838 -0.2965 -0.1464
   57SAPC   H3Y 4238   1.739   4.914   9.934  0.5352 -1.3032 -0.0386
   57SAPC   C34 4239   1.905   4.830   9.824  0.2333  0.3724  0.5407
   57SAPC   H4X 4240   1.924   4.743   9.890 -0.3252 -1.3959 -1.4887
   57SAPC   H4Y 4241   1.998   4.853   9.768 -0.4611 -2.0514 -1.8655
   57SAPC   C35 4242   1.797   4.776   9.732  0.7276 -0.1926 -0.0839
   57SAPC   H5X 4243   1.702   4.759   9.788  0.7523  1.5977  0.5740
   57SAPC   H5Y 4244   1.832   4.682   9.684  1.6971 -0.3672  0.9061
   57SAPC   C36 4245   1.778   4.864   9.605  0.6032  0.3318 -0.5326
   57SAPC   H6X 4246   1.882   4.873   9.567  0.8619 -1.9718 -0.4743
   57SAPC   H6Y 4247   1.712   4.949   9.635 -0.3862 -0.7559  0.5051
   57SAPC   C37 4248   1.705   4.782   9.495  0.0270  0.5656  0.2491
   57SAPC   H7X 4249   1.608   4.754   9.539 -0.4898  2.4974  0.4598
   57SAPC   H7Y 4250   1.750   4.687   9.459  1.3408  1.2642 -0.0475
   57SAPC   C38 4251   1.656   4.865   9.375 -0.3708  0.2940  0.4876
   57SAPC   H8X 4252   1.615   4.960   9.414  2.6255  1.6609  0.5905
   57SAPC   H8Y 4253   1.578   4.808   9.321 -1.4133  1.3545  0.8532
   57SAPC   C39 4254   1.773   4.902   9.288  0.0968  0.0888 -0.3949
   57SAPC   H9X 4255   1.868   4.847   9.308  1.3545  2.2393 -0.1144
   57SAPC   H9Y 4256   1.802   5.008   9.310  2.1683 -0.6124  0.5561
   57SAPC  C310 4257   1.735   4.886   9.142 -0.0500 -0.1068 -0.2386
   57SAPC  H10X 4258   1.801   4.959   9.092  0.2603  1.7392  2.6228
   57SAPC  H10Y 4259   1.630   4.907   9.114 -0.3706  0.2603  1.1803
   57SAPC  C311 4260   1.781   4.745   9.090  0.2854 -0.6956 -0.6385
   57SAPC  H11X 4261   1.722   4.664   9.137  0.3498 -0.8551 -0.8344
   57SAPC  H11Y 4262   1.887   4.732   9.118 -0.2255 -3.1951  0.3671
   57SAPC  C312 4263   1.777   4.737   8.945  0.1503  0.2558  0.0525
   57SAPC  H12X 4264   1.835   4.821   8.900  0.6759 -0.3979 -0.5139
   57SAPC  H12Y 4265   1.672   4.748   8.912  0.4074  0.2783 -0.7877
   57SAPC  C313 4266   1.837   4.608   8.883  0.1313  0.0936  0.0829
   57SAPC  H13X 4267   1.791   4.517   8.929 -0.7072  1.1602  1.4366
   57SAPC  H13Y 4268   1.936   4.605   8.933  0.4042 -3.7949 -0.3927
   57SAPC  C314 4269   1.839   4.613   8.723 -0.2045 -0.4667 -0.3486
   57SAPC  H14X 4270   1.873   4.712   8.687 -2.9929  0.1098 -1.6909
   57SAPC  H14Y 4271   1.739   4.605   8.675  0.2108  1.8489 -1.7453
   57SAPC  C315 4272   1.930   4.508   8.663  0.7024 -0.0673  0.4433
   57SAPC  H15X 4273   1.895   4.404   8.680  0.3497 -0.0700 -0.2502
   57SAPC  H15Y 4274   2.027   4.513   8.717  0.9771 -2.0510  0.1986
   57SAPC  C316 4275   1.933   4.522   8.513 -0.1531  0.3386 -0.1986
   57SAPC  H16X 4276   1.990   4.616   8.502  0.3088 -0.0023 -0.7822
   57SAPC  H16Y 4277   1.826   4.527   8.485 -0.2299 -0.1158 -0.0027
   57SAPC  C317 4278   2.002   4.412   8.439  0.2373 -0.0600  0.2192
   57SAPC  H17X 4279   1.955   4.313   8.458 -2.1005  0.8174 -0.7060
   57SAPC  H17Y 4280   2.108   4.396   8.469  0.4307 -1.9213 -1.2192
   57SAPC  C318 4281   1.999   4.459   8.293  0.0560  0.0057  0.3305
   57SAPC  H18X 4282   1.894   4.477   8.264 -0.0163  1.5877  1.3993
   57SAPC  H18Y 4283   2.044   4.386   8.223 -0.1392  0.7034 -0.5375
   57SAPC  H18Z 4284   2.065   4.549   8.284 -0.1976  0.1669  0.0884
   58SAPC     N 4285   2.814   4.683  11.104  0.2714 -0.0255  0.1841
   58SAPC   C12 4286   2.892   4.812  11.137 -0.2275 -0.2362  0.0232
   58SAPC  H12A 4287   2.997   4.792  11.123  0.0007  0.4270  0.7451
   58SAPC  H12B 4288   2.874   4.840  11.239  1.2726  1.3972 -0.1226
   58SAPC   C13 4289   2.853   4.566  11.180  0.3357 -0.5260  0.5426
   58SAPC  H13A 4290   2.787   4.490  11.139  0.7535  0.1620 -1.5480
   58SAPC  H13B 4291   2.948   4.523  11.152 -1.1272 -2.8581 -1.2560
   58SAPC  H13C 4292   2.847   4.583  11.286  0.5522 -0.5781  0.5615
   58SAPC   C14 4293   2.667   4.705  11.116  1.0430 -0.1496 -0.7740
   58SAPC  H14A 4294   2.640   4.734  11.217 -0.5191 -1.2761 -0.8298
   58SAPC  H14B 4295   2.631   4.778  11.045 -1.0352  0.9476  1.2584
   58SAPC  H14C 4296   2.616   4.613  11.093  1.6588 -0.2215 -1.8840
   58SAPC   C15 4297   2.860   4.640  10.964  0.7709  0.8443 -0.0021
   58SAPC  H15A 4298   2.863   4.730  10.905 -0.8526 -0.7118 -2.6142
   58SAPC  H15B 4299   2.949   4.579  10.965  0.9290  1.0630 -0.7166
   58SAPC  H15C 4300   2.784   4.573  10.927  0.4324  2.2624 -2.0298
   58SAPC   C11 4301   2.862   4.943  11.046  0.0487  0.5561 -0.4267
   58SAPC  H11A 4302   2.927   5.024  11.087  0.0827  0.7073 -0.7787
   58SAPC  H11B 4303   2.761   4.982  11.072 -0.1965 -1.5260  2.1896
   58SAPC     P 4304   3.027   4.946  10.843  0.0918  0.5399 -0.0532
   58SAPC   O13 4305   3.094   5.060  10.910  0.8991  0.2196  0.5079
   58SAPC   O14 4306   3.100   4.816  10.862 -0.1201  0.0835 -0.3437
   58SAPC   O12 4307   2.885   4.926  10.904  0.5125 -0.0333 -0.0835
   58SAPC   O11 4308   2.992   4.982  10.692  0.6468  0.2593 -0.3170
   58SAPC    C1 4309   2.928   4.877  10.609 -0.3999 -0.0741 -0.7766
   58SAPC    HA 4310   3.005   4.803  10.580  0.7437  0.2910  1.1976
   58SAPC    HB 4311   2.848   4.815  10.655 -0.6919  0.0086 -1.1631
   58SAPC    C2 4312   2.874   4.934  10.479  0.2805 -0.6575  0.1835
   58SAPC    HS 4313   2.812   4.854  10.433  2.4019 -2.9089  1.0318
   58SAPC   O21 4314   2.989   4.958  10.389 -0.4134  0.3010  0.2799
   58SAPC   C21 4315   2.974   4.934  10.265 -0.6813 -0.2600  0.2692
   58SAPC   O22 4316   2.889   4.867  10.210  0.4077  0.6371 -0.5895
   58SAPC   C22 4317   3.093   4.991  10.191 -0.2414 -0.1379  0.4600
   58SAPC   H2R 4318   3.083   5.101  10.179  1.2167  0.0183  0.4487
   58SAPC   H2S 4319   3.181   4.971  10.256  1.2704  0.0004 -1.4380
   58SAPC    C3 4320   2.796   5.066  10.508 -0.8512 -1.2258 -0.2064
   58SAPC    HX 4321   2.861   5.138  10.560 -1.5931 -2.9774  3.5063
   58SAPC    HY 4322   2.719   5.036  10.583 -1.9929  1.1692 -0.3430
   58SAPC   O31 4323   2.736   5.117  10.383 -0.1921  0.2811 -0.3917
   58SAPC   C31 4324   2.743   5.245  10.364 -0.3740  0.7855  0.9890
   58SAPC   O32 4325   2.806   5.330  10.425 -0.9105 -0.5231 -0.0236
   58SAPC   C32 4326   2.670   5.275  10.229 -0.0375 -0.5022  0.4356
   58SAPC   H2X 4327   2.708   5.378  10.210  0.0930 -0.8762 -1.6029
   58SAPC   H2Y 4328   2.560   5.263  10.238 -0.2212 -1.6539 -2.3520
   58SAPC   C23 4329   3.121   4.915  10.059  0.1035 -0.0507  0.3140
   58SAPC   H3R 4330   3.033   4.877  10.001  0.1732  0.9781 -0.4964
   58SAPC   H3S 4331   3.177   4.822  10.085  0.3162 -0.9261 -2.7767
   58SAPC   C24 4332   3.203   4.992   9.957  0.1941  0.3293 -0.0048
   58SAPC   H4R 4333   3.235   4.907   9.893 -2.4457 -1.7062  1.1576
   58SAPC   H4S 4334   3.299   5.022  10.003  2.1833 -3.5024 -1.2454
   58SAPC   C25 4335   3.138   5.105   9.885  0.4402 -0.0033 -1.1057
   58SAPC   H5R 4336   3.130   5.188   9.956 -1.5371 -2.8376  2.3191
   58SAPC   C26 4337   3.104   5.118   9.756  0.5216 -0.2075  0.2639
   58SAPC   H6R 4338   3.055   5.210   9.721 -0.2486 -0.5143  0.5003
   58SAPC   C27 4339   3.121   5.022   9.638 -0.0080  0.2227  0.1077
   58SAPC   H7R 4340   3.021   4.981   9.612 -0.1318  0.2949  0.4738
   58SAPC   H7S 4341   3.170   4.934   9.684  1.1567 -0.1826 -1.8044
   58SAPC   C28 4342   3.204   5.066   9.519  0.0350  0.0401  0.3174
   58SAPC   H8R 4343   3.300   5.109   9.551  1.5446 -2.1753 -0.9603
   58SAPC   C29 4344   3.172   5.066   9.390  0.0110 -0.2611  0.2096
   58SAPC   H9R 4345   3.247   5.102   9.318 -0.0505  0.3199  0.4325
   58SAPC  C210 4346   3.044   5.014   9.332 -0.0634 -0.3292 -0.3980
   58SAPC  H10R 4347   2.954   5.006   9.396 -1.7719 -0.1291 -2.6490
   58SAPC  H10S 4348   3.062   4.908   9.305 -2.6665 -1.0232  0.3684
   58SAPC  C211 4349   3.022   5.075   9.195 -0.2406 -0.2032 -0.1993
   58SAPC  H11R 4350   2.950   5.157   9.181 -1.0006 -0.3561  2.2977
   58SAPC  C212 4351   3.074   5.026   9.080 -0.4755 -0.4152 -0.1441
   58SAPC  H12R 4352   3.056   5.082   8.987 -1.9320  2.0045  1.4825
   58SAPC  C213 4353   3.151   4.900   9.059 -0.0022  0.3848  0.0383
   58SAPC  H13R 4354   3.084   4.822   9.017 -0.0045  0.2681  0.2534
   58SAPC  H13S 4355   3.193   4.851   9.150 -1.7550 -0.9093  0.2153
   58SAPC  C214 4356   3.266   4.914   8.959  0.4989  0.2627 -0.2497
   58SAPC  H14R 4357   3.331   5.002   8.971  0.5586 -0.0730  2.5641
   58SAPC  C215 4358   3.272   4.848   8.839 -0.3373  0.1901 -0.9891
   58SAPC  H15R 4359   3.357   4.876   8.776  0.2050 -1.3555 -0.9855
   58SAPC  C216 4360   3.174   4.746   8.783  0.0928  0.4792 -0.4480
   58SAPC  H16R 4361   3.141   4.676   8.862 -1.3594  1.1519 -0.4251
   58SAPC  H16S 4362   3.224   4.687   8.704 -1.1326 -1.4261  0.1197
   58SAPC  C217 4363   3.054   4.819   8.715 -0.4248  1.0178  0.4444
   58SAPC  H17R 4364   3.017   4.899   8.783  1.3737  1.6226  0.7498
   58SAPC  H17S 4365   2.969   4.747   8.715 -0.7132  1.3142 -1.4285
   58SAPC  C218 4366   3.085   4.881   8.582 -0.0900 -0.3298 -0.0870
   58SAPC  H18R 4367   3.158   4.818   8.526  1.3797  2.3332 -1.3774
   58SAPC  H18S 4368   3.132   4.980   8.603 -1.6243  0.7930 -1.6388
   58SAPC  C219 4369   2.963   4.930   8.493  0.6267 -0.2276 -0.0610
   58SAPC  H19R 4370   2.997   4.998   8.411  0.0854 -1.0370 -0.9857
   58SAPC  H19S 4371   2.891   4.986   8.556  0.5253 -0.0631 -0.3217
   58SAPC  C220 4372   2.872   4.823   8.439  0.9857 -0.3312 -0.0910
   58SAPC  H20R 4373   2.770   4.865   8.427  0.9832  0.6661  2.6462
   58SAPC  H20S 4374   2.859   4.743   8.515  1.3887 -2.4468 -2.1497
   58SAPC  H20T 4375   2.904   4.777   8.343 -0.5876  0.9894 -1.2870
   58SAPC   C33 4376   2.728   5.185  10.116  0.1014 -0.3387  0.6741
   58SAPC   H3X 4377   2.716   5.077  10.140  3.0321 -0.5497  1.5755
   58SAPC   H3Y 4378   2.839   5.191  10.109 -0.0400  0.7806 -3.0471
   58SAPC   C34 4379   2.664   5.217   9.981 -0.2368  0.0573 -0.3597
   58SAPC   H4X 4380   2.668   5.327   9.967  0.6411  0.1207  0.3288
   58SAPC   H4Y 4381   2.557   5.186   9.991 -0.3811  0.3585 -0.9298
   58SAPC   C35 4382   2.737   5.154   9.861  0.3285  0.5870  0.3965
   58SAPC   H5X 4383   2.779   5.056   9.893  0.2951  0.9685  1.6375
   58SAPC   H5Y 4384   2.830   5.211   9.838  0.8189 -1.0490 -2.1254
   58SAPC   C36 4385   2.648   5.164   9.739 -1.0149 -0.2454  0.6592
   58SAPC   H6X 4386   2.621   5.271   9.734  1.1199  0.3443  0.9411
   58SAPC   H6Y 4387   2.557   5.102   9.757 -2.5202  2.2010  2.0816
   58SAPC   C37 4388   2.727   5.121   9.608 -0.4833  0.3140  0.9958
   58SAPC   H7X 4389   2.762   5.017   9.621 -0.6826 -0.0322 -0.8903
   58SAPC   H7Y 4390   2.823   5.177   9.602  0.6406 -1.1291  3.8543
   58SAPC   C38 4391   2.647   5.110   9.481  0.6205  0.4602  0.0223
   58SAPC   H8X 4392   2.552   5.066   9.516  1.0498 -0.5671 -0.0548
   58SAPC   H8Y 4393   2.692   5.052   9.397 -0.3271  0.3139 -0.3918
   58SAPC   C39 4394   2.626   5.252   9.424 -0.2631  0.1752  0.1937
   58SAPC   H9X 4395   2.719   5.311   9.411  1.0510 -1.0639  3.1732
   58SAPC   H9Y 4396   2.563   5.311   9.494  0.2947 -0.1811  1.0168
   58SAPC  C310 4397   2.559   5.243   9.290 -0.5171  1.0163  0.6060
   58SAPC  H10X 4398   2.490   5.156   9.280 -0.3191  0.9998 -0.8169
   58SAPC  H10Y 4399   2.640   5.227   9.216 -1.9637  1.0242 -1.0427
   58SAPC  C311 4400   2.463   5.358   9.271 -0.1844  0.1415 -0.3026
   58SAPC  H11X 4401   2.527   5.449   9.281 -0.1601  0.1311 -0.3626
   58SAPC  H11Y 4402   2.391   5.371   9.355  0.8079 -0.4350  0.6641
   58SAPC  C312 4403   2.396   5.346   9.134 -0.0959  0.3203 -0.0832
   58SAPC  H12X 4404   2.343   5.248   9.138  1.4877 -0.5722 -0.1789
   58SAPC  H12Y 4405   2.482   5.341   9.064  1.5664  1.9365  1.7457
   58SAPC  C313 4406   2.302   5.458   9.102  0.5027 -0.2965  0.6482
   58SAPC  H13X 4407   2.237   5.484   9.189  0.6630  0.7855  0.4649
   58SAPC  H13Y 4408   2.230   5.417   9.028  0.7444  2.1435 -1.0483
   58SAPC  C314 4409   2.363   5.586   9.050  0.0367 -0.1026 -0.0529
   58SAPC  H14X 4410   2.460   5.555   9.005 -0.3747 -1.4824 -0.0087
   58SAPC  H14Y 4411   2.385   5.659   9.132 -0.1955  3.5777 -2.9642
   58SAPC  C315 4412   2.279   5.656   8.943 -0.2524 -0.2337 -0.9677
   58SAPC  H15X 4413   2.199   5.709   8.998  0.1487 -0.5666 -0.0447
   58SAPC  H15Y 4414   2.232   5.587   8.869 -0.7018  0.3290 -1.2115
   58SAPC  C316 4415   2.359   5.775   8.878 -0.7914  0.4213 -0.3035
   58SAPC  H16X 4416   2.452   5.730   8.836  0.3160  0.5398  1.9011
   58SAPC  H16Y 4417   2.398   5.843   8.956 -0.5028 -0.9208  0.7482
   58SAPC  C317 4418   2.275   5.845   8.782 -0.0778 -0.2026  0.6472
   58SAPC  H17X 4419   2.180   5.870   8.834 -1.4605  1.5209 -2.4277
   58SAPC  H17Y 4420   2.240   5.778   8.700  1.9111  1.5021 -1.7400
   58SAPC  C318 4421   2.330   5.973   8.721  0.0725  0.4166 -0.3185
   58SAPC  H18X 4422   2.423   5.958   8.661 -0.2737 -1.0603 -0.5136
   58SAPC  H18Y 4423   2.349   6.046   8.802  0.6628 -0.0778  0.0011
   58SAPC  H18Z 4424   2.253   6.015   8.652 -0.4363 -0.5608 -0.3643
   59SAPC     N 4425   3.627   1.145  11.369 -0.2259 -0.1987 -0.2952
   59SAPC   C12 4426   3.719   1.104  11.252  0.0525  1.0559  0.7563
   59SAPC  H12A 4427   3.775   1.011  11.259 -1.7478  0.0040  2.1161
   59SAPC  H12B 4428   3.788   1.186  11.236  0.4834  1.0321  2.3354
   59SAPC   C13 4429   3.530   1.040  11.407 -0.6225 -0.2584 -0.1983
   59SAPC  H13A 4430   3.581   0.949  11.438 -0.1119 -0.2473 -0.9681
   59SAPC  H13B 4431   3.466   1.076  11.486 -0.8242 -0.6612 -0.1748
   59SAPC  H13C 4432   3.466   1.016  11.324 -0.1651  0.5836 -0.8073
   59SAPC   C14 4433   3.710   1.175  11.491  0.0628 -0.6485 -0.8079
   59SAPC  H14A 4434   3.633   1.215  11.555 -1.1560 -0.8412 -2.1026
   59SAPC  H14B 4435   3.762   1.093  11.539  1.8099  0.5516 -0.5670
   59SAPC  H14C 4436   3.787   1.247  11.469 -1.7362  1.8819  0.6957
   59SAPC   C15 4437   3.549   1.263  11.339 -0.0122 -0.6925 -0.6791
   59SAPC  H15A 4438   3.475   1.246  11.261 -2.2523  0.7202  0.9993
   59SAPC  H15B 4439   3.487   1.298  11.420  0.3268 -1.9125  0.1336
   59SAPC  H15C 4440   3.615   1.341  11.306 -1.2658  0.1633 -1.2517
   59SAPC   C11 4441   3.644   1.082  11.114  0.4299 -0.0883  0.0286
   59SAPC  H11A 4442   3.719   1.041  11.042  1.9617  1.4669  0.6476
   59SAPC  H11B 4443   3.604   1.180  11.080 -3.0040 -0.9715  1.1801
   59SAPC     P 4444   3.562   0.838  11.106 -0.3620  0.3848  0.2259
   59SAPC   O13 4445   3.691   0.808  11.168 -0.5410  1.1521 -0.3266
   59SAPC   O14 4446   3.449   0.770  11.167  0.4043 -0.1291  0.3123
   59SAPC   O12 4447   3.536   0.995  11.118 -0.3087 -0.3053  0.0039
   59SAPC   O11 4448   3.573   0.812  10.952 -0.4909 -0.1115  0.6501
   59SAPC    C1 4449   3.669   0.857  10.860 -0.5618  0.1307  0.3689
   59SAPC    HA 4450   3.659   0.968  10.857 -1.3391  0.2815  3.8362
   59SAPC    HB 4451   3.769   0.819  10.892 -1.8534 -2.9360  1.1159
   59SAPC    C2 4452   3.643   0.807  10.715 -0.7454 -0.6789 -0.1046
   59SAPC    HS 4453   3.718   0.862  10.654 -0.5350 -0.8851 -0.0327
   59SAPC   O21 4454   3.509   0.844  10.679  0.1137  0.2320  0.2363
   59SAPC   C21 4455   3.492   0.979  10.653 -0.7021 -0.1702 -0.4908
   59SAPC   O22 4456   3.582   1.061  10.657 -0.5816 -0.5477  0.1005
   59SAPC   C22 4457   3.357   1.017  10.601  0.0503  0.2611 -0.8626
   59SAPC   H2R 4458   3.295   0.926  10.609  0.7207 -0.2070 -0.9049
   59SAPC   H2S 4459   3.322   1.104  10.661  0.5872  0.1787 -0.4217
   59SAPC    C3 4460   3.655   0.654  10.711 -0.3105  0.3898 -0.4486
   59SAPC    HX 4461   3.584   0.617  10.789  0.6642 -0.4082  0.0831
   59SAPC    HY 4462   3.752   0.646  10.765  0.2320  3.4299 -0.8279
   59SAPC   O31 4463   3.666   0.590  10.588  0.1823 -0.2974 -0.2019
   59SAPC   C31 4464   3.552   0.542  10.536  0.1078  0.2308 -0.4250
   59SAPC   O32 4465   3.438   0.554  10.584  0.1929  0.2673  0.3576
   59SAPC   C32 4466   3.588   0.459  10.411 -0.6264 -0.6364 -0.7441
   59SAPC   H2X 4467   3.544   0.358  10.425  3.5847 -2.4110  1.0593
   59SAPC   H2Y 4468   3.698   0.448  10.410 -0.5338 -0.0392  0.6219
   59SAPC   C23 4469   3.370   1.068  10.459  0.1992  0.1613  0.3363
   59SAPC   H3R 4470   3.435   1.001  10.398  1.3309  0.2939  1.3424
   59SAPC   H3S 4471   3.418   1.168  10.461  0.9600 -0.1630  3.2453
   59SAPC   C24 4472   3.232   1.077  10.393 -0.3335  0.0737  0.0403
   59SAPC   H4R 4473   3.183   0.979  10.416 -1.1835  0.2411 -0.9972
   59SAPC   H4S 4474   3.240   1.085  10.283 -2.3030 -0.1354 -0.1625
   59SAPC   C25 4475   3.163   1.200  10.447  0.2955 -0.5413 -0.2297
   59SAPC   H5R 4476   3.182   1.217  10.555  0.3682 -0.4151 -0.2614
   59SAPC   C26 4477   3.083   1.287  10.378 -0.0469 -0.7818  0.2107
   59SAPC   H6R 4478   3.041   1.369  10.438  0.0780  0.5146 -1.4329
   59SAPC   C27 4479   3.040   1.281  10.234 -0.1492  0.0648 -0.7175
   59SAPC   H7R 4480   2.932   1.304  10.232  0.2160  2.1925  1.0523
   59SAPC   H7S 4481   3.061   1.176  10.205 -0.9203 -1.0771  2.4499
   59SAPC   C28 4482   3.116   1.387  10.155  0.5650  1.3563  0.6845
   59SAPC   H8R 4483   3.123   1.487  10.201  3.0950 -0.2843  4.3235
   59SAPC   C29 4484   3.187   1.363  10.041 -0.4805 -0.5568  0.1184
   59SAPC   H9R 4485   3.231   1.448   9.988  3.4281 -1.2382  1.8580
   59SAPC  C210 4486   3.198   1.234   9.963 -0.1900  0.0674 -0.0814
   59SAPC  H10R 4487   3.192   1.138  10.020 -2.4197  0.5515  0.6004
   59SAPC  H10S 4488   3.292   1.223   9.906  0.7053  0.1004  1.3416
   59SAPC  C211 4489   3.084   1.225   9.865 -0.9106  0.0586 -0.9055
   59SAPC  H11R 4490   2.988   1.205   9.915 -0.4873 -0.7245 -0.3724
   59SAPC  C212 4491   3.084   1.239   9.733 -0.3527  0.4582 -0.4225
   59SAPC  H12R 4492   2.984   1.224   9.688 -0.2041 -0.5461 -0.4428
   59SAPC  C213 4493   3.205   1.275   9.644  0.0949 -0.3193 -0.5835
   59SAPC  H13R 4494   3.245   1.182   9.597 -1.3993  0.4355 -3.6365
   59SAPC  H13S 4495   3.291   1.316   9.700  0.1410 -0.3096 -0.6619
   59SAPC  C214 4496   3.177   1.373   9.534 -0.4425 -0.3630 -0.4063
   59SAPC  H14R 4497   3.189   1.480   9.560  0.2571 -0.5192 -0.0628
   59SAPC  C215 4498   3.149   1.348   9.407 -0.5530  0.5040 -0.7838
   59SAPC  H15R 4499   3.121   1.425   9.333 -2.0363  2.1666  1.4063
   59SAPC  C216 4500   3.140   1.220   9.332  0.8377  0.5751 -0.0746
   59SAPC  H16R 4501   3.040   1.219   9.283  0.9007 -0.7616 -0.2199
   59SAPC  H16S 4502   3.141   1.124   9.387  0.2769  0.8027  0.3496
   59SAPC  C217 4503   3.248   1.211   9.224 -0.6092  0.9157  0.5531
   59SAPC  H17R 4504   3.269   1.103   9.207  3.1128  1.4354  1.1369
   59SAPC  H17S 4505   3.343   1.250   9.265 -0.4784 -0.5587  1.7399
   59SAPC  C218 4506   3.205   1.286   9.097  0.3694 -0.1306  1.2552
   59SAPC  H18R 4507   3.189   1.393   9.123  0.7869 -0.3812  2.6684
   59SAPC  H18S 4508   3.105   1.250   9.065  1.1111 -1.7438  0.6571
   59SAPC  C219 4509   3.301   1.263   8.984  0.1869  0.3126  0.4558
   59SAPC  H19R 4510   3.307   1.152   8.976  1.1394  0.1204  2.8846
   59SAPC  H19S 4511   3.397   1.310   9.015  2.2663 -2.2845 -1.5289
   59SAPC  C220 4512   3.248   1.323   8.850 -0.0601 -0.3746 -0.3528
   59SAPC  H20R 4513   3.301   1.282   8.761  0.0862 -0.9399 -0.0111
   59SAPC  H20S 4514   3.267   1.432   8.846  0.4803 -0.4689 -0.4169
   59SAPC  H20T 4515   3.143   1.294   8.831 -0.1706  0.6174 -1.4290
   59SAPC   C33 4516   3.538   0.518  10.277  0.3618 -0.3150  0.0129
   59SAPC   H3X 4517   3.594   0.459  10.201 -0.9014 -2.2523  0.4858
   59SAPC   H3Y 4518   3.557   0.627  10.283 -1.8031  0.2352 -1.6482
   59SAPC   C34 4519   3.388   0.500  10.241 -0.5659 -0.7248 -0.1988
   59SAPC   H4X 4520   3.318   0.455  10.316 -0.1797 -0.5293  0.2820
   59SAPC   H4Y 4521   3.386   0.424  10.160 -0.3940 -0.8863 -0.0546
   59SAPC   C35 4522   3.331   0.639  10.201 -0.0923  0.1849  0.1068
   59SAPC   H5X 4523   3.386   0.721  10.254  2.2609 -1.2433  0.0306
   59SAPC   H5Y 4524   3.223   0.653  10.222 -0.6260 -3.0449 -0.1236
   59SAPC   C36 4525   3.347   0.680  10.058  0.1876 -0.2931  0.7841
   59SAPC   H6X 4526   3.282   0.619   9.992  0.2036  1.1212 -0.6163
   59SAPC   H6Y 4527   3.451   0.668  10.021 -0.2745 -1.7977 -0.1078
   59SAPC   C37 4528   3.318   0.831  10.030  0.3722 -0.3455 -0.4730
   59SAPC   H7X 4529   3.379   0.889  10.103  1.0505  1.1063 -2.1196
   59SAPC   H7Y 4530   3.211   0.857  10.043  0.0401 -1.3248 -1.1364
   59SAPC   C38 4531   3.370   0.853   9.883  0.6312 -0.6713 -0.2598
   59SAPC   H8X 4532   3.475   0.818   9.866  1.0899  1.2854 -1.7698
   59SAPC   H8Y 4533   3.361   0.962   9.867 -0.4105 -0.6209  0.5729
   59SAPC   C39 4534   3.277   0.783   9.783  0.2902 -0.6773 -0.1696
   59SAPC   H9X 4535   3.174   0.811   9.814  0.1746 -0.8887 -0.3604
   59SAPC   H9Y 4536   3.283   0.672   9.793  0.1431 -0.6678  0.0324
   59SAPC  C310 4537   3.307   0.816   9.634 -0.0088 -0.2302 -0.3977
   59SAPC  H10X 4538   3.414   0.786   9.623  0.0871 -2.8234  4.5208
   59SAPC  H10Y 4539   3.299   0.925   9.618 -0.2281 -0.1021  0.4967
   59SAPC  C311 4540   3.214   0.739   9.541 -0.6637  0.1998  0.2598
   59SAPC  H11X 4541   3.111   0.779   9.552 -0.8251  0.2607 -1.2823
   59SAPC  H11Y 4542   3.213   0.632   9.572 -0.3959 -0.1898 -1.0494
   59SAPC  C312 4543   3.237   0.762   9.393  0.0813  0.6118  0.1077
   59SAPC  H12X 4544   3.341   0.725   9.377  0.8753  1.2775  3.2100
   59SAPC  H12Y 4545   3.230   0.869   9.366  1.3885  1.5294  3.0294
   59SAPC  C313 4546   3.135   0.702   9.292 -0.1460  0.1264  0.2368
   59SAPC  H13X 4547   3.035   0.740   9.320 -0.0852 -0.7923  1.8016
   59SAPC  H13Y 4548   3.126   0.592   9.303 -0.6685  0.0872 -0.5098
   59SAPC  C314 4549   3.173   0.731   9.145  0.2216 -0.1119 -0.0707
   59SAPC  H14X 4550   3.273   0.686   9.125  0.7630  0.3841  1.3677
   59SAPC  H14Y 4551   3.190   0.840   9.137  0.9110  0.0512  2.4943
   59SAPC  C315 4552   3.074   0.671   9.047 -0.0301 -0.3088 -0.4006
   59SAPC  H15X 4553   2.970   0.676   9.085  0.0216  0.1350 -0.3036
   59SAPC  H15Y 4554   3.117   0.575   9.012 -0.5163 -0.0387 -1.8095
   59SAPC  C316 4555   3.063   0.748   8.913 -0.9216 -0.1083 -0.7162
   59SAPC  H16X 4556   3.015   0.843   8.946  0.3135  0.1568  0.4213
   59SAPC  H16Y 4557   2.989   0.696   8.849 -1.8545 -0.7410  0.8230
   59SAPC  C317 4558   3.195   0.771   8.843 -0.2835  0.4117 -0.3873
   59SAPC  H17X 4559   3.236   0.669   8.832 -0.2476  0.1327  1.7729
   59SAPC  H17Y 4560   3.264   0.821   8.915 -0.4912 -0.9078  0.7770
   59SAPC  C318 4561   3.190   0.834   8.706 -0.0393  0.5062 -0.8680
   59SAPC  H18X 4562   3.290   0.868   8.670  0.4010 -1.7229 -1.8651
   59SAPC  H18Y 4563   3.139   0.932   8.722 -1.3553 -0.1805 -0.7207
   59SAPC  H18Z 4564   3.140   0.784   8.622 -0.7728  2.0238 -1.3734
   60SAPC     N 4565   2.734   4.023  10.985 -0.4169 -0.2731  0.1270
   60SAPC   C12 4566   2.841   4.130  10.977  0.1618  0.4716 -0.1838
   60SAPC  H12A 4567   2.919   4.077  10.924  0.8212 -0.9690  2.0814
   60SAPC  H12B 4568   2.892   4.147  11.071  1.9313  0.0192 -1.0248
   60SAPC   C13 4569   2.785   3.885  11.021 -0.7447  0.3217  0.6408
   60SAPC  H13A 4570   2.698   3.826  11.046  1.2809 -3.9377 -1.1468
   60SAPC  H13B 4571   2.832   3.843  10.933  1.8238  4.6871 -0.3398
   60SAPC  H13C 4572   2.866   3.879  11.092 -0.8110  1.3259  0.8073
   60SAPC   C14 4573   2.634   4.056  11.091  0.6581 -0.1968 -0.0589
   60SAPC  H14A 4574   2.536   4.024  11.058  0.2197 -1.1173  2.0184
   60SAPC  H14B 4575   2.650   4.014  11.189 -0.2787  0.7939  0.5417
   60SAPC  H14C 4576   2.640   4.163  11.102  2.0905  0.1260 -2.9055
   60SAPC   C15 4577   2.662   4.008  10.854  0.4413 -0.1632  0.7898
   60SAPC  H15A 4578   2.594   4.090  10.842 -0.0172 -0.7930 -1.2854
   60SAPC  H15B 4579   2.721   4.018  10.764 -2.1060 -3.2968 -1.4429
   60SAPC  H15C 4580   2.601   3.919  10.849  1.9773 -1.1882 -2.3472
   60SAPC   C11 4581   2.797   4.272  10.929 -0.0833  0.2656 -0.5296
   60SAPC  H11A 4582   2.775   4.260  10.821 -2.0598 -1.0314 -0.0473
   60SAPC  H11B 4583   2.880   4.344  10.945 -0.6375  0.7279  0.3585
   60SAPC     P 4584   2.558   4.374  10.933  0.0895 -0.1082 -0.2268
   60SAPC   O13 4585   2.505   4.271  10.837  0.1164 -0.3138  0.5639
   60SAPC   O14 4586   2.460   4.421  11.039  0.3898  0.1472  0.0822
   60SAPC   O12 4587   2.679   4.313  10.997 -0.2583 -0.1708  0.0048
   60SAPC   O11 4588   2.617   4.493  10.846 -0.3437 -0.0162 -0.5260
   60SAPC    C1 4589   2.541   4.589  10.766 -0.0131 -0.3860  0.1058
   60SAPC    HA 4590   2.435   4.555  10.767  0.5988 -2.4091  1.0937
   60SAPC    HB 4591   2.557   4.691  10.808  0.3569 -0.3945 -0.0150
   60SAPC    C2 4592   2.596   4.584  10.623  0.2683 -0.9494 -0.5381
   60SAPC    HS 4593   2.695   4.634  10.620  0.2753 -1.0240 -2.1977
   60SAPC   O21 4594   2.508   4.657  10.530 -0.5267 -0.5880  0.3588
   60SAPC   C21 4595   2.509   4.791  10.550  0.3984  0.2297  0.7948
   60SAPC   O22 4596   2.579   4.855  10.623  0.6883 -0.0183 -0.4106
   60SAPC   C22 4597   2.400   4.851  10.467 -0.4191 -0.2235 -0.1344
   60SAPC   H2R 4598   2.308   4.789  10.466 -0.9059  0.3745 -3.2942
   60SAPC   H2S 4599   2.375   4.951  10.509  0.6139  0.2768 -0.6727
   60SAPC    C3 4600   2.610   4.436  10.582  0.4484  0.1480  0.1144
   60SAPC    HX 4601   2.509   4.394  10.600 -0.0006  1.8120  1.8061
   60SAPC    HY 4602   2.690   4.385  10.640  0.9126 -1.9318 -2.2201
   60SAPC   O31 4603   2.637   4.424  10.437  0.2592  0.5909 -0.2764
   60SAPC   C31 4604   2.744   4.482  10.397 -0.6217  0.3407  0.2622
   60SAPC   O32 4605   2.836   4.520  10.458  0.1967 -0.5202  0.1345
   60SAPC   C32 4606   2.727   4.509  10.247  0.6720  0.4329  0.7859
   60SAPC   H2X 4607   2.689   4.613  10.238 -0.9492 -0.1192  0.8574
   60SAPC   H2Y 4608   2.646   4.439  10.218  0.0894  0.4247  2.3274
   60SAPC   C23 4609   2.459   4.884  10.335  0.0737  0.2722  0.3523
   60SAPC   H3R 4610   2.497   4.790  10.289  1.7878  1.7204 -1.2927
   60SAPC   H3S 4611   2.542   4.957  10.345  1.9791 -1.2726 -2.7605
   60SAPC   C24 4612   2.363   4.951  10.234 -0.1463  0.4068  0.3929
   60SAPC   H4R 4613   2.267   4.904  10.263 -0.4348  1.2853  0.8862
   60SAPC   H4S 4614   2.393   4.933  10.128 -0.3647  2.2069 -0.0111
   60SAPC   C25 4615   2.345   5.098  10.256  0.9041 -0.3540  0.8165
   60SAPC   H5R 4616   2.359   5.124  10.362 -3.2134  1.6402  1.0818
   60SAPC   C26 4617   2.298   5.186  10.161  0.4161 -1.1559 -0.1246
   60SAPC   H6R 4618   2.285   5.290  10.193  0.0028 -1.3356  0.3050
   60SAPC   C27 4619   2.253   5.161  10.017  0.1139  0.1574 -0.1957
   60SAPC   H7R 4620   2.143   5.181  10.020  0.2431  0.8305  0.4604
   60SAPC   H7S 4621   2.270   5.059   9.977 -0.2148  0.5525 -1.3874
   60SAPC   C28 4622   2.309   5.262   9.916  0.6587  0.2322 -0.2308
   60SAPC   H8R 4623   2.371   5.342   9.960  1.3240 -1.8137  2.8910
   60SAPC   C29 4624   2.314   5.238   9.783  1.0531  0.6706 -0.5070
   60SAPC   H9R 4625   2.364   5.301   9.707  4.7155 -2.6612 -1.1206
   60SAPC  C210 4626   2.255   5.114   9.722  0.5301  0.0515  0.3088
   60SAPC  H10R 4627   2.272   5.022   9.782 -0.2221  1.1566  2.2888
   60SAPC  H10S 4628   2.298   5.088   9.622 -2.4975 -0.1809 -1.0329
   60SAPC  C211 4629   2.106   5.105   9.711 -0.7008 -0.3430 -0.5514
   60SAPC  H11R 4630   2.065   5.042   9.791  1.1631 -2.4924 -1.2077
   60SAPC  C212 4631   2.028   5.176   9.626 -0.2174  0.5606 -0.1064
   60SAPC  H12R 4632   1.921   5.154   9.625  0.3476 -3.1326  1.9333
   60SAPC  C213 4633   2.080   5.265   9.516 -0.3588  0.2423 -0.3514
   60SAPC  H13R 4634   2.155   5.334   9.561 -1.3196  0.8451  0.3868
   60SAPC  H13S 4635   2.001   5.336   9.485 -0.3574  0.2115 -0.4230
   60SAPC  C214 4636   2.131   5.198   9.392 -0.4024  0.1008 -0.4291
   60SAPC  H14R 4637   2.233   5.160   9.400 -0.3303  0.2270 -0.7388
   60SAPC  C215 4638   2.078   5.192   9.267  0.0018 -0.3807  0.0538
   60SAPC  H15R 4639   2.152   5.152   9.196  0.8235 -1.3372  1.3920
   60SAPC  C216 4640   1.952   5.250   9.210 -0.0317 -0.1177 -0.0820
   60SAPC  H16R 4641   1.875   5.271   9.287 -1.7340  0.7290 -1.9162
   60SAPC  H16S 4642   1.901   5.170   9.153  0.7737  1.0103 -2.5363
   60SAPC  C217 4643   1.976   5.381   9.128 -0.1783  0.9856  0.1662
   60SAPC  H17R 4644   2.050   5.370   9.046 -0.1987 -1.8366  0.4285
   60SAPC  H17S 4645   2.016   5.458   9.198  0.5726 -0.3267  1.2289
   60SAPC  C218 4646   1.841   5.436   9.070  0.2146 -0.0453 -0.6314
   60SAPC  H18R 4647   1.780   5.478   9.153 -0.7029  2.5247 -2.4670
   60SAPC  H18S 4648   1.763   5.370   9.026 -2.4573  1.8478  0.9589
   60SAPC  C219 4649   1.848   5.562   8.982  0.1912  0.5722  0.8440
   60SAPC  H19R 4650   1.894   5.538   8.884  1.0907  0.7863  1.2029
   60SAPC  H19S 4651   1.926   5.626   9.028  0.1888  0.6608  0.7256
   60SAPC  C220 4652   1.723   5.650   8.965 -0.1693  0.1291  0.1771
   60SAPC  H20R 4653   1.669   5.668   9.060  0.0984 -0.2811  0.4112
   60SAPC  H20S 4654   1.657   5.584   8.904  1.2364 -0.2041 -1.0320
   60SAPC  H20T 4655   1.750   5.741   8.908 -1.0783  0.6279  0.5202
   60SAPC   C33 4656   2.850   4.494  10.161 -0.1245  0.7226 -0.0889
   60SAPC   H3X 4657   2.906   4.401  10.185 -1.7488  0.0232  1.1236
   60SAPC   H3Y 4658   2.917   4.571  10.205 -1.4099  1.7991  0.0569
   60SAPC   C34 4659   2.829   4.511  10.011 -0.6868  0.1108  0.3111
   60SAPC   H4X 4660   2.772   4.428   9.963  1.8776 -1.1728 -0.6699
   60SAPC   H4Y 4661   2.930   4.512   9.967  2.2012 -1.9552  5.8910
   60SAPC   C35 4662   2.751   4.645   9.973  0.5379  0.0958 -0.2559
   60SAPC   H5X 4663   2.766   4.724  10.049 -1.9891  2.8123 -2.3559
   60SAPC   H5Y 4664   2.642   4.629   9.987  0.7153  0.8323  2.4500
   60SAPC   C36 4665   2.770   4.695   9.831  0.4969  0.6606 -0.2485
   60SAPC   H6X 4666   2.875   4.721   9.806  1.5691  1.1090  4.0088
   60SAPC   H6Y 4667   2.706   4.783   9.809  0.1044  0.8591  1.5428
   60SAPC   C37 4668   2.754   4.584   9.719  0.8133  0.2146 -0.0841
   60SAPC   H7X 4669   2.653   4.538   9.721  1.3788 -1.1082 -0.6481
   60SAPC   H7Y 4670   2.830   4.503   9.719  0.2929 -0.3076 -1.4007
   60SAPC   C38 4671   2.779   4.641   9.574 -0.1084 -0.0057 -1.1017
   60SAPC   H8X 4672   2.886   4.621   9.555  0.5323 -1.4577  3.1411
   60SAPC   H8Y 4673   2.764   4.751   9.565 -0.1690 -0.0725 -1.9563
   60SAPC   C39 4674   2.700   4.568   9.469  0.2118 -0.5268 -0.0504
   60SAPC   H9X 4675   2.590   4.572   9.487 -0.4405  1.0321 -3.5038
   60SAPC   H9Y 4676   2.722   4.460   9.484 -2.8740 -1.2927 -0.2066
   60SAPC  C310 4677   2.728   4.617   9.324  0.7621 -0.1083  0.5762
   60SAPC  H10X 4678   2.692   4.549   9.244 -0.3666  0.5732  0.4856
   60SAPC  H10Y 4679   2.838   4.616   9.312  0.6244 -0.7732 -0.9264
   60SAPC  C311 4680   2.679   4.756   9.292  0.0691  0.2262  0.1921
   60SAPC  H11X 4681   2.693   4.829   9.374 -4.9536  0.8902  0.7978
   60SAPC  H11Y 4682   2.570   4.738   9.275  0.5528 -0.1122 -3.4811
   60SAPC  C312 4683   2.744   4.809   9.166 -0.5903  0.8892 -0.6068
   60SAPC  H12X 4684   2.752   4.729   9.089 -1.7187 -2.4954  2.5243
   60SAPC  H12Y 4685   2.850   4.830   9.193  0.2984 -1.4980 -1.9310
   60SAPC  C313 4686   2.675   4.938   9.121  0.4414  0.1093  0.8418
   60SAPC  H13X 4687   2.703   5.033   9.170 -2.3969  0.4879  1.9592
   60SAPC  H13Y 4688   2.566   4.915   9.125  0.6640 -1.5643 -1.0836
   60SAPC  C314 4689   2.698   4.961   8.967 -0.4511 -0.1001 -0.6072
   60SAPC  H14X 4690   2.658   4.873   8.913 -1.3514  0.4065 -0.7780
   60SAPC  H14Y 4691   2.809   4.969   8.957 -0.5523  4.8716 -0.3678
   60SAPC  C315 4692   2.640   5.093   8.917 -0.0831 -0.6034 -0.3769
   60SAPC  H15X 4693   2.607   5.163   8.998 -3.0314 -0.6080 -1.4338
   60SAPC  H15Y 4694   2.543   5.065   8.872  0.4313 -1.1276 -1.1683
   60SAPC  C316 4695   2.741   5.161   8.824 -0.3462  0.2529  0.2974
   60SAPC  H16X 4696   2.794   5.081   8.768  0.2002  0.2773  0.7721
   60SAPC  H16Y 4697   2.816   5.215   8.886  1.4498 -1.8691  0.0862
   60SAPC  C317 4698   2.669   5.272   8.743 -0.3734 -0.1640  0.0138
   60SAPC  H17X 4699   2.581   5.226   8.694  0.0360  0.4277 -1.3242
   60SAPC  H17Y 4700   2.747   5.298   8.669  0.4282  1.2228  1.2896
   60SAPC  C318 4701   2.617   5.403   8.822  0.1374  0.0813  0.4732
   60SAPC  H18X 4702   2.635   5.491   8.757  0.5778 -1.1174 -1.1040
   60SAPC  H18Y 4703   2.673   5.425   8.915 -2.6121 -0.4458  2.3731
   60SAPC  H18Z 4704   2.510   5.382   8.845 -0.2008  1.9477  0.7875
   61SAPC     N 4705   0.302   2.415  11.311 -1.2725  0.1036 -0.2379
   61SAPC   C12 4706   0.224   2.338  11.207 -0.3641 -0.5954  0.6164
   61SAPC  H12A 4707   0.182   2.405  11.133 -0.1667 -0.3166  0.7586
   61SAPC  H12B 4708   0.145   2.278  11.250  0.9290 -2.3953  0.5995
   61SAPC   C13 4709   0.413   2.497  11.247 -0.3054 -0.4025  0.5727
   61SAPC  H13A 4710   0.495   2.429  11.228 -0.8171 -0.9981  0.4391
   61SAPC  H13B 4711   0.369   2.549  11.163 -1.1071 -2.1093 -0.1168
   61SAPC  H13C 4712   0.456   2.567  11.317 -2.1525  0.6368  0.7289
   61SAPC   C14 4713   0.204   2.507  11.375  0.0126  0.5221  0.1523
   61SAPC  H14A 4714   0.250   2.583  11.438  1.4332 -0.4438  0.3324
   61SAPC  H14B 4715   0.149   2.566  11.304  0.0516 -0.3841 -0.6418
   61SAPC  H14C 4716   0.130   2.452  11.432  0.7763  0.0498  0.7210
   61SAPC   C15 4717   0.361   2.326  11.417  0.2061 -0.6498 -0.6600
   61SAPC  H15A 4718   0.402   2.381  11.501 -1.0625 -0.6234 -0.0306
   61SAPC  H15B 4719   0.291   2.266  11.473  1.6305  0.4892  2.6194
   61SAPC  H15C 4720   0.434   2.257  11.379 -0.8494 -2.7184  0.8542
   61SAPC   C11 4721   0.308   2.225  11.135 -0.2294  0.4031 -0.7602
   61SAPC  H11A 4722   0.360   2.170  11.217  1.7752  2.2743 -0.6687
   61SAPC  H11B 4723   0.385   2.266  11.067 -0.2047  1.4365 -0.1397
   61SAPC     P 4724   0.223   1.999  11.024  0.0249 -0.1423 -0.2643
   61SAPC   O13 4725   0.281   1.910  11.126  0.7466 -0.5610  0.1025
   61SAPC   O14 4726   0.087   1.964  10.967 -0.1546  0.0190 -0.7119
   61SAPC   O12 4727   0.204   2.147  11.075 -0.4984  0.1706  0.2426
   61SAPC   O11 4728   0.332   2.021  10.912  0.2159 -0.1184  0.4600
   61SAPC    C1 4729   0.304   2.121  10.806  0.6843  0.3219 -0.2963
   61SAPC    HA 4730   0.219   2.186  10.838  0.2495 -1.5603  2.7974
   61SAPC    HB 4731   0.386   2.196  10.803  1.9426 -0.9277  1.0449
   61SAPC    C2 4732   0.278   2.052  10.672 -0.7160 -0.8963  0.4080
   61SAPC    HS 4733   0.194   1.982  10.691 -0.5212 -1.8332 -1.8637
   61SAPC   O21 4734   0.402   1.983  10.637  0.0514  0.5691 -0.5530
   61SAPC   C21 4735   0.385   1.873  10.565 -0.2361  0.3663 -0.2794
   61SAPC   O22 4736   0.280   1.846  10.508  0.0169  0.6115  0.6000
   61SAPC   C22 4737   0.512   1.791  10.570 -0.4390  0.0677  0.5314
   61SAPC   H2R 4738   0.582   1.832  10.647  1.6973 -4.1832  1.1278
   61SAPC   H2S 4739   0.488   1.686  10.597 -0.1396  0.2184  1.4354
   61SAPC    C3 4740   0.253   2.158  10.558  0.2626  0.0963 -0.7210
   61SAPC    HX 4741   0.332   2.235  10.570  0.9137 -0.9365  2.8596
   61SAPC    HY 4742   0.152   2.198  10.582 -0.4727 -3.2602  2.7071
   61SAPC   O31 4743   0.251   2.114  10.429 -0.2036  0.4764  0.7559
   61SAPC   C31 4744   0.138   2.075  10.366 -0.1804 -0.1055  0.1768
   61SAPC   O32 4745   0.024   2.069  10.412 -0.1629  0.5292  0.4784
   61SAPC   C32 4746   0.171   2.042  10.221  0.4064 -0.7062  0.5794
   61SAPC   H2X 4747   0.166   1.931  10.221  0.6201 -0.7198  0.0066
   61SAPC   H2Y 4748   0.274   2.076  10.197 -0.0804 -0.1184 -0.7852
   61SAPC   C23 4749   0.584   1.786  10.433  0.0866 -0.3870 -0.3632
   61SAPC   H3R 4750   0.603   1.893  10.410  1.7320 -0.5407  0.1751
   61SAPC   H3S 4751   0.522   1.744  10.351 -1.3197  0.2159  0.3480
   61SAPC   C24 4752   0.713   1.713  10.455  0.4304  0.4476  0.4387
   61SAPC   H4R 4753   0.683   1.608  10.473  1.9288  0.2073  1.7611
   61SAPC   H4S 4754   0.753   1.747  10.553 -0.4297  0.6968  0.7103
   61SAPC   C25 4755   0.816   1.734  10.344  0.4737 -0.2453 -0.3779
   61SAPC   H5R 4756   0.867   1.831  10.346 -1.7045  1.0049 -1.3674
   61SAPC   C26 4757   0.850   1.651  10.244  0.3723 -1.0413  0.2028
   61SAPC   H6R 4758   0.926   1.688  10.173  0.8427 -0.1854  1.1381
   61SAPC   C27 4759   0.799   1.510  10.221 -0.2210  0.3457 -0.2379
   61SAPC   H7R 4760   0.749   1.474  10.313 -0.5197 -0.9106 -0.8693
   61SAPC   H7S 4761   0.880   1.435  10.216  0.8023  1.3317  1.0372
   61SAPC   C28 4762   0.703   1.500  10.103 -0.6566 -1.2660 -0.5662
   61SAPC   H8R 4763   0.595   1.518  10.111 -0.8572 -2.1037 -1.2753
   61SAPC   C29 4764   0.733   1.465   9.971  0.8174  0.5981 -0.3349
   61SAPC   H9R 4765   0.655   1.464   9.894 -0.9141 -2.2241  1.2867
   61SAPC  C210 4766   0.870   1.422   9.920  0.1671 -0.0232  0.1120
   61SAPC  H10R 4767   0.951   1.449   9.991  1.4590 -0.8391 -1.0044
   61SAPC  H10S 4768   0.899   1.485   9.834 -0.0569  2.8998  2.0491
   61SAPC  C211 4769   0.880   1.273   9.896 -0.0529  0.0412  0.2001
   61SAPC  H11R 4770   0.890   1.207   9.984 -0.9618 -1.9531 -1.1244
   61SAPC  C212 4771   0.873   1.209   9.775 -0.2907 -0.6028  0.5302
   61SAPC  H12R 4772   0.886   1.100   9.772 -2.6412 -0.9431  1.0255
   61SAPC  C213 4773   0.857   1.255   9.637 -0.0359 -0.2730 -0.4870
   61SAPC  H13R 4774   0.915   1.196   9.563  1.7403  0.0284  0.6052
   61SAPC  H13S 4775   0.886   1.362   9.634  5.8733 -1.5063  0.2288
   61SAPC  C214 4776   0.717   1.236   9.600  0.1011  0.2201  0.2250
   61SAPC  H14R 4777   0.645   1.243   9.683 -1.6808  2.2419 -1.3461
   61SAPC  C215 4778   0.673   1.205   9.478 -0.1487  0.4445 -0.2019
   61SAPC  H15R 4779   0.567   1.179   9.459  0.0006  0.1543 -0.6530
   61SAPC  C216 4780   0.757   1.178   9.349  0.8675 -0.1022 -0.6465
   61SAPC  H16R 4781   0.759   1.069   9.326 -0.0144  0.4388 -3.7291
   61SAPC  H16S 4782   0.864   1.207   9.355  1.3100 -1.6283 -0.6257
   61SAPC  C217 4783   0.695   1.245   9.233  0.8421 -0.5777 -0.1698
   61SAPC  H17R 4784   0.762   1.227   9.145  1.1113  1.4393 -0.4221
   61SAPC  H17S 4785   0.705   1.352   9.258 -0.2404 -0.0745 -1.7309
   61SAPC  C218 4786   0.550   1.199   9.188  0.0273  0.3653  0.2576
   61SAPC  H18R 4787   0.479   1.191   9.273 -1.2177 -1.0235 -0.8611
   61SAPC  H18S 4788   0.568   1.094   9.155 -0.5899  0.8845 -1.8769
   61SAPC  C219 4789   0.487   1.288   9.080 -0.5568 -0.5346  0.9623
   61SAPC  H19R 4790   0.472   1.390   9.122 -0.7127 -0.1807  0.0562
   61SAPC  H19S 4791   0.384   1.251   9.061  0.0388 -1.5195 -0.4988
   61SAPC  C220 4792   0.572   1.310   8.949  0.1304 -0.4371  0.0332
   61SAPC  H20R 4793   0.507   1.367   8.879  2.0117  0.1613 -1.2949
   61SAPC  H20S 4794   0.598   1.215   8.898 -0.1463 -0.5971  0.1850
   61SAPC  H20T 4795   0.672   1.350   8.974  1.0338 -2.3478 -0.3392
   61SAPC   C33 4796   0.067   2.112  10.121 -0.4055 -0.0292 -0.0623
   61SAPC   H3X 4797   0.035   2.212  10.157  1.9404  1.3499 -1.5324
   61SAPC   H3Y 4798  -0.025   2.051  10.131  0.4412 -1.1005  1.7400
   61SAPC   C34 4799   0.116   2.097   9.973 -0.1038 -0.0917  0.5713
   61SAPC   H4X 4800   0.030   2.107   9.905  0.8739 -0.4232 -0.7547
   61SAPC   H4Y 4801   0.165   1.999   9.954  0.2529 -0.0965  1.4497
   61SAPC   C35 4802   0.219   2.198   9.931 -0.6530  0.1323 -0.1304
   61SAPC   H5X 4803   0.296   2.198  10.011 -1.4679 -2.8456  0.7684
   61SAPC   H5Y 4804   0.184   2.303   9.938 -0.2258  0.3174 -0.6501
   61SAPC   C36 4805   0.291   2.167   9.804  0.1101 -0.1770 -0.1217
   61SAPC   H6X 4806   0.333   2.065   9.807 -1.6734 -0.9709 -0.5722
   61SAPC   H6Y 4807   0.374   2.240   9.804  0.0652 -0.0951  1.2587
   61SAPC   C37 4808   0.202   2.182   9.677 -0.5013 -0.0258  0.6534
   61SAPC   H7X 4809   0.118   2.110   9.687  0.5065 -1.1540  1.3429
   61SAPC   H7Y 4810   0.272   2.153   9.595 -1.1952 -1.7977  0.6289
   61SAPC   C38 4811   0.147   2.322   9.632 -1.2510  0.4106  0.1697
   61SAPC   H8X 4812   0.232   2.393   9.630 -0.2391 -0.7713 -1.4553
   61SAPC   H8Y 4813   0.069   2.363   9.700  0.7157  0.6502  2.4028
   61SAPC   C39 4814   0.094   2.319   9.487  0.2488 -0.3826  0.2506
   61SAPC   H9X 4815  -0.004   2.265   9.491  1.0820 -2.4383 -3.2366
   61SAPC   H9Y 4816   0.160   2.268   9.414 -1.4559  1.3131 -2.6432
   61SAPC  C310 4817   0.050   2.467   9.456  0.0124 -0.6767  0.3697
   61SAPC  H10X 4818   0.134   2.533   9.484 -0.1920 -0.5049  0.5860
   61SAPC  H10Y 4819  -0.028   2.501   9.527 -0.5991  2.3309 -1.5532
   61SAPC  C311 4820  -0.004   2.486   9.319  0.2554  0.1059  0.6601
   61SAPC  H11X 4821  -0.104   2.437   9.320  0.3708 -0.1277  1.0898
   61SAPC  H11Y 4822   0.055   2.430   9.243  3.3611  3.2467  0.5138
   61SAPC  C312 4823  -0.007   2.630   9.289  0.1293  0.1669  0.1744
   61SAPC  H12X 4824   0.082   2.690   9.318  0.1184  1.3527 -2.0335
   61SAPC  H12Y 4825  -0.103   2.661   9.334 -1.0264 -1.6361 -0.9274
   61SAPC  C313 4826  -0.021   2.643   9.137 -0.5452 -0.8673  0.3194
   61SAPC  H13X 4827  -0.107   2.597   9.083 -1.0603 -0.1959  0.5533
   61SAPC  H13Y 4828   0.077   2.609   9.098  0.0810  0.3333  0.8065
   61SAPC  C314 4829  -0.045   2.794   9.098 -0.2237 -0.3879  0.5380
   61SAPC  H14X 4830   0.055   2.836   9.116  0.5907 -0.7855 -2.4949
   61SAPC  H14Y 4831  -0.108   2.846   9.173  0.7122  0.4794  0.7366
   61SAPC  C315 4832  -0.099   2.818   8.960 -0.4509  0.1081  0.5984
   61SAPC  H15X 4833  -0.109   2.929   8.959  2.1794  0.4158  1.3989
   61SAPC  H15Y 4834  -0.200   2.775   8.946  0.7922 -2.0883 -3.0520
   61SAPC  C316 4835  -0.005   2.768   8.850 -0.6456 -0.0383  0.2781
   61SAPC  H16X 4836   0.016   2.659   8.852  0.4255  0.1064 -1.2735
   61SAPC  H16Y 4837   0.092   2.819   8.870 -0.5943 -0.9545  2.6404
   61SAPC  C317 4838  -0.062   2.796   8.707 -0.2514 -0.4042 -0.2740
   61SAPC  H17X 4839  -0.073   2.906   8.703 -0.5097 -0.3956  0.5855
   61SAPC  H17Y 4840  -0.158   2.747   8.681 -0.6589  0.4345 -0.3829
   61SAPC  C318 4841   0.032   2.758   8.591  0.3157 -0.5620 -0.2241
   61SAPC  H18X 4842  -0.010   2.784   8.492 -3.2249  3.7607  2.0423
   61SAPC  H18Y 4843   0.063   2.652   8.583  1.2947 -0.1799 -2.2497
   61SAPC  H18Z 4844   0.122   2.824   8.596  0.3572 -0.5857 -0.6044
   62SAPC     N 4845   0.221   3.661  10.933 -0.1047  0.0375  0.5469
   62SAPC   C12 4846   0.271   3.605  10.810 -0.9112  0.2360  0.2980
   62SAPC  H12A 4847   0.367   3.556  10.819 -1.9315 -2.5522 -2.2808
   62SAPC  H12B 4848   0.275   3.684  10.737  2.6617  0.5860  0.6793
   62SAPC   C13 4849   0.181   3.561  11.034 -0.1067 -0.3396 -0.1574
   62SAPC  H13A 4850   0.266   3.495  11.043  0.1231 -0.0802 -0.4030
   62SAPC  H13B 4851   0.154   3.606  11.128 -1.0219  1.8452 -1.3839
   62SAPC  H13C 4852   0.106   3.498  10.988  1.2518 -1.4695 -0.8755
   62SAPC   C14 4853   0.323   3.747  10.993 -0.8676 -0.1162  0.2708
   62SAPC  H14A 4854   0.354   3.818  10.917  0.7018 -1.0814 -0.0417
   62SAPC  H14B 4855   0.283   3.808  11.071 -1.5868  0.0510 -0.2221
   62SAPC  H14C 4856   0.413   3.691  11.017 -1.3407 -0.6816  0.7320
   62SAPC   C15 4857   0.102   3.752  10.897  0.0918  0.2042  0.0994
   62SAPC  H15A 4858   0.073   3.822  10.974  0.8683  1.4900 -0.7443
   62SAPC  H15B 4859   0.127   3.811  10.810 -0.8224  1.1866  0.4767
   62SAPC  H15C 4860   0.016   3.693  10.869  1.0550 -1.2342  0.0786
   62SAPC   C11 4861   0.186   3.492  10.742 -0.2499  0.1899  0.4804
   62SAPC  H11A 4862   0.223   3.485  10.638 -0.4670  2.1309  0.2471
   62SAPC  H11B 4863   0.084   3.536  10.733  0.4678  1.5391 -1.8433
   62SAPC     P 4864   0.323   3.285  10.810 -0.2070  0.1280 -0.1639
   62SAPC   O13 4865   0.434   3.363  10.868 -0.1048  0.4997  0.6531
   62SAPC   O14 4866   0.312   3.144  10.854  0.2346 -0.0649 -0.1443
   62SAPC   O12 4867   0.190   3.366  10.820  0.4993  0.0842 -0.0903
   62SAPC   O11 4868   0.344   3.279  10.661  0.7530 -0.2889 -0.1576
   62SAPC    C1 4869   0.339   3.169  10.575 -0.7623  0.1026  0.3816
   62SAPC    HA 4870   0.253   3.101  10.592 -1.6766  1.4595  1.3438
   62SAPC    HB 4871   0.312   3.210  10.475 -0.5334 -0.4138  0.0967
   62SAPC    C2 4872   0.477   3.107  10.559  0.2090 -0.3710  0.1133
   62SAPC    HS 4873   0.511   3.069  10.658  0.3820 -0.3047  0.0814
   62SAPC   O21 4874   0.567   3.200  10.489 -0.3028 -0.2259 -0.3188
   62SAPC   C21 4875   0.697   3.191  10.530  0.1017  0.8830  0.2228
   62SAPC   O22 4876   0.730   3.114  10.621 -0.8099 -0.8214  0.2204
   62SAPC   C22 4877   0.788   3.268  10.439 -0.3684  0.1065  1.1718
   62SAPC   H2R 4878   0.793   3.222  10.338 -4.0451  1.7683  0.0589
   62SAPC   H2S 4879   0.752   3.369  10.413  0.5443 -0.2801 -2.0394
   62SAPC    C3 4880   0.459   2.975  10.478 -0.1378  0.3369 -0.0649
   62SAPC    HX 4881   0.373   2.928  10.531  0.8191  1.3113  2.5352
   62SAPC    HY 4882   0.545   2.906  10.496  0.7797  2.0654  2.9775
   62SAPC   O31 4883   0.416   2.990  10.343 -0.0518  0.2244  0.1690
   62SAPC   C31 4884   0.515   2.978  10.256  0.0703 -0.1169 -0.4072
   62SAPC   O32 4885   0.636   2.971  10.288 -0.0256  0.1245 -0.4560
   62SAPC   C32 4886   0.463   2.954  10.109 -0.3058 -0.0675 -0.1293
   62SAPC   H2X 4887   0.400   3.042  10.084  1.9181  1.3931 -0.9295
   62SAPC   H2Y 4888   0.401   2.864  10.123  1.3886 -1.4811 -1.2214
   62SAPC   C23 4889   0.927   3.287  10.503  0.1301 -0.4814 -0.2688
   62SAPC   H3R 4890   0.966   3.187  10.532  0.0975 -0.3553  0.2181
   62SAPC   H3S 4891   0.927   3.354  10.592  0.5991 -0.0194 -0.6097
   62SAPC   C24 4892   1.032   3.338  10.399 -0.3532  0.4374  0.2893
   62SAPC   H4R 4893   1.020   3.277  10.308  1.8940 -0.7907  0.7413
   62SAPC   H4S 4894   1.136   3.313  10.431  0.2416  0.0551 -1.8050
   62SAPC   C25 4895   1.000   3.480  10.361  0.8428 -0.0838 -0.6046
   62SAPC   H5R 4896   1.046   3.552  10.431  1.3678 -0.0472 -0.9820
   62SAPC   C26 4897   0.943   3.537  10.249  0.0743  0.2911  0.2147
   62SAPC   H6R 4898   0.941   3.647  10.244  2.0419  0.3089 -1.3088
   62SAPC   C27 4899   0.882   3.470  10.132  0.1521 -0.4660  0.4149
   62SAPC   H7R 4900   0.798   3.533  10.096  1.6892  2.1780  1.1693
   62SAPC   H7S 4901   0.846   3.372  10.169  3.1889 -1.8487  0.0648
   62SAPC   C28 4902   0.973   3.425  10.014 -0.2943 -0.4367 -0.7711
   62SAPC   H8R 4903   1.075   3.462  10.001  0.1678 -0.2070  2.6419
   62SAPC   C29 4904   0.934   3.336   9.920 -0.7404 -0.1059 -0.0567
   62SAPC   H9R 4905   1.005   3.319   9.838 -0.3847  1.2123 -0.0531
   62SAPC  C210 4906   0.812   3.255   9.911  0.4307 -0.5004 -0.3367
   62SAPC  H10R 4907   0.774   3.240  10.015  0.5794  2.5046  0.2306
   62SAPC  H10S 4908   0.829   3.151   9.876 -0.0766 -0.2932 -1.2071
   62SAPC  C211 4909   0.726   3.344   9.823  0.4964  0.1040 -0.2444
   62SAPC  H11R 4910   0.695   3.440   9.867  2.0289  0.4170  0.2089
   62SAPC  C212 4911   0.703   3.323   9.694  0.9470  0.3270 -0.1767
   62SAPC  H12R 4912   0.637   3.383   9.630  2.1037 -0.1842 -1.9111
   62SAPC  C213 4913   0.743   3.205   9.616 -0.2089  0.0785  1.0817
   62SAPC  H13R 4914   0.675   3.201   9.528 -0.2786  2.6482  0.9547
   62SAPC  H13S 4915   0.729   3.114   9.679  1.8680 -1.4418 -0.5492
   62SAPC  C214 4916   0.885   3.225   9.570  0.1358 -0.2331  0.6082
   62SAPC  H14R 4917   0.957   3.227   9.653 -0.5158  3.2326  1.2397
   62SAPC  C215 4918   0.927   3.246   9.442 -0.1984 -0.2241 -0.5741
   62SAPC  H15R 4919   1.033   3.267   9.422 -0.7604  1.2933 -2.1676
   62SAPC  C216 4920   0.854   3.260   9.314  0.3117  0.3234 -0.5170
   62SAPC  H16R 4921   0.851   3.367   9.287 -0.2486  0.9802  1.9496
   62SAPC  H16S 4922   0.746   3.242   9.334  0.4100  1.2910  1.0066
   62SAPC  C217 4923   0.910   3.168   9.211 -0.0472 -0.6007 -0.5749
   62SAPC  H17R 4924   0.901   3.064   9.251 -1.0532 -0.4280 -0.3327
   62SAPC  H17S 4925   1.018   3.190   9.195 -0.9244  4.4105 -1.3125
   62SAPC  C218 4926   0.841   3.169   9.075 -0.6641  0.1245  0.2693
   62SAPC  H18R 4927   0.823   3.275   9.047  1.0678  0.3544 -0.1377
   62SAPC  H18S 4928   0.745   3.115   9.085 -1.1689  1.0314  0.4720
   62SAPC  C219 4929   0.929   3.107   8.969  0.0277 -0.3640  0.3623
   62SAPC  H19R 4930   0.970   3.011   9.007  2.9151  0.9525  0.8806
   62SAPC  H19S 4931   1.016   3.176   8.961  1.1896 -1.7474  0.4394
   62SAPC  C220 4932   0.871   3.085   8.835  0.3279  0.6119  0.6525
   62SAPC  H20R 4933   0.854   3.181   8.782  1.1644  0.9047  0.9059
   62SAPC  H20S 4934   0.779   3.022   8.838 -0.3533  1.6293  1.6591
   62SAPC  H20T 4935   0.950   3.029   8.781  1.3473  1.2871  1.4199
   62SAPC   C33 4936   0.575   2.940  10.003 -0.4404  0.0351 -0.2730
   62SAPC   H3X 4937   0.614   2.837  10.018  0.6225  0.8564  4.1808
   62SAPC   H3Y 4938   0.659   3.006  10.033 -0.4026 -0.3690  0.5513
   62SAPC   C34 4939   0.526   2.954   9.855 -0.2061  0.0920  0.0910
   62SAPC   H4X 4940   0.537   3.062   9.832 -1.3362  0.5017  1.3356
   62SAPC   H4Y 4941   0.416   2.938   9.843 -0.4142  2.3247 -1.6964
   62SAPC   C35 4942   0.612   2.867   9.754  0.3335  0.0267  0.1636
   62SAPC   H5X 4943   0.595   2.763   9.788 -0.7826  0.7834  2.0536
   62SAPC   H5Y 4944   0.719   2.887   9.779  1.0355 -1.3752 -1.4873
   62SAPC   C36 4945   0.575   2.884   9.606 -0.7564  0.5042 -0.0268
   62SAPC   H6X 4946   0.654   2.852   9.535  0.0308  2.7513 -0.2605
   62SAPC   H6Y 4947   0.563   2.994   9.593  1.0522  0.9457  1.5635
   62SAPC   C37 4948   0.447   2.813   9.564 -0.4571 -0.6908 -0.1730
   62SAPC   H7X 4949   0.366   2.868   9.617  0.4611 -1.3108  1.9506
   62SAPC   H7Y 4950   0.442   2.708   9.600 -1.9018 -0.1811  1.2252
   62SAPC   C38 4951   0.419   2.809   9.411 -0.0083  0.1387 -0.3167
   62SAPC   H8X 4952   0.382   2.911   9.386 -0.9858 -0.4478 -1.3846
   62SAPC   H8Y 4953   0.339   2.735   9.388  0.6778 -0.1667 -1.9120
   62SAPC   C39 4954   0.538   2.781   9.321 -0.1485 -0.7743 -0.4716
   62SAPC   H9X 4955   0.598   2.695   9.359  1.9008  1.0046  0.5269
   62SAPC   H9Y 4956   0.595   2.874   9.341 -1.7188  0.3039 -0.8038
   62SAPC  C310 4957   0.503   2.771   9.175  0.5213 -0.4651 -0.0853
   62SAPC  H10X 4958   0.453   2.675   9.150 -1.9731  0.6638  0.2639
   62SAPC  H10Y 4959   0.597   2.768   9.116  0.0474 -0.8843 -0.8467
   62SAPC  C311 4960   0.407   2.883   9.118 -0.5455 -0.3225 -0.4393
   62SAPC  H11X 4961   0.450   2.984   9.138 -1.5057  0.0053  0.0183
   62SAPC  H11Y 4962   0.312   2.879   9.175 -0.8375  1.4566 -0.7376
   62SAPC  C312 4963   0.374   2.884   8.965 -0.3444  0.2895  0.7628
   62SAPC  H12X 4964   0.306   2.972   8.957 -2.0395 -1.1428 -4.1269
   62SAPC  H12Y 4965   0.315   2.792   8.944  0.9425 -0.4138  0.1543
   62SAPC  C313 4966   0.496   2.895   8.870 -0.0157 -0.4981 -0.4541
   62SAPC  H13X 4967   0.569   2.815   8.893 -0.5492 -0.5449  1.2026
   62SAPC  H13Y 4968   0.549   2.991   8.887 -1.0028 -0.2817  1.7904
   62SAPC  C314 4969   0.455   2.892   8.717 -0.5794 -0.3444 -0.0167
   62SAPC  H14X 4970   0.552   2.892   8.662 -0.4364  1.1227  0.2005
   62SAPC  H14Y 4971   0.399   2.982   8.686  0.9237  0.0001 -1.9241
   62SAPC  C315 4972   0.375   2.776   8.660 -0.4021  0.3870 -0.4676
   62SAPC  H15X 4973   0.324   2.804   8.565 -3.4988  0.9378  1.2190
   62SAPC  H15Y 4974   0.294   2.756   8.733 -0.8991 -0.1818 -1.1518
   62SAPC  C316 4975   0.458   2.646   8.633  0.0218  0.0314  0.0687
   62SAPC  H16X 4976   0.399   2.553   8.648  0.1241  0.0091  0.3354
   62SAPC  H16Y 4977   0.533   2.654   8.715 -1.1409 -1.7865  1.3656
   62SAPC  C317 4978   0.536   2.643   8.504 -0.1788  0.4935 -0.2585
   62SAPC  H17X 4979   0.609   2.726   8.496  0.6948 -0.3057 -0.8561
   62SAPC  H17Y 4980   0.468   2.653   8.416  1.6595  0.1003 -1.8051
   62SAPC  C318 4981   0.623   2.509   8.495 -0.0156 -0.7525  0.1519
   62SAPC  H18X 4982   0.663   2.480   8.595 -1.1285  1.3399  1.2888
   62SAPC  H18Y 4983   0.706   2.519   8.423 -0.6423  1.7450 -0.3169
   62SAPC  H18Z 4984   0.566   2.422   8.456  0.8334 -1.2884  0.0726
   63SAPC     N 4985   4.401   4.119   6.589 -0.2196 -0.0022  0.0469
   63SAPC   C12 4986   4.288   4.094   6.690 -0.4358  0.4220  0.1033
   63SAPC  H12A 4987   4.331   4.068   6.786 -1.9825  0.1212  0.7435
   63SAPC  H12B 4988   4.239   4.004   6.657  2.2158 -0.8852 -0.5197
   63SAPC   C13 4989   4.358   4.093   6.447 -0.2741  0.6171  0.5333
   63SAPC  H13A 4990   4.351   3.991   6.413  3.3118  0.3342  0.2015
   63SAPC  H13B 4991   4.262   4.141   6.432 -0.1809  0.4356 -0.7693
   63SAPC  H13C 4992   4.433   4.140   6.384 -0.0620 -1.8829 -1.2428
   63SAPC   C14 4993   4.458   4.256   6.592  0.3968  0.4688 -0.0177
   63SAPC  H14A 4994   4.557   4.258   6.548  1.3196  1.4209  1.9639
   63SAPC  H14B 4995   4.400   4.335   6.546  0.6368 -0.2262 -1.5638
   63SAPC  H14C 4996   4.471   4.295   6.692 -0.4753 -0.5853  0.5200
   63SAPC   C15 4997   4.511   4.019   6.605 -0.3949  0.3652  0.3203
   63SAPC  H15A 4998   4.586   4.014   6.527  0.8066 -2.7823  1.5179
   63SAPC  H15B 4999   4.568   4.044   6.693  0.9979 -0.4151 -0.3199
   63SAPC  H15C 5000   4.469   3.920   6.618 -0.6394  0.1879 -1.4575
   63SAPC   C11 5001   4.182   4.204   6.701  0.2985  0.4898  0.1801
   63SAPC  H11A 5002   4.239   4.285   6.751  0.5569  0.7741 -0.5657
   63SAPC  H11B 5003   4.098   4.173   6.767 -1.4579 -0.9670 -2.5338
   63SAPC     P 5004   4.127   4.390   6.520  0.0351  0.1424 -0.0297
   63SAPC   O13 5005   4.134   4.396   6.370 -0.4000  0.0735 -0.4024
   63SAPC   O14 5006   4.015   4.450   6.588 -0.2911 -0.4328  0.4328
   63SAPC   O12 5007   4.124   4.241   6.574  0.3296  0.4647  0.1712
   63SAPC   O11 5008   4.257   4.448   6.574  0.1821 -0.1040 -0.6865
   63SAPC    C1 5009   4.294   4.582   6.590  0.3161  0.5141 -0.0980
   63SAPC    HA 5010   4.341   4.615   6.494  0.8195 -1.7468 -0.6882
   63SAPC    HB 5011   4.207   4.648   6.610 -0.4121 -0.5812  0.4434
   63SAPC    C2 5012   4.398   4.590   6.705 -0.6717 -0.4834  0.1166
   63SAPC    HS 5013   4.477   4.519   6.673 -3.0348 -3.0496 -0.5145
   63SAPC   O21 5014   4.350   4.528   6.826 -0.2052  0.0561  0.3936
   63SAPC   C21 5015   4.233   4.565   6.877 -0.3845  0.2922 -0.0070
   63SAPC   O22 5016   4.153   4.648   6.836  0.2147  0.2575 -0.5790
   63SAPC   C22 5017   4.237   4.494   7.013 -0.4484 -0.3305 -0.5946
   63SAPC   H2R 5018   4.230   4.384   6.997 -0.7719 -0.5667  1.0441
   63SAPC   H2S 5019   4.332   4.522   7.063 -0.4428  1.3948 -1.4862
   63SAPC    C3 5020   4.464   4.730   6.741 -0.3798  0.8630  0.6213
   63SAPC    HX 5021   4.521   4.768   6.653 -0.6897 -1.3975 -0.6297
   63SAPC    HY 5022   4.540   4.702   6.817 -0.4641 -0.4728  0.2339
   63SAPC   O31 5023   4.373   4.831   6.785  0.3357  1.1135 -0.2653
   63SAPC   C31 5024   4.335   4.923   6.703 -0.2782  0.2177  0.7437
   63SAPC   O32 5025   4.367   4.922   6.583 -0.3409  0.4973 -0.4092
   63SAPC   C32 5026   4.257   5.036   6.775  0.6644 -0.3735 -0.0147
   63SAPC   H2X 5027   4.158   5.046   6.725 -0.1675  0.9789  1.8012
   63SAPC   H2Y 5028   4.309   5.133   6.764  0.5971 -0.4253 -0.7979
   63SAPC   C23 5029   4.113   4.519   7.107  0.9901  0.5288 -0.0482
   63SAPC   H3R 5030   4.089   4.430   7.168  0.8184  1.8162  1.8330
   63SAPC   H3S 5031   4.019   4.528   7.049  0.6331 -4.3635 -0.6457
   63SAPC   C24 5032   4.124   4.648   7.197  0.0211 -0.4848  0.2781
   63SAPC   H4R 5033   4.023   4.688   7.216  1.1640  2.4549  0.5971
   63SAPC   H4S 5034   4.159   4.744   7.155 -3.8281 -0.2017 -2.8306
   63SAPC   C25 5035   4.194   4.629   7.333  0.2495  0.0652  0.4006
   63SAPC   H5R 5036   4.300   4.599   7.323 -0.4165 -1.7988 -2.1842
   63SAPC   C26 5037   4.142   4.645   7.454 -0.1092  0.5308  0.1027
   63SAPC   H6R 5038   4.198   4.615   7.545 -2.2288 -2.4340  0.5936
   63SAPC   C27 5039   4.002   4.688   7.488  0.6920  0.2349  0.9948
   63SAPC   H7R 5040   3.935   4.667   7.402  2.3803  0.5304 -0.4346
   63SAPC   H7S 5041   4.001   4.797   7.507  0.6110  0.6279 -1.0836
   63SAPC   C28 5042   3.929   4.607   7.595 -0.1136  0.3295  0.5604
   63SAPC   H8R 5043   3.840   4.561   7.550  1.0411  0.6682 -2.2936
   63SAPC   C29 5044   3.953   4.598   7.723  0.2126 -0.2386 -0.8416
   63SAPC   H9R 5045   3.896   4.526   7.783 -0.7599  0.4530 -0.9180
   63SAPC  C210 5046   4.055   4.673   7.809 -0.4631  0.7481  0.4540
   63SAPC  H10R 5047   3.997   4.756   7.855 -2.1407  0.1383 -0.4865
   63SAPC  H10S 5048   4.131   4.727   7.748  0.0980 -1.1020 -0.5636
   63SAPC  C211 5049   4.133   4.580   7.895 -0.5257  0.2989 -0.2580
   63SAPC  H11R 5050   4.214   4.522   7.849 -1.2417 -1.2609  0.3560
   63SAPC  C212 5051   4.117   4.582   8.030 -0.5823 -0.5932  0.1809
   63SAPC  H12R 5052   4.200   4.541   8.090  0.7149 -0.2797 -1.3368
   63SAPC  C213 5053   4.028   4.685   8.101  0.9525 -0.0011  0.2151
   63SAPC  H13R 5054   3.944   4.721   8.039 -2.3424 -3.3761  2.3072
   63SAPC  H13S 5055   4.100   4.765   8.129  0.0456  0.5909  0.9108
   63SAPC  C214 5056   3.962   4.636   8.230  0.1775  0.0813 -0.1607
   63SAPC  H14R 5057   3.918   4.535   8.227  0.1525 -0.0160  1.8987
   63SAPC  C215 5058   3.939   4.711   8.341 -0.2839  1.1039 -0.5299
   63SAPC  H15R 5059   3.899   4.661   8.430  1.8124  0.3497  0.0617
   63SAPC  C216 5060   3.971   4.850   8.366 -0.1528  0.3094  0.2357
   63SAPC  H16R 5061   4.054   4.892   8.304 -2.7902  5.2192 -0.5221
   63SAPC  H16S 5062   4.005   4.866   8.470  0.5424 -0.7631  0.1874
   63SAPC  C217 5063   3.852   4.938   8.340 -0.2383  0.2942 -0.6477
   63SAPC  H17R 5064   3.756   4.911   8.388 -0.8831  4.1904  0.6562
   63SAPC  H17S 5065   3.846   4.931   8.229 -2.0762 -0.4655 -0.5254
   63SAPC  C218 5066   3.882   5.083   8.365  0.0518 -0.6685 -0.4828
   63SAPC  H18R 5067   3.790   5.143   8.349 -0.4463 -1.0572  0.7547
   63SAPC  H18S 5068   3.953   5.123   8.291 -0.6349  0.8085 -0.3842
   63SAPC  C219 5069   3.938   5.131   8.502 -0.0544  0.1316  0.1800
   63SAPC  H19R 5070   4.045   5.103   8.495 -0.5147 -1.3528 -1.9586
   63SAPC  H19S 5071   3.883   5.085   8.587 -0.1385  0.8883  0.5394
   63SAPC  C220 5072   3.920   5.292   8.511  0.4907  0.2751 -0.2172
   63SAPC  H20R 5073   3.928   5.323   8.618 -1.2778  1.0922 -0.2836
   63SAPC  H20S 5074   3.820   5.319   8.471  0.5852  0.9327 -0.0186
   63SAPC  H20T 5075   3.996   5.342   8.447  2.1883 -1.5566  0.2755
   63SAPC   C33 5076   4.230   5.003   6.923 -0.2571 -0.1447  0.1688
   63SAPC   H3X 5077   4.322   5.003   6.985 -1.6150  1.5686  2.3466
   63SAPC   H3Y 5078   4.170   4.910   6.925 -1.5387  0.6108 -1.0317
   63SAPC   C34 5079   4.148   5.114   6.981  0.1183 -0.0354  0.1174
   63SAPC   H4X 5080   4.067   5.129   6.906  1.1825 -1.0234 -1.2942
   63SAPC   H4Y 5081   4.200   5.212   6.976 -2.0011  1.1408 -0.4455
   63SAPC   C35 5082   4.096   5.083   7.132  0.6650  0.1862  0.8017
   63SAPC   H5X 5083   4.186   5.091   7.196  0.8039  1.1823  0.5050
   63SAPC   H5Y 5084   4.056   4.979   7.136 -0.7631  0.4558 -2.6625
   63SAPC   C36 5085   3.989   5.174   7.201  0.4355  0.2059  0.3284
   63SAPC   H6X 5086   3.896   5.175   7.139  1.2485  6.5068 -1.4954
   63SAPC   H6Y 5087   4.033   5.276   7.203  0.2630  0.2865  0.0664
   63SAPC   C37 5088   3.948   5.124   7.340  0.2949 -0.1086 -0.9000
   63SAPC   H7X 5089   3.899   5.024   7.334 -0.6421  0.3368 -0.8892
   63SAPC   H7Y 5090   3.868   5.190   7.380  0.3748 -1.1648  1.1218
   63SAPC   C38 5091   4.057   5.127   7.443  0.3268  0.5256  0.0563
   63SAPC   H8X 5092   4.088   5.233   7.457  1.6021  0.5254 -2.2763
   63SAPC   H8Y 5093   4.146   5.070   7.409 -0.0739  0.5711 -1.1008
   63SAPC   C39 5094   4.011   5.075   7.577 -0.0844 -0.1751  0.4400
   63SAPC   H9X 5095   3.964   4.977   7.557  0.3862  0.2682 -3.7690
   63SAPC   H9Y 5096   3.931   5.142   7.615 -1.1635 -1.1826  0.0228
   63SAPC  C310 5097   4.129   5.059   7.671 -0.3200 -0.1975  0.2204
   63SAPC  H10X 5098   4.208   5.131   7.641 -2.4273  2.3826  0.4885
   63SAPC  H10Y 5099   4.163   4.954   7.670  0.8250  0.0782  2.8322
   63SAPC  C311 5100   4.102   5.098   7.820 -0.5729 -0.1077 -0.0961
   63SAPC  H11X 5101   4.006   5.052   7.852 -1.1669  0.5672 -0.8875
   63SAPC  H11Y 5102   4.095   5.209   7.828 -3.3303 -0.1286 -1.0120
   63SAPC  C312 5103   4.210   5.037   7.914  0.2105 -0.3791  0.2172
   63SAPC  H12X 5104   4.312   5.064   7.881 -0.0311 -1.0398 -1.1494
   63SAPC  H12Y 5105   4.197   4.926   7.910 -0.5574 -0.3879  2.0668
   63SAPC  C313 5106   4.208   5.077   8.073 -0.4107  0.0702  0.7844
   63SAPC  H13X 5107   4.110   5.052   8.120 -0.9783 -1.2071 -0.9988
   63SAPC  H13Y 5108   4.224   5.186   8.080 -0.0542  0.1423 -0.8086
   63SAPC  C314 5109   4.314   4.997   8.153  0.8975 -0.0641  0.1449
   63SAPC  H14X 5110   4.289   4.890   8.135 -1.6101 -0.1741  3.2951
   63SAPC  H14Y 5111   4.301   5.013   8.262 -2.0263  0.0933 -0.1490
   63SAPC  C315 5112   4.461   5.029   8.128  0.7105 -0.3864  0.1820
   63SAPC  H15X 5113   4.477   5.136   8.102  1.2615 -0.4760  0.1528
   63SAPC  H15Y 5114   4.505   4.976   8.042  1.8053 -0.8577  1.0147
   63SAPC  C316 5115   4.554   5.000   8.249  0.0705 -0.1854  0.2314
   63SAPC  H16X 5116   4.544   4.895   8.283 -1.6896 -0.5146 -1.1593
   63SAPC  H16Y 5117   4.517   5.073   8.324 -0.9069  2.5104 -2.6627
   63SAPC  C317 5118   4.701   5.027   8.210  0.0418  0.1996 -0.0685
   63SAPC  H17X 5119   4.707   5.137   8.199 -2.8818  0.4840  0.2821
   63SAPC  H17Y 5120   4.720   4.975   8.114  1.7976  1.2271 -0.3092
   63SAPC  C318 5121   4.801   4.971   8.310  0.0196 -0.0800 -0.1979
   63SAPC  H18X 5122   4.812   4.861   8.308  0.5971 -0.0123 -1.0134
   63SAPC  H18Y 5123   4.768   5.002   8.412 -1.5114 -0.6887 -0.4712
   63SAPC  H18Z 5124   4.903   5.013   8.298  0.2149 -0.7616 -1.0044
   64SAPC     N 5125   0.354   4.171   5.961  0.0304 -0.9547 -0.1059
   64SAPC   C12 5126   0.423   4.067   6.046  0.3756 -0.4876  0.1817
   64SAPC  H12A 5127   0.527   4.086   6.070  0.2417 -0.2235  0.5612
   64SAPC  H12B 5128   0.414   3.976   5.989  0.7026 -0.8748  0.7413
   64SAPC   C13 5129   0.354   4.298   6.044  0.5973  0.3111 -0.4215
   64SAPC  H13A 5130   0.446   4.314   6.098 -0.9144 -1.4580  2.9736
   64SAPC  H13B 5131   0.316   4.379   5.984  0.5240  3.3977  3.4091
   64SAPC  H13C 5132   0.285   4.272   6.124 -0.3573  0.6105 -1.1310
   64SAPC   C14 5133   0.433   4.196   5.838 -0.2569  0.5091  0.0645
   64SAPC  H14A 5134   0.539   4.200   5.861 -0.2715 -0.5170  0.3586
   64SAPC  H14B 5135   0.414   4.119   5.766  0.3618  1.0742 -0.7167
   64SAPC  H14C 5136   0.402   4.291   5.798  0.5951 -0.0472 -2.0269
   64SAPC   C15 5137   0.211   4.140   5.923  0.1682  0.7532  0.0441
   64SAPC  H15A 5138   0.193   4.075   5.839  1.5755  1.2933 -0.7287
   64SAPC  H15B 5139   0.162   4.102   6.011  3.0110 -0.6860  1.1335
   64SAPC  H15C 5140   0.162   4.229   5.885  1.4807  1.6918  0.4385
   64SAPC   C11 5141   0.359   4.034   6.185 -0.6426 -0.0339 -0.5233
   64SAPC  H11A 5142   0.367   4.118   6.257 -1.9230 -0.6430  0.3742
   64SAPC  H11B 5143   0.421   3.949   6.222 -1.6069 -0.4277  0.2192
   64SAPC     P 5144   0.163   3.865   6.238 -0.1666 -0.2518 -0.3878
   64SAPC   O13 5145   0.018   3.882   6.223 -0.6106  0.4465 -0.2354
   64SAPC   O14 5146   0.225   3.739   6.187 -0.3014  0.0295  0.7305
   64SAPC   O12 5147   0.224   3.995   6.175 -0.2112  0.6317 -0.0677
   64SAPC   O11 5148   0.197   3.876   6.397 -0.3327  0.0758 -0.0088
   64SAPC    C1 5149   0.150   3.989   6.458 -0.1297 -0.4056 -0.6871
   64SAPC    HA 5150   0.204   4.074   6.411 -0.1737 -0.1109 -0.2152
   64SAPC    HB 5151   0.040   3.997   6.444 -0.1344 -2.3476 -2.2466
   64SAPC    C2 5152   0.185   4.007   6.609 -0.1920  0.6124  0.5425
   64SAPC    HS 5153   0.295   4.018   6.616 -0.1126 -0.3965  1.0999
   64SAPC   O21 5154   0.122   3.899   6.675  0.1007 -0.2333  0.1583
   64SAPC   C21 5155   0.200   3.844   6.760 -0.4057  0.3472 -0.3113
   64SAPC   O22 5156   0.315   3.867   6.786 -0.1796 -0.0227 -0.0474
   64SAPC   C22 5157   0.127   3.730   6.825  0.0739  0.3009 -0.6251
   64SAPC   H2R 5158   0.060   3.685   6.748 -1.2323  0.2189  0.5274
   64SAPC   H2S 5159   0.202   3.656   6.859 -0.9008 -0.0507  0.8362
   64SAPC    C3 5160   0.126   4.141   6.657  0.0850 -0.5587 -0.4192
   64SAPC    HX 5161   0.020   4.133   6.624  0.3503  0.7718 -1.6873
   64SAPC    HY 5162   0.161   4.235   6.609 -1.1718  1.4635  2.3291
   64SAPC   O31 5163   0.136   4.165   6.796 -0.0646 -0.1184 -0.4112
   64SAPC   C31 5164   0.250   4.225   6.835  0.5451  0.1416 -0.3255
   64SAPC   O32 5165   0.347   4.257   6.770  0.0343  0.3185  0.0038
   64SAPC   C32 5166   0.245   4.241   6.989  0.2539 -0.4398  0.3409
   64SAPC   H2X 5167   0.329   4.178   7.026 -1.2504 -1.2274  2.6824
   64SAPC   H2Y 5168   0.164   4.184   7.039  3.2167 -2.2266  3.5401
   64SAPC   C23 5169   0.031   3.755   6.944 -0.3928 -0.0825  0.7536
   64SAPC   H3R 5170  -0.040   3.832   6.906  0.5181  1.0659  1.3054
   64SAPC   H3S 5171   0.092   3.801   7.024  0.2779  0.4894 -0.0708
   64SAPC   C24 5172  -0.036   3.625   6.988  0.4211  0.1626  0.5399
   64SAPC   H4R 5173   0.036   3.549   7.024  1.1366 -0.7148 -2.5012
   64SAPC   H4S 5174  -0.076   3.570   6.900 -2.3342 -1.5017  2.6512
   64SAPC   C25 5175  -0.145   3.658   7.091 -0.1482  0.6550  0.4684
   64SAPC   H5R 5176  -0.222   3.731   7.064  1.1334  1.8447 -0.1080
   64SAPC   C26 5177  -0.143   3.605   7.214  0.7488  0.1379 -0.7570
   64SAPC   H6R 5178  -0.229   3.632   7.278  1.1739 -0.0498 -0.1007
   64SAPC   C27 5179  -0.055   3.501   7.284 -0.5970  0.2334 -0.0887
   64SAPC   H7R 5180   0.007   3.552   7.361  0.6891 -1.0884 -0.2052
   64SAPC   H7S 5181   0.015   3.455   7.211 -0.3764 -0.1463  0.3587
   64SAPC   C28 5182  -0.132   3.402   7.370  0.2639 -0.0787 -0.1716
   64SAPC   H8R 5183  -0.238   3.390   7.341  0.4998 -0.6344 -0.8210
   64SAPC   C29 5184  -0.085   3.345   7.483  0.3530  0.3198 -0.5221
   64SAPC   H9R 5185  -0.151   3.291   7.552  1.5917  1.2761  1.5027
   64SAPC  C210 5186   0.057   3.346   7.538  0.0188  0.3888 -0.5914
   64SAPC  H10R 5187   0.133   3.369   7.461 -0.0961 -0.2005 -0.8857
   64SAPC  H10S 5188   0.090   3.245   7.571 -1.1288  0.8360  2.3065
   64SAPC  C211 5189   0.078   3.440   7.650 -0.3768  0.3612  0.1310
   64SAPC  H11R 5190   0.047   3.538   7.611 -2.8514 -1.1519 -2.0132
   64SAPC  C212 5191   0.123   3.430   7.780  0.7623  0.2744 -0.9758
   64SAPC  H12R 5192   0.130   3.523   7.838 -1.1657 -0.2982  0.2259
   64SAPC  C213 5193   0.168   3.302   7.847  0.4979 -0.6568  0.1882
   64SAPC  H13R 5194   0.216   3.335   7.942 -1.1649 -0.2963  0.9368
   64SAPC  H13S 5195   0.249   3.257   7.786 -0.7691 -3.2187  0.2557
   64SAPC  C214 5196   0.069   3.195   7.871 -0.4776 -0.5324 -0.5403
   64SAPC  H14R 5197  -0.012   3.196   7.796  0.3173  0.0708 -1.4108
   64SAPC  C215 5198   0.060   3.111   7.974 -0.4520  0.3602  0.3594
   64SAPC  H15R 5199  -0.027   3.047   7.997 -0.9404  1.4651  1.7770
   64SAPC  C216 5200   0.169   3.097   8.080  0.1861  0.5185 -0.1936
   64SAPC  H16R 5201   0.248   3.173   8.064  0.0695  0.6571 -0.1025
   64SAPC  H16S 5202   0.231   3.004   8.071  1.5421  1.5082 -1.6592
   64SAPC  C217 5203   0.107   3.127   8.215  0.0036 -0.3482 -0.3931
   64SAPC  H17R 5204   0.052   3.224   8.219  2.3438  0.9971  1.0648
   64SAPC  H17S 5205   0.193   3.137   8.284  0.4112 -0.9339 -0.8092
   64SAPC  C218 5206   0.023   3.019   8.266 -0.4826  0.3839 -0.0327
   64SAPC  H18R 5207   0.049   2.999   8.372 -0.3217  2.2190  0.2937
   64SAPC  H18S 5208   0.057   2.930   8.207  1.0239  1.5163 -0.9648
   64SAPC  C219 5209  -0.127   3.043   8.269  0.3861  0.3416  0.0698
   64SAPC  H19R 5210  -0.156   3.052   8.162 -1.5971 -1.1023  0.4317
   64SAPC  H19S 5211  -0.155   3.140   8.315 -3.2570 -1.5413  2.2395
   64SAPC  C220 5212  -0.219   2.938   8.338  0.2821 -0.8010  0.4443
   64SAPC  H20R 5213  -0.183   2.924   8.443  2.4479 -0.5971 -0.2369
   64SAPC  H20S 5214  -0.211   2.834   8.301  2.1761 -2.0347  3.8855
   64SAPC  H20T 5215  -0.327   2.963   8.336 -0.3670 -2.9714  2.5001
   64SAPC   C33 5216   0.265   4.390   7.026 -0.4169  0.3226  0.0336
   64SAPC   H3X 5217   0.192   4.455   6.974 -0.5795  1.3165  1.4694
   64SAPC   H3Y 5218   0.355   4.439   6.983  0.3683  0.5912  1.9039
   64SAPC   C34 5219   0.264   4.412   7.179 -0.3278  0.4673 -0.6219
   64SAPC   H4X 5220   0.366   4.382   7.211  0.3745  3.2168  0.0684
   64SAPC   H4Y 5221   0.191   4.340   7.220  0.6386  0.4943  1.2586
   64SAPC   C35 5222   0.247   4.554   7.222  0.2663  0.3660 -0.4034
   64SAPC   H5X 5223   0.141   4.581   7.199  1.1674  3.2906 -1.6004
   64SAPC   H5Y 5224   0.306   4.624   7.159 -0.3212  0.0128 -1.3616
   64SAPC   C36 5225   0.263   4.584   7.368 -0.1382  0.0168 -0.7217
   64SAPC   H6X 5226   0.242   4.690   7.394  1.1228  0.2153 -0.4579
   64SAPC   H6Y 5227   0.369   4.573   7.399  0.2860  1.0259 -1.7307
   64SAPC   C37 5228   0.167   4.486   7.451  1.0306  0.2036 -0.3741
   64SAPC   H7X 5229   0.208   4.383   7.456  0.2512 -0.0733  0.9310
   64SAPC   H7Y 5230   0.067   4.485   7.402  0.3739  1.0025  0.8902
   64SAPC   C38 5231   0.149   4.529   7.594  0.8054  0.2067 -0.4276
   64SAPC   H8X 5232   0.105   4.628   7.616 -0.5585 -0.5752  0.5266
   64SAPC   H8Y 5233   0.248   4.541   7.643 -0.0112  1.5755  0.9808
   64SAPC   C39 5234   0.055   4.435   7.669 -0.1839  0.2156 -0.4770
   64SAPC   H9X 5235   0.084   4.328   7.663 -2.1659 -0.7094  3.3584
   64SAPC   H9Y 5236  -0.045   4.459   7.628 -0.3006  0.1026 -0.2612
   64SAPC  C310 5237   0.052   4.473   7.818  0.3541 -0.1000 -0.8185
   64SAPC  H10X 5238  -0.014   4.562   7.825  0.8310  0.2706 -0.9965
   64SAPC  H10Y 5239   0.156   4.496   7.847  0.8837  1.0722 -3.3656
   64SAPC  C311 5240  -0.002   4.363   7.919  0.1737 -0.1498 -0.0296
   64SAPC  H11X 5241   0.034   4.261   7.894 -0.1085  0.2035 -2.0256
   64SAPC  H11Y 5242  -0.112   4.369   7.911  0.0460  3.2806  2.2135
   64SAPC  C312 5243   0.026   4.405   8.066  0.1499  0.0962  0.6974
   64SAPC  H12X 5244   0.022   4.516   8.064 -0.7028  0.1030 -1.7861
   64SAPC  H12Y 5245   0.128   4.375   8.095  0.0400 -1.5368 -0.4684
   64SAPC  C313 5246  -0.074   4.332   8.155 -0.2506  0.7825 -0.1426
   64SAPC  H13X 5247  -0.037   4.228   8.165  0.5818  1.0829 -0.0114
   64SAPC  H13Y 5248  -0.179   4.346   8.122  0.4312  2.9970 -1.5801
   64SAPC  C314 5249  -0.082   4.378   8.303 -0.0179 -0.3427 -0.4323
   64SAPC  H14X 5250  -0.108   4.486   8.298 -0.3636 -0.4401 -0.7869
   64SAPC  H14Y 5251   0.020   4.363   8.345  1.9887  1.8053 -4.1070
   64SAPC  C315 5252  -0.187   4.322   8.402  0.4442 -0.4706  0.2588
   64SAPC  H15X 5253  -0.171   4.214   8.424 -0.6890 -0.7040 -0.0039
   64SAPC  H15Y 5254  -0.288   4.338   8.358 -0.3595 -1.1182  1.7822
   64SAPC  C316 5255  -0.172   4.389   8.544  0.2958 -0.2831 -0.6644
   64SAPC  H16X 5256  -0.164   4.498   8.524  0.3075  0.5372  3.0475
   64SAPC  H16Y 5257  -0.092   4.340   8.603 -1.4937 -1.1253  1.1948
   64SAPC  C317 5258  -0.314   4.377   8.622  0.6694 -0.2519  0.1505
   64SAPC  H17X 5259  -0.394   4.385   8.545  0.6783 -0.2662  0.1400
   64SAPC  H17Y 5260  -0.311   4.464   8.691 -1.6959 -2.8118  3.8049
   64SAPC  C318 5261  -0.336   4.260   8.710  0.2729 -0.2271  0.7161
   64SAPC  H18X 5262  -0.376   4.172   8.656  1.9648  0.4448 -1.8029
   64SAPC  H18Y 5263  -0.414   4.276   8.788  1.0831 -0.5334  1.6164
   64SAPC  H18Z 5264  -0.241   4.242   8.766  1.0616 -0.6051 -0.7068
   65SAPC     N 5265   1.383   4.054   6.039 -0.2969 -0.5229  0.3392
   65SAPC   C12 5266   1.367   4.032   6.184 -0.3621  0.1049 -0.4132
   65SAPC  H12A 5267   1.468   4.030   6.222 -0.0441 -1.3045 -1.2546
   65SAPC  H12B 5268   1.323   3.935   6.202  0.2690  0.0839  1.2435
   65SAPC   C13 5269   1.398   4.201   6.011 -0.4148 -0.5200 -0.2391
   65SAPC  H13A 5270   1.488   4.239   6.056  1.2638 -1.4469 -2.6428
   65SAPC  H13B 5271   1.407   4.216   5.905  0.4050  1.6830  0.0957
   65SAPC  H13C 5272   1.313   4.257   6.046  0.7958  1.7112 -0.7036
   65SAPC   C14 5273   1.504   3.978   5.992  0.2074 -0.0678  0.1754
   65SAPC  H14A 5274   1.593   4.024   6.033 -0.6276  0.8061  1.0784
   65SAPC  H14B 5275   1.491   3.877   6.027 -0.8771  0.1250  0.3769
   65SAPC  H14C 5276   1.525   3.981   5.886 -0.6649 -0.9436 -0.0396
   65SAPC   C15 5277   1.261   4.004   5.967 -0.6719  0.8135 -0.4994
   65SAPC  H15A 5278   1.179   4.065   6.003 -1.3904  0.0935 -0.8695
   65SAPC  H15B 5279   1.280   4.020   5.862  1.7210 -1.7029 -0.5756
   65SAPC  H15C 5280   1.237   3.902   5.991 -0.5811  0.9163  0.0244
   65SAPC   C11 5281   1.281   4.133   6.268 -0.6883  0.8471 -0.5536
   65SAPC  H11A 5282   1.333   4.230   6.283  1.1918 -0.4249  1.7217
   65SAPC  H11B 5283   1.275   4.077   6.364 -2.8718 -0.6822 -1.4784
   65SAPC     P 5284   1.039   4.054   6.255  0.3032  0.4430 -0.0453
   65SAPC   O13 5285   0.919   4.119   6.206  0.1845 -0.4646  0.1984
   65SAPC   O14 5286   1.071   3.917   6.213  0.5863  0.3878 -0.1824
   65SAPC   O12 5287   1.156   4.144   6.208 -0.1847 -0.1487  0.3746
   65SAPC   O11 5288   1.049   4.071   6.411 -0.4195 -0.5049  0.4058
   65SAPC    C1 5289   0.986   4.182   6.482  0.2620  0.2005  0.5360
   65SAPC    HA 5290   0.910   4.227   6.416 -0.5069  0.6793  1.7231
   65SAPC    HB 5291   0.933   4.133   6.567 -1.3832 -0.4084 -0.7880
   65SAPC    C2 5292   1.094   4.281   6.537  0.3334 -0.9919 -0.3705
   65SAPC    HS 5293   1.142   4.321   6.445 -1.4583  0.8464 -0.5975
   65SAPC   O21 5294   1.182   4.214   6.627 -0.1599 -0.5035  0.0142
   65SAPC   C21 5295   1.305   4.263   6.630  0.0920 -0.8617  0.9015
   65SAPC   O22 5296   1.336   4.356   6.562  0.0081 -0.2603 -0.5773
   65SAPC   C22 5297   1.384   4.219   6.751  0.7832  0.0654 -0.0145
   65SAPC   H2R 5298   1.425   4.312   6.796 -1.7041 -0.0073  2.7725
   65SAPC   H2S 5299   1.318   4.179   6.831  1.4020 -0.5250  0.2063
   65SAPC    C3 5300   1.028   4.400   6.615 -0.2702  0.5550 -0.2292
   65SAPC    HX 5301   0.952   4.444   6.546 -0.6008  3.5527  1.8485
   65SAPC    HY 5302   1.102   4.481   6.634  0.8304 -1.1848  4.1247
   65SAPC   O31 5303   0.957   4.367   6.732  0.3216  0.1337 -0.4529
   65SAPC   C31 5304   1.028   4.384   6.841  0.5981 -0.8759  1.4857
   65SAPC   O32 5305   1.139   4.436   6.840  0.0306 -0.0094 -0.5661
   65SAPC   C32 5306   0.955   4.314   6.953  0.2093  0.5686  0.4982
   65SAPC   H2X 5307   0.915   4.218   6.912  1.3300 -0.6717  2.1549
   65SAPC   H2Y 5308   0.868   4.373   6.987 -0.4263 -0.3723  0.5552
   65SAPC   C23 5309   1.500   4.122   6.703 -0.6139 -0.1268 -0.0189
   65SAPC   H3R 5310   1.583   4.173   6.651  1.9236 -2.0370  1.9045
   65SAPC   H3S 5311   1.464   4.046   6.630  1.6072 -0.4030 -0.9089
   65SAPC   C24 5312   1.561   4.046   6.814 -0.3466  0.2453 -0.1083
   65SAPC   H4R 5313   1.592   4.123   6.888 -0.0002 -1.8732  2.0966
   65SAPC   H4S 5314   1.645   3.984   6.776  0.0978  0.8150 -0.0632
   65SAPC   C25 5315   1.463   3.948   6.870 -0.2144 -0.2736 -0.5928
   65SAPC   H5R 5316   1.393   3.903   6.798 -1.9318  1.2169  0.0540
   65SAPC   C26 5317   1.446   3.916   7.003  0.3099 -0.0202 -0.5939
   65SAPC   H6R 5318   1.362   3.848   7.023  0.3353 -0.4173 -1.7347
   65SAPC   C27 5319   1.515   3.976   7.131 -0.0260 -0.1413  0.8886
   65SAPC   H7R 5320   1.584   4.059   7.108  2.7282 -2.0269  1.8703
   65SAPC   H7S 5321   1.576   3.886   7.154  0.0247 -1.7845 -4.2817
   65SAPC   C28 5322   1.426   4.013   7.247 -0.5688 -0.2045 -0.4057
   65SAPC   H8R 5323   1.360   4.101   7.235 -1.4649 -0.5647  1.6049
   65SAPC   C29 5324   1.442   3.965   7.374  0.4841 -0.7914 -0.0356
   65SAPC   H9R 5325   1.374   3.992   7.456  0.5175  0.7563 -0.5041
   65SAPC  C210 5326   1.542   3.867   7.424 -0.5532  0.4680 -0.1972
   65SAPC  H10R 5327   1.614   3.916   7.493  0.5618 -1.5944  0.1731
   65SAPC  H10S 5328   1.614   3.826   7.351  1.0356 -1.5065  2.2860
   65SAPC  C211 5329   1.471   3.761   7.509 -0.4028  0.6423  0.5743
   65SAPC  H11R 5330   1.456   3.664   7.458  2.4776  0.3682  0.0488
   65SAPC  C212 5331   1.432   3.780   7.635  0.3348 -0.7239 -0.1797
   65SAPC  H12R 5332   1.386   3.696   7.689 -1.0557  0.0901 -0.0372
   65SAPC  C213 5333   1.442   3.896   7.728 -0.1086  0.4049 -0.2599
   65SAPC  H13R 5334   1.348   3.901   7.786 -0.0410 -1.7572  0.1288
   65SAPC  H13S 5335   1.462   3.989   7.670  0.5882  0.6949  0.4354
   65SAPC  C214 5336   1.561   3.868   7.820 -0.2796  0.0321 -0.1516
   65SAPC  H14R 5337   1.657   3.913   7.792 -0.5330  2.4213  2.3982
   65SAPC  C215 5338   1.553   3.825   7.944 -0.1376  0.5749 -0.3355
   65SAPC  H15R 5339   1.643   3.817   8.007  0.6503 -2.4633 -1.6864
   65SAPC  C216 5340   1.436   3.795   8.024 -0.1107 -0.3809  0.3159
   65SAPC  H16R 5341   1.344   3.854   8.006  0.3672 -0.4026 -2.8892
   65SAPC  H16S 5342   1.470   3.832   8.123 -2.7673  0.2440  1.0557
   65SAPC  C217 5343   1.406   3.643   8.036 -0.2016  0.1103  0.2269
   65SAPC  H17R 5344   1.403   3.584   7.942  0.1684  0.9543 -0.3285
   65SAPC  H17S 5345   1.302   3.636   8.074 -1.3402 -1.9043 -2.8244
   65SAPC  C218 5346   1.504   3.569   8.128  0.2852  0.4202  0.4169
   65SAPC  H18R 5347   1.512   3.625   8.223 -1.5692  1.0812  0.2235
   65SAPC  H18S 5348   1.603   3.575   8.076  0.6841  0.8978  1.2162
   65SAPC  C219 5349   1.475   3.420   8.163 -0.0658  0.4293  0.1974
   65SAPC  H19R 5350   1.454   3.361   8.070 -0.3697  2.7193 -1.2726
   65SAPC  H19S 5351   1.379   3.413   8.220 -1.6449 -2.6387 -2.4976
   65SAPC  C220 5352   1.575   3.339   8.247 -0.2378  0.5588  0.4356
   65SAPC  H20R 5353   1.610   3.399   8.334  2.6107  2.3693 -1.7703
   65SAPC  H20S 5354   1.658   3.321   8.175 -2.1442  1.4457 -2.1264
   65SAPC  H20T 5355   1.526   3.247   8.285  1.0939 -1.0068 -1.4595
   65SAPC   C33 5356   1.042   4.278   7.073  0.2936 -0.7729 -0.0972
   65SAPC   H3X 5357   1.067   4.372   7.126 -1.1200 -0.1182 -0.5567
   65SAPC   H3Y 5358   1.139   4.239   7.034  0.2076 -0.9962 -0.0871
   65SAPC   C34 5359   0.965   4.195   7.171 -0.6805 -0.1870  1.6454
   65SAPC   H4X 5360   0.918   4.107   7.124  0.1396 -0.7210  1.8160
   65SAPC   H4Y 5361   0.892   4.262   7.221  0.3992  1.8757  0.5905
   65SAPC   C35 5362   1.052   4.145   7.288 -0.1662  0.1098  0.3778
   65SAPC   H5X 5363   1.131   4.222   7.304 -3.2514  3.3150  1.4042
   65SAPC   H5Y 5364   1.098   4.048   7.258 -2.6348 -1.6079  1.8227
   65SAPC   C36 5365   0.967   4.130   7.411 -0.4594 -0.6151  0.3181
   65SAPC   H6X 5366   0.897   4.046   7.391 -1.1109 -0.3894  1.5309
   65SAPC   H6Y 5367   0.904   4.221   7.429  1.1735  0.0490  3.4114
   65SAPC   C37 5368   1.031   4.089   7.544 -0.3653 -0.1656 -0.1721
   65SAPC   H7X 5369   1.090   4.171   7.591  0.5544 -1.2901  0.6952
   65SAPC   H7Y 5370   1.099   4.006   7.516  0.6512  0.1311  1.2887
   65SAPC   C38 5371   0.927   4.041   7.648  0.1826 -0.2254 -0.0202
   65SAPC   H8X 5372   0.877   3.955   7.600  1.2360  0.0563 -1.7241
   65SAPC   H8Y 5373   0.847   4.116   7.666 -0.7638 -1.0622 -0.6576
   65SAPC   C39 5374   0.991   4.001   7.782 -0.2786 -0.7044  0.0763
   65SAPC   H9X 5375   1.036   4.090   7.832 -3.6841  0.0137  2.2229
   65SAPC   H9Y 5376   1.074   3.934   7.754  0.5606  0.6583 -0.7902
   65SAPC  C310 5377   0.891   3.944   7.876  0.1792  0.0863  0.0116
   65SAPC  H10X 5378   0.850   3.856   7.822  2.0880 -0.6323 -0.3251
   65SAPC  H10Y 5379   0.821   4.029   7.891  0.8458  0.5162  0.7773
   65SAPC  C311 5380   0.948   3.894   8.011 -0.0193  0.7067  0.2545
   65SAPC  H11X 5381   0.976   3.985   8.067  1.3145 -0.3093  1.3024
   65SAPC  H11Y 5382   1.034   3.828   7.988 -1.3710 -0.8155 -0.7241
   65SAPC  C312 5383   0.846   3.807   8.081 -0.3505  0.7170 -0.4258
   65SAPC  H12X 5384   0.828   3.716   8.020 -2.0697 -0.4389  1.6816
   65SAPC  H12Y 5385   0.753   3.867   8.086  0.8300  2.8654 -2.1178
   65SAPC  C313 5386   0.900   3.766   8.226  0.7747  0.3267  0.1112
   65SAPC  H13X 5387   0.816   3.745   8.295 -0.7966  2.2495 -1.1114
   65SAPC  H13Y 5388   0.924   3.862   8.276 -2.1204  0.5038  1.3533
   65SAPC  C314 5389   1.017   3.671   8.222 -0.4188  0.5584 -0.1868
   65SAPC  H14X 5390   1.092   3.704   8.147  0.2529  0.5486  0.4700
   65SAPC  H14Y 5391   0.972   3.578   8.180 -1.0686  0.6844  0.2132
   65SAPC  C315 5392   1.097   3.643   8.344 -0.3118 -0.1552 -0.1781
   65SAPC  H15X 5393   1.148   3.544   8.342 -2.2238 -1.2041 -0.1295
   65SAPC  H15Y 5394   1.022   3.626   8.424 -0.1612 -3.1351 -0.5610
   65SAPC  C316 5395   1.208   3.746   8.375 -0.3638  0.2257 -0.5170
   65SAPC  H16X 5396   1.155   3.843   8.380  1.9911  1.5269  3.1063
   65SAPC  H16Y 5397   1.278   3.750   8.290 -1.6867 -0.2694 -1.6663
   65SAPC  C317 5398   1.260   3.712   8.515  0.1231  0.0865  0.5197
   65SAPC  H17X 5399   1.308   3.612   8.510 -1.9700 -0.9343 -1.1238
   65SAPC  H17Y 5400   1.167   3.714   8.576 -1.1193  0.1044 -1.2927
   65SAPC  C318 5401   1.372   3.807   8.566 -0.0568  0.3930  0.3139
   65SAPC  H18X 5402   1.325   3.907   8.577 -0.9262  0.2424 -1.6011
   65SAPC  H18Y 5403   1.455   3.813   8.493 -0.2873 -1.4813 -0.1671
   65SAPC  H18Z 5404   1.417   3.765   8.658  2.6222  0.0956 -1.0478
   66SAPC     N 5405   3.848   5.524   6.201  0.0497  0.2374  0.3698
   66SAPC   C12 5406   3.899   5.540   6.338 -0.2921 -0.1490 -0.5125
   66SAPC  H12A 5407   3.863   5.463   6.405 -2.4643  0.4688 -0.8800
   66SAPC  H12B 5408   3.846   5.626   6.377 -0.0053 -0.5010  0.7074
   66SAPC   C13 5409   3.698   5.504   6.214 -0.2072  0.5249 -0.6159
   66SAPC  H13A 5410   3.647   5.471   6.125  1.9433 -2.0562 -1.0169
   66SAPC  H13B 5411   3.683   5.430   6.292 -0.2516  0.1153 -1.0110
   66SAPC  H13C 5412   3.656   5.593   6.259 -1.3861 -1.4036  2.3838
   66SAPC   C14 5413   3.882   5.645   6.124  0.5401  0.4167  0.7566
   66SAPC  H14A 5414   3.880   5.733   6.186 -0.9637 -0.3009  1.7807
   66SAPC  H14B 5415   3.973   5.640   6.066 -0.1658 -0.0650 -0.3554
   66SAPC  H14C 5416   3.811   5.667   6.045 -1.1277  1.4689  2.4679
   66SAPC   C15 5417   3.916   5.418   6.132 -0.0393  0.2756  0.4658
   66SAPC  H15A 5418   3.898   5.444   6.029  2.2583  2.0798  0.4108
   66SAPC  H15B 5419   4.023   5.424   6.150 -0.0365  0.2433  0.4598
   66SAPC  H15C 5420   3.876   5.324   6.166  0.0964 -0.8513 -2.2524
   66SAPC   C11 5421   4.052   5.551   6.354  0.1223  0.1898 -0.4063
   66SAPC  H11A 5422   4.098   5.600   6.442  1.4524  0.0909 -1.0129
   66SAPC  H11B 5423   4.089   5.604   6.264  0.2620  2.2591  0.8122
   66SAPC     P 5424   4.122   5.301   6.448  0.2228  0.0995 -0.6949
   66SAPC   O13 5425   3.984   5.272   6.492  0.2775  0.1583  0.9700
   66SAPC   O14 5426   4.201   5.185   6.398  0.0390 -0.4261  0.4132
   66SAPC   O12 5427   4.114   5.419   6.341  0.0609  0.0220  0.5042
   66SAPC   O11 5428   4.193   5.354   6.582 -0.9974 -0.8918  0.1205
   66SAPC    C1 5429   4.130   5.359   6.708 -0.5911 -0.4090 -0.7903
   66SAPC    HA 5430   4.032   5.307   6.713  0.3140 -2.1353 -0.2428
   66SAPC    HB 5431   4.204   5.325   6.784 -1.4273  2.3351  1.4184
   66SAPC    C2 5432   4.103   5.515   6.745  0.5023 -0.3493  0.0685
   66SAPC    HS 5433   4.039   5.546   6.659  0.7241  1.3871  0.4864
   66SAPC   O21 5434   4.232   5.580   6.748  0.1800 -0.1753 -0.1361
   66SAPC   C21 5435   4.235   5.713   6.713 -0.6112  0.1790  0.1233
   66SAPC   O22 5436   4.141   5.778   6.673  0.1342  0.1510 -0.2905
   66SAPC   C22 5437   4.374   5.766   6.744 -0.6493  0.6256  0.1889
   66SAPC   H2R 5438   4.389   5.751   6.853 -0.3476  1.4031  0.2567
   66SAPC   H2S 5439   4.446   5.703   6.686  1.4784  2.3699  0.8163
   66SAPC    C3 5440   4.033   5.533   6.877 -0.4483  0.4390 -0.7296
   66SAPC    HX 5441   4.008   5.642   6.879  0.4848  0.6634 -0.5791
   66SAPC    HY 5442   4.091   5.505   6.967 -1.9659  1.4697  0.6280
   66SAPC   O31 5443   3.910   5.457   6.877  0.0447 -0.3760  0.2997
   66SAPC   C31 5444   3.805   5.519   6.827 -0.1361 -0.1162 -0.0878
   66SAPC   O32 5445   3.809   5.630   6.770 -0.1278  0.2840 -0.8242
   66SAPC   C32 5446   3.681   5.462   6.887  0.2574  0.0857 -0.7839
   66SAPC   H2X 5447   3.685   5.362   6.936 -4.8451  0.6659  1.3943
   66SAPC   H2Y 5448   3.615   5.455   6.798 -1.1213 -2.0779  0.3303
   66SAPC   C23 5449   4.408   5.912   6.713 -0.1353  0.3560 -0.0100
   66SAPC   H3R 5450   4.359   5.948   6.620 -0.4203 -1.0606 -0.4350
   66SAPC   H3S 5451   4.519   5.919   6.709 -0.0242 -1.4503 -1.8929
   66SAPC   C24 5452   4.365   6.012   6.822  0.5692 -0.4874 -0.1632
   66SAPC   H4R 5453   4.408   5.986   6.921  2.0795  0.5992 -0.4899
   66SAPC   H4S 5454   4.254   6.009   6.817  0.5705 -1.5419  0.2182
   66SAPC   C25 5455   4.406   6.153   6.787  0.7391 -0.6791  0.1471
   66SAPC   H5R 5456   4.445   6.174   6.687  0.2619  1.6128  0.3774
   66SAPC   C26 5457   4.375   6.263   6.855 -0.4084  0.0401  0.5040
   66SAPC   H6R 5458   4.412   6.353   6.803  4.1002 -1.5413  0.5481
   66SAPC   C27 5459   4.313   6.279   6.991  0.2754 -0.7829  0.4558
   66SAPC   H7R 5460   4.263   6.187   7.029  2.4471 -2.1342  0.2035
   66SAPC   H7S 5461   4.232   6.355   6.979  2.1937  1.7096  2.2604
   66SAPC   C28 5462   4.402   6.326   7.103 -0.1930  0.1539 -0.2199
   66SAPC   H8R 5463   4.468   6.408   7.070  0.9363 -0.7197 -0.1995
   66SAPC   C29 5464   4.413   6.298   7.234  0.2093 -0.0464  0.1348
   66SAPC   H9R 5465   4.471   6.359   7.305 -0.8621  1.7592 -0.4767
   66SAPC  C210 5466   4.323   6.202   7.304  0.4214 -0.4157 -0.3428
   66SAPC  H10R 5467   4.218   6.221   7.274  0.3157  0.4221  0.5157
   66SAPC  H10S 5468   4.318   6.224   7.412  0.9081 -0.4651 -0.3102
   66SAPC  C211 5469   4.347   6.058   7.281 -0.1611  0.1978  0.1535
   66SAPC  H11R 5470   4.367   6.039   7.174 -0.6796  0.1445  0.0632
   66SAPC  C212 5471   4.336   5.955   7.369  0.4437 -0.5103  0.6659
   66SAPC  H12R 5472   4.348   5.853   7.329  1.1129 -0.0927 -0.2349
   66SAPC  C213 5473   4.293   5.968   7.514  0.4713 -0.4109 -0.2848
   66SAPC  H13R 5474   4.291   6.074   7.545 -1.1294  0.0396 -1.7380
   66SAPC  H13S 5475   4.353   5.911   7.588 -2.6275  0.1280  2.9543
   66SAPC  C214 5476   4.151   5.912   7.528  1.1855  0.7414 -0.1932
   66SAPC  H14R 5477   4.095   5.889   7.436  0.1757 -0.8976  0.7682
   66SAPC  C215 5478   4.092   5.876   7.645 -0.5385  0.2891 -0.3207
   66SAPC  H15R 5479   3.994   5.827   7.642  0.1303 -1.5003  2.9250
   66SAPC  C216 5480   4.160   5.900   7.771 -0.0440 -0.1503  0.1492
   66SAPC  H16R 5481   4.252   5.959   7.751  0.7132 -1.1995  0.4274
   66SAPC  H16S 5482   4.183   5.802   7.819 -0.0050 -0.0277  0.3800
   66SAPC  C217 5483   4.074   5.985   7.864 -0.5011 -0.5020  0.1025
   66SAPC  H17R 5484   3.981   5.932   7.892  0.0598 -0.8557  1.4050
   66SAPC  H17S 5485   4.038   6.079   7.819 -0.0619 -0.2364  0.2898
   66SAPC  C218 5486   4.146   6.008   7.995 -0.6059 -0.1787  0.3088
   66SAPC  H18R 5487   4.235   6.070   7.970 -0.5466 -1.1097 -2.0644
   66SAPC  H18S 5488   4.180   5.905   8.020 -1.1307 -1.3060 -3.1892
   66SAPC  C219 5489   4.058   6.073   8.103 -1.1634  0.9148  0.1432
   66SAPC  H19R 5490   3.979   5.998   8.126  0.5435 -1.0818 -0.2105
   66SAPC  H19S 5491   4.004   6.160   8.061 -1.6685  0.3569 -0.3847
   66SAPC  C220 5492   4.141   6.086   8.230  0.8323 -0.1815 -0.1762
   66SAPC  H20R 5493   4.086   6.150   8.302 -1.4470  1.4642 -3.1222
   66SAPC  H20S 5494   4.237   6.139   8.213  0.0869  0.6146 -2.2863
   66SAPC  H20T 5495   4.158   5.986   8.275 -0.1566 -2.1291 -3.7427
   66SAPC   C33 5496   3.610   5.559   6.980  0.1390 -0.2605 -0.1661
   66SAPC   H3X 5497   3.613   5.665   6.945 -0.9333  0.6354  2.2660
   66SAPC   H3Y 5498   3.673   5.557   7.072  0.0333 -1.5162 -0.1042
   66SAPC   C34 5499   3.471   5.520   7.019 -0.8807  0.2637  0.2937
   66SAPC   H4X 5500   3.469   5.411   7.038  1.7193 -0.1326 -1.1863
   66SAPC   H4Y 5501   3.414   5.544   6.926  0.2738  2.1131  0.0017
   66SAPC   C35 5502   3.422   5.613   7.124 -0.3568  0.2120 -0.0685
   66SAPC   H5X 5503   3.312   5.601   7.119 -0.2705 -0.1709 -1.6740
   66SAPC   H5Y 5504   3.443   5.713   7.080  1.4166  0.3959  1.0834
   66SAPC   C36 5505   3.466   5.571   7.265 -0.8426 -0.4246  0.4111
   66SAPC   H6X 5506   3.572   5.594   7.288 -1.2036 -1.1761  3.1496
   66SAPC   H6Y 5507   3.454   5.460   7.267  0.0758 -0.5250  1.0549
   66SAPC   C37 5508   3.390   5.648   7.379  0.1912 -0.2881  0.0682
   66SAPC   H7X 5509   3.280   5.630   7.373  0.5137 -2.9427  0.5691
   66SAPC   H7Y 5510   3.413   5.756   7.367  0.6238 -0.5417 -1.6066
   66SAPC   C38 5511   3.439   5.603   7.519 -0.0999  0.3039  0.1479
   66SAPC   H8X 5512   3.548   5.626   7.529 -0.4516  1.4093  2.0252
   66SAPC   H8Y 5513   3.439   5.493   7.529  1.9792  0.1028 -1.2492
   66SAPC   C39 5514   3.362   5.677   7.630 -0.3836  0.2088 -0.7532
   66SAPC   H9X 5515   3.261   5.632   7.629  0.2033 -1.1250 -1.3911
   66SAPC   H9Y 5516   3.358   5.782   7.594 -1.1185  0.0963 -1.0043
   66SAPC  C310 5517   3.421   5.670   7.769 -0.6474 -0.1001 -0.2615
   66SAPC  H10X 5518   3.526   5.704   7.758 -0.8047  0.9914  1.2680
   66SAPC  H10Y 5519   3.426   5.568   7.813 -0.6195  0.4965  1.1934
   66SAPC  C311 5520   3.341   5.752   7.876  0.8615 -0.2421  0.0027
   66SAPC  H11X 5521   3.231   5.735   7.866  0.5890  1.1853  0.3030
   66SAPC  H11Y 5522   3.348   5.859   7.845 -0.8779  0.1215  0.7606
   66SAPC  C312 5523   3.387   5.731   8.020  0.9529 -0.2867 -0.9917
   66SAPC  H12X 5524   3.482   5.787   8.026  1.6945 -1.6726  1.4744
   66SAPC  H12Y 5525   3.406   5.623   8.038 -1.4654 -1.1083 -2.8041
   66SAPC  C313 5526   3.273   5.762   8.125  0.0522 -0.3089 -0.0122
   66SAPC  H13X 5527   3.183   5.701   8.100 -0.9416  1.1650 -0.1287
   66SAPC  H13Y 5528   3.252   5.869   8.105  2.6670  0.5574  1.3973
   66SAPC  C314 5529   3.315   5.726   8.272  0.1943  0.3810  0.5787
   66SAPC  H14X 5530   3.228   5.745   8.338  1.2237  0.4236  1.9563
   66SAPC  H14Y 5531   3.399   5.790   8.307  0.1621 -0.0135  1.4013
   66SAPC  C315 5532   3.358   5.582   8.308  0.2316  0.7324 -0.5010
   66SAPC  H15X 5533   3.297   5.503   8.259  0.2841 -0.0399  0.6592
   66SAPC  H15Y 5534   3.329   5.570   8.415  3.6344  1.8636  0.6743
   66SAPC  C316 5535   3.504   5.546   8.288 -0.9459 -0.3612  0.8011
   66SAPC  H16X 5536   3.562   5.631   8.331  0.4152  0.4485 -2.3704
   66SAPC  H16Y 5537   3.522   5.546   8.179  0.3352 -0.6900  0.9920
   66SAPC  C317 5538   3.555   5.408   8.331  0.2407 -0.3199  0.4439
   66SAPC  H17X 5539   3.666   5.418   8.338  0.0150  2.5685  1.0317
   66SAPC  H17Y 5540   3.535   5.335   8.249  1.6094  1.0269 -1.1771
   66SAPC  C318 5541   3.499   5.349   8.463  0.5737 -0.2317  1.0385
   66SAPC  H18X 5542   3.389   5.339   8.447  0.2851 -0.8778  3.0912
   66SAPC  H18Y 5543   3.514   5.408   8.556  0.8555  1.6223 -0.1338
   66SAPC  H18Z 5544   3.539   5.245   8.470 -2.7253 -1.7007  0.2419
   67SAPC     N 5545   4.933   6.478   6.479 -0.4398 -0.1528  0.5051
   67SAPC   C12 5546   5.031   6.411   6.569 -0.5480  0.2038 -0.6322
   67SAPC  H12A 5547   5.095   6.486   6.614  0.0893 -1.5266  1.5499
   67SAPC  H12B 5548   5.086   6.342   6.508  0.3951 -0.0894  0.5045
   67SAPC   C13 5549   4.833   6.387   6.416  0.2525  0.3791  0.0898
   67SAPC  H13A 5550   4.766   6.339   6.486  0.1490 -1.3876 -1.1554
   67SAPC  H13B 5551   4.773   6.449   6.352  0.5464 -0.0032 -0.5650
   67SAPC  H13C 5552   4.881   6.312   6.355  0.2734  1.3782 -1.1657
   67SAPC   C14 5553   4.858   6.583   6.555 -0.7410  0.1469  0.1268
   67SAPC  H14A 5554   4.774   6.624   6.500  0.1075  1.9482  0.1123
   67SAPC  H14B 5555   4.803   6.540   6.637 -0.3028 -0.7591 -0.0451
   67SAPC  H14C 5556   4.914   6.672   6.578  0.7428 -0.5873 -0.5545
   67SAPC   C15 5557   5.000   6.548   6.367  0.4880  0.3943 -1.1555
   67SAPC  H15A 5558   5.059   6.478   6.309 -0.4391 -1.3488 -0.0866
   67SAPC  H15B 5559   4.931   6.599   6.300 -2.0635 -0.9025  0.3550
   67SAPC  H15C 5560   5.068   6.614   6.418  0.1505 -1.0128  1.2279
   67SAPC   C11 5561   4.976   6.340   6.693 -0.7357  0.5950  0.2191
   67SAPC  H11A 5562   4.933   6.411   6.766  1.3538  2.1494  0.0279
   67SAPC  H11B 5563   5.060   6.294   6.750  0.7802  1.2878 -1.3551
   67SAPC     P 5564   4.913   6.102   6.603  0.2425  0.0896  0.4637
   67SAPC   O13 5565   4.822   6.078   6.483 -0.7789 -0.0928  0.2987
   67SAPC   O14 5566   5.056   6.100   6.565  0.4265  0.5417 -0.1381
   67SAPC   O12 5567   4.876   6.244   6.662  0.0008  0.3686  0.3025
   67SAPC   O11 5568   4.889   6.003   6.714  0.0839 -0.1937  0.1311
   67SAPC    C1 5569   4.778   5.997   6.801 -0.1862 -0.3376 -0.7162
   67SAPC    HA 5570   4.709   6.084   6.794 -0.0238  0.4416  4.0038
   67SAPC    HB 5571   4.729   5.901   6.772  0.4460 -0.3419 -1.8233
   67SAPC    C2 5572   4.815   5.990   6.953 -0.0654 -0.6389 -0.2946
   67SAPC    HS 5573   4.896   6.065   6.965 -0.4025 -0.0062 -1.7633
   67SAPC   O21 5574   4.853   5.863   6.987  0.0873  0.2790 -0.3750
   67SAPC   C21 5575   4.985   5.841   6.986 -0.6023 -0.6118  0.1946
   67SAPC   O22 5576   5.072   5.921   6.948  0.3051 -0.2349  0.2554
   67SAPC   C22 5577   5.004   5.720   7.079 -0.0327  0.2292 -0.7530
   67SAPC   H2R 5578   4.944   5.728   7.173 -0.9085 -3.1168 -0.8700
   67SAPC   H2S 5579   4.976   5.631   7.018 -0.1172 -0.0393 -0.3352
   67SAPC    C3 5580   4.694   6.016   7.051 -0.1939  0.2408  0.1396
   67SAPC    HX 5581   4.619   5.939   7.022  0.8414 -0.4399 -0.8625
   67SAPC    HY 5582   4.651   6.115   7.027 -3.0269 -1.0935 -0.7773
   67SAPC   O31 5583   4.730   5.997   7.192 -0.1644 -0.0649 -0.6061
   67SAPC   C31 5584   4.777   6.110   7.242 -0.2637  0.1817 -0.3460
   67SAPC   O32 5585   4.796   6.218   7.173 -0.0275  0.4382 -0.4809
   67SAPC   C32 5586   4.830   6.090   7.386 -0.2179 -0.3894 -0.0278
   67SAPC   H2X 5587   4.743   6.094   7.455  0.2389 -0.3792  0.5499
   67SAPC   H2Y 5588   4.882   6.184   7.415 -0.3632 -0.4997  0.5942
   67SAPC   C23 5589   5.149   5.690   7.143  0.1826  0.4957 -0.0544
   67SAPC   H3R 5590   5.172   5.769   7.218  2.8492 -2.4155  2.5061
   67SAPC   H3S 5591   5.228   5.698   7.065 -0.0703 -2.5319 -0.7396
   67SAPC   C24 5592   5.164   5.551   7.207  0.0300  0.2462  0.1374
   67SAPC   H4R 5593   5.079   5.545   7.280 -0.2157 -1.3844 -0.2394
   67SAPC   H4S 5594   5.256   5.546   7.268 -1.2363 -0.6713  2.0749
   67SAPC   C25 5595   5.166   5.444   7.104  1.0360  0.0189 -0.2000
   67SAPC   H5R 5596   5.223   5.459   7.011  1.8705  0.2407  0.3261
   67SAPC   C26 5597   5.110   5.324   7.128  0.3084 -0.1179  0.0733
   67SAPC   H6R 5598   5.095   5.258   7.041  2.7100  0.9244 -1.2060
   67SAPC   C27 5599   5.048   5.269   7.253 -0.2534  0.2162 -0.2338
   67SAPC   H7R 5600   4.985   5.180   7.231 -2.2588  2.2202 -3.4234
   67SAPC   H7S 5601   4.992   5.340   7.318  1.3007  0.7265  0.6013
   67SAPC   C28 5602   5.169   5.224   7.337 -0.2908 -0.5586  0.5065
   67SAPC   H8R 5603   5.273   5.224   7.299  0.2470 -2.4556  1.8097
   67SAPC   C29 5604   5.150   5.166   7.460  0.3065  0.4321  0.3251
   67SAPC   H9R 5605   5.243   5.147   7.515  1.1053 -0.1087 -1.1411
   67SAPC  C210 5606   5.016   5.153   7.528 -0.5586 -0.5830  0.0502
   67SAPC  H10R 5607   4.950   5.116   7.447 -0.5155  1.4794 -1.0147
   67SAPC  H10S 5608   4.996   5.255   7.570  0.5720 -1.1577  2.1454
   67SAPC  C211 5609   5.014   5.066   7.655  0.0073 -0.4650  0.3514
   67SAPC  H11R 5610   5.109   5.016   7.682  1.4813  1.5414 -0.7748
   67SAPC  C212 5611   4.913   5.081   7.742 -0.4244  0.0901 -1.1788
   67SAPC  H12R 5612   4.915   5.013   7.829 -0.4263 -0.1906 -1.3943
   67SAPC  C213 5613   4.788   5.165   7.733  0.2076  0.3698  0.3548
   67SAPC  H13R 5614   4.780   5.209   7.631 -0.9621 -1.4446 -0.3757
   67SAPC  H13S 5615   4.776   5.255   7.797  0.0017  0.8534 -0.3573
   67SAPC  C214 5616   4.663   5.082   7.764  1.0540  0.4130 -0.3468
   67SAPC  H14R 5617   4.665   5.057   7.871  0.4540 -2.5291 -0.9510
   67SAPC  C215 5618   4.568   5.034   7.681  0.1549 -0.7001 -0.1538
   67SAPC  H15R 5619   4.477   4.992   7.726 -0.8107  0.8542 -0.5555
   67SAPC  C216 5620   4.557   5.050   7.533 -0.1063 -0.5617 -0.6960
   67SAPC  H16R 5621   4.637   5.114   7.490 -1.0090  1.9980  1.1502
   67SAPC  H16S 5622   4.470   5.114   7.510 -1.4058 -1.2511  1.8508
   67SAPC  C217 5623   4.525   4.911   7.475  0.5562  1.1333 -0.4922
   67SAPC  H17R 5624   4.434   4.875   7.527  1.0095 -0.3491 -0.6757
   67SAPC  H17S 5625   4.590   4.824   7.500 -2.2933 -0.9851  0.0702
   67SAPC  C218 5626   4.497   4.927   7.326  0.8528  0.5581 -0.2494
   67SAPC  H18R 5627   4.434   5.017   7.310  0.1503  0.2104  0.5150
   67SAPC  H18S 5628   4.446   4.837   7.285  1.6629 -0.4623  0.9065
   67SAPC  C219 5629   4.624   4.934   7.241  1.3695 -0.6599 -0.1585
   67SAPC  H19R 5630   4.613   4.864   7.155  2.3280 -0.0302 -0.8144
   67SAPC  H19S 5631   4.708   4.882   7.293  0.7159 -1.2090  0.3685
   67SAPC  C220 5632   4.671   5.072   7.201 -0.0924 -0.4204  0.1539
   67SAPC  H20R 5633   4.590   5.135   7.159 -1.4096  0.3195  3.5471
   67SAPC  H20S 5634   4.749   5.086   7.122  0.0155  0.6090  0.4299
   67SAPC  H20T 5635   4.703   5.129   7.290 -2.7786 -0.0345  0.9300
   67SAPC   C33 5636   4.898   5.959   7.422  0.3856 -0.3234  0.0571
   67SAPC   H3X 5637   4.996   5.957   7.370  1.0156  1.8274  1.0671
   67SAPC   H3Y 5638   4.835   5.869   7.401 -2.0116  1.8237 -2.7897
   67SAPC   C34 5639   4.914   5.940   7.576 -0.0087  0.2908 -0.5708
   67SAPC   H4X 5640   4.820   5.953   7.634  1.1352  0.8470  1.2432
   67SAPC   H4Y 5641   4.998   6.006   7.607 -0.2289  0.1301  0.3842
   67SAPC   C35 5642   4.967   5.796   7.597 -0.5548  0.3827 -0.2002
   67SAPC   H5X 5643   5.073   5.800   7.564  0.4754 -2.0942  2.3827
   67SAPC   H5Y 5644   4.914   5.722   7.533 -0.7354 -0.8685  1.3223
   67SAPC   C36 5645   4.958   5.744   7.740  0.6242 -0.3732  0.3956
   67SAPC   H6X 5646   4.989   5.638   7.750  2.3173  0.1317  0.8687
   67SAPC   H6Y 5647   4.855   5.757   7.781  0.4408 -1.7500  0.4118
   67SAPC   C37 5648   5.053   5.820   7.835 -0.2768  0.3897  0.5338
   67SAPC   H7X 5649   5.035   5.927   7.809  0.0405  0.1479 -0.7544
   67SAPC   H7Y 5650   5.155   5.784   7.809 -0.3051 -0.0325  1.0010
   67SAPC   C38 5651   5.028   5.791   7.983 -0.0291  0.1566  0.3189
   67SAPC   H8X 5652   5.122   5.791   8.042  1.8840 -1.5350 -2.4529
   67SAPC   H8Y 5653   4.981   5.690   7.986  0.0900  0.1236  1.6499
   67SAPC   C39 5654   4.929   5.892   8.041 -0.2986  0.8345  0.2269
   67SAPC   H9X 5655   4.847   5.908   7.967 -2.9967  1.2353  3.0510
   67SAPC   H9Y 5656   4.979   5.990   8.053 -1.3784  1.9063 -3.0521
   67SAPC  C310 5657   4.856   5.853   8.173  0.4219 -0.2163  0.2293
   67SAPC  H10X 5658   4.829   5.745   8.169  2.6333 -0.8662  1.1485
   67SAPC  H10Y 5659   4.770   5.920   8.196 -1.2876 -2.0853 -0.4065
   67SAPC  C311 5660   4.952   5.873   8.288 -0.2121  0.1588  0.3320
   67SAPC  H11X 5661   5.029   5.949   8.264  1.4991 -1.4513  0.5330
   67SAPC  H11Y 5662   5.007   5.777   8.298 -0.8783 -0.5843 -2.3009
   67SAPC  C312 5663   4.877   5.894   8.422 -0.3134 -0.1356 -0.1397
   67SAPC  H12X 5664   4.814   5.985   8.439  0.1102 -0.2354  2.3005
   67SAPC  H12Y 5665   4.956   5.900   8.500  0.6684 -1.0146 -1.0397
   67SAPC  C313 5666   4.788   5.770   8.470 -0.8099 -1.0228  0.0764
   67SAPC  H13X 5667   4.862   5.688   8.478 -0.4896 -0.6772  0.8475
   67SAPC  H13Y 5668   4.711   5.743   8.396  0.8858 -2.3988 -1.2607
   67SAPC  C314 5669   4.732   5.772   8.610  0.2632 -0.1457  0.1030
   67SAPC  H14X 5670   4.683   5.869   8.629  1.9189  0.7165  0.2059
   67SAPC  H14Y 5671   4.809   5.764   8.690  0.8540  1.7001 -0.2209
   67SAPC  C315 5672   4.652   5.647   8.639  0.1088 -0.3648  0.0352
   67SAPC  H15X 5673   4.717   5.561   8.612 -0.6486 -1.1255  0.5875
   67SAPC  H15Y 5674   4.561   5.652   8.575  1.6475 -2.3144 -2.5099
   67SAPC  C316 5675   4.610   5.628   8.788  0.0177 -0.5534  0.1500
   67SAPC  H16X 5676   4.528   5.701   8.802  0.6089 -0.0749  1.2435
   67SAPC  H16Y 5677   4.698   5.644   8.854  0.3809 -1.6951 -0.0411
   67SAPC  C317 5678   4.560   5.491   8.819  0.0249  0.2439 -0.6888
   67SAPC  H17X 5679   4.625   5.417   8.767 -2.7557 -1.7366 -1.5584
   67SAPC  H17Y 5680   4.465   5.484   8.761 -0.2755 -3.4000 -0.0140
   67SAPC  C318 5681   4.545   5.465   8.969  0.1331 -0.8163 -0.0370
   67SAPC  H18X 5682   4.492   5.547   9.023 -0.6186  0.2691 -2.2917
   67SAPC  H18Y 5683   4.644   5.440   9.011  0.0042 -0.8186  0.2654
   67SAPC  H18Z 5684   4.504   5.362   8.969  2.1280 -1.6722 -1.4396
   68SAPC     N 5685   4.191   6.570   6.056  0.4448  0.7267 -0.1365
   68SAPC   C12 5686   4.184   6.635   6.195 -0.4421  1.0594 -0.0883
   68SAPC  H12A 5687   4.099   6.584   6.238  0.1636  0.9928  1.0512
   68SAPC  H12B 5688   4.160   6.740   6.188  0.7899  1.3355 -0.3915
   68SAPC   C13 5689   4.066   6.582   5.974 -0.3044  0.0214 -0.3943
   68SAPC  H13A 5690   4.078   6.538   5.876 -0.1453 -0.5171 -0.1375
   68SAPC  H13B 5691   3.985   6.539   6.031  0.2925  0.2114  0.6417
   68SAPC  H13C 5692   4.056   6.687   5.951 -0.0134 -0.0542 -0.8715
   68SAPC   C14 5693   4.302   6.631   5.982 -0.5533 -0.0827 -0.4447
   68SAPC  H14A 5694   4.389   6.648   6.044 -0.3048 -0.2254 -0.7496
   68SAPC  H14B 5695   4.324   6.570   5.895 -0.7439  0.5910 -0.9741
   68SAPC  H14C 5696   4.283   6.730   5.943  1.4696  0.1771 -0.8951
   68SAPC   C15 5697   4.215   6.417   6.078 -0.0446 -0.0556  0.8699
   68SAPC  H15A 5698   4.140   6.385   6.148 -2.9811  1.3986 -1.3811
   68SAPC  H15B 5699   4.198   6.365   5.985  3.5294  1.2534 -0.7017
   68SAPC  H15C 5700   4.313   6.396   6.119  1.5805  0.3033 -2.4747
   68SAPC   C11 5701   4.297   6.631   6.303 -0.2606  0.5755  0.5204
   68SAPC  H11A 5702   4.330   6.527   6.321 -0.3160  0.7264  1.5369
   68SAPC  H11B 5703   4.248   6.659   6.399 -3.0415  0.4462 -0.7509
   68SAPC     P 5704   4.560   6.677   6.294  0.0969  0.2210 -0.0801
   68SAPC   O13 5705   4.580   6.532   6.314 -0.7609  0.4164 -0.2650
   68SAPC   O14 5706   4.637   6.739   6.185 -0.1447 -0.6053 -1.0453
   68SAPC   O12 5707   4.411   6.713   6.270  0.6463 -0.2400  0.5954
   68SAPC   O11 5708   4.604   6.747   6.435  0.8613 -0.5731  0.0334
   68SAPC    C1 5709   4.509   6.841   6.494  1.0252  0.9582  0.0392
   68SAPC    HA 5710   4.513   6.935   6.434  0.2943 -0.8730 -3.0740
   68SAPC    HB 5711   4.406   6.801   6.505  0.6275  1.2891 -2.1018
   68SAPC    C2 5712   4.552   6.889   6.638  0.1056 -0.5878  0.5236
   68SAPC    HS 5713   4.663   6.884   6.641  0.2595  1.7374  0.8707
   68SAPC   O21 5714   4.487   6.804   6.731 -0.2277 -0.5660 -0.5267
   68SAPC   C21 5715   4.560   6.781   6.840  0.1686 -0.1509  0.2204
   68SAPC   O22 5716   4.672   6.818   6.854 -0.1163  0.2321  0.1484
   68SAPC   C22 5717   4.482   6.705   6.949  0.4931  0.7213 -0.5990
   68SAPC   H2R 5718   4.373   6.713   6.932  0.5987  0.7542 -1.2642
   68SAPC   H2S 5719   4.509   6.597   6.948 -1.7922  0.0985 -1.0357
   68SAPC    C3 5720   4.506   7.036   6.661 -0.4385  0.2143 -0.4514
   68SAPC    HX 5721   4.396   7.027   6.659 -0.3235 -1.6580 -2.2553
   68SAPC    HY 5722   4.529   7.106   6.578 -2.1842  0.1084 -1.0639
   68SAPC   O31 5723   4.559   7.078   6.785 -0.2523 -0.9252 -0.1794
   68SAPC   C31 5724   4.675   7.143   6.787  0.1638  0.3211 -0.5951
   68SAPC   O32 5725   4.741   7.181   6.697  0.3387  0.3309  0.0499
   68SAPC   C32 5726   4.721   7.126   6.930 -0.0047 -0.5589 -0.0691
   68SAPC   H2X 5727   4.806   7.195   6.949  0.5557 -0.9395 -1.1167
   68SAPC   H2Y 5728   4.766   7.024   6.936  1.4830  0.0594 -0.1849
   68SAPC   C23 5729   4.508   6.756   7.093 -0.1928 -0.0092  0.0621
   68SAPC   H3R 5730   4.466   6.859   7.099 -0.5407 -0.1125 -0.4504
   68SAPC   H3S 5731   4.612   6.771   7.128 -0.2034 -0.7460  0.4167
   68SAPC   C24 5732   4.438   6.679   7.211 -0.1077  0.5153  0.2530
   68SAPC   H4R 5733   4.500   6.586   7.216 -2.5717 -1.2358 -0.1339
   68SAPC   H4S 5734   4.337   6.650   7.177 -0.4329 -2.1705  3.0635
   68SAPC   C25 5735   4.443   6.767   7.330  0.5863 -0.1374 -0.5168
   68SAPC   H5R 5736   4.427   6.873   7.306 -0.9881 -0.8057 -2.7658
   68SAPC   C26 5737   4.473   6.736   7.463  0.4447 -0.0983 -0.3560
   68SAPC   H6R 5738   4.465   6.808   7.546 -0.7043 -0.0983 -0.4609
   68SAPC   C27 5739   4.507   6.600   7.506 -0.2680 -0.8299  0.6467
   68SAPC   H7R 5740   4.516   6.527   7.423 -0.0787 -0.5746  0.4418
   68SAPC   H7S 5741   4.422   6.569   7.571 -0.8937  1.5391  1.0676
   68SAPC   C28 5742   4.631   6.597   7.589 -0.6512 -0.1261  0.6205
   68SAPC   H8R 5743   4.682   6.693   7.611 -1.0836  0.1285  0.5160
   68SAPC   C29 5744   4.669   6.482   7.648  0.6862 -0.1562  0.5664
   68SAPC   H9R 5745   4.763   6.482   7.704 -0.3627 -0.5722  2.3960
   68SAPC  C210 5746   4.605   6.346   7.620 -0.1855 -0.4110 -0.0932
   68SAPC  H10R 5747   4.693   6.279   7.628 -0.9211 -1.2621  1.1699
   68SAPC  H10S 5748   4.588   6.346   7.510  0.3589  0.3638 -0.1890
   68SAPC  C211 5749   4.476   6.293   7.687  0.0842 -0.8104 -0.3577
   68SAPC  H11R 5750   4.386   6.345   7.650 -0.3852 -2.9975 -2.5305
   68SAPC  C212 5751   4.467   6.201   7.784  0.1671  0.3444  0.1652
   68SAPC  H12R 5752   4.373   6.164   7.828  0.9700  0.2761  1.9483
   68SAPC  C213 5753   4.581   6.126   7.847 -0.7132  0.0929  0.5973
   68SAPC  H13R 5754   4.669   6.194   7.850  1.8564 -2.8720 -0.9402
   68SAPC  H13S 5755   4.622   6.050   7.777  1.1447  1.0419  0.5891
   68SAPC  C214 5756   4.568   6.067   7.978 -0.0935  0.1424 -0.5698
   68SAPC  H14R 5757   4.571   5.958   7.984  1.6740  0.2207  1.5206
   68SAPC  C215 5758   4.558   6.129   8.097  0.1745  0.1127 -0.1337
   68SAPC  H15R 5759   4.545   6.067   8.187  3.5618 -1.9344 -0.8891
   68SAPC  C216 5760   4.578   6.279   8.109  0.1524  0.1658 -0.4489
   68SAPC  H16R 5761   4.514   6.318   8.191  1.5876  0.2052  0.6916
   68SAPC  H16S 5762   4.540   6.326   8.016  0.8111 -1.6037 -1.6711
   68SAPC  C217 5763   4.726   6.315   8.134 -0.0107 -0.2061  0.3954
   68SAPC  H17R 5764   4.733   6.424   8.149 -0.8485 -0.1694  0.5148
   68SAPC  H17S 5765   4.783   6.286   8.042 -0.2572 -0.2491  0.2549
   68SAPC  C218 5766   4.794   6.250   8.257  0.2723  0.1299 -1.1060
   68SAPC  H18R 5767   4.903   6.272   8.255  0.3114  0.1754  0.2934
   68SAPC  H18S 5768   4.765   6.143   8.251 -2.2913  0.6772  0.1406
   68SAPC  C219 5769   4.737   6.288   8.403 -0.3343 -0.8706 -0.2371
   68SAPC  H19R 5770   4.794   6.236   8.482 -0.3047 -1.1402 -0.4346
   68SAPC  H19S 5771   4.628   6.271   8.416 -0.6005  2.0422  2.3301
   68SAPC  C220 5772   4.754   6.436   8.430  0.4345 -0.4109  0.3804
   68SAPC  H20R 5773   4.681   6.503   8.381  0.9692 -1.3313 -1.7882
   68SAPC  H20S 5774   4.857   6.471   8.408  1.0957 -2.7692 -0.5333
   68SAPC  H20T 5775   4.749   6.465   8.538  0.3980  2.8231 -0.3748
   68SAPC   C33 5776   4.611   7.150   7.038  0.2528 -0.4926 -0.6848
   68SAPC   H3X 5777   4.522   7.090   7.010  0.5743 -2.5706  2.3046
   68SAPC   H3Y 5778   4.584   7.256   7.056  2.2659  0.3694 -2.3975
   68SAPC   C34 5779   4.656   7.098   7.176  0.7827 -0.3031  0.4090
   68SAPC   H4X 5780   4.752   7.152   7.187  1.3712 -1.0745 -0.7896
   68SAPC   H4Y 5781   4.664   6.988   7.180  1.1622 -0.2902 -0.0288
   68SAPC   C35 5782   4.554   7.153   7.282  0.1980 -0.3277 -0.4566
   68SAPC   H5X 5783   4.449   7.133   7.251  0.2760  3.0505 -3.6032
   68SAPC   H5Y 5784   4.558   7.264   7.276 -0.7608 -0.2604 -0.0593
   68SAPC   C36 5785   4.593   7.103   7.423  0.1010  0.0993 -0.8464
   68SAPC   H6X 5786   4.679   7.155   7.470  0.2021 -1.6878  1.0747
   68SAPC   H6Y 5787   4.625   6.998   7.409 -0.3725 -0.2264  0.3380
   68SAPC   C37 5788   4.476   7.104   7.525 -0.0423 -0.4269 -0.2344
   68SAPC   H7X 5789   4.403   7.034   7.479  1.6184 -1.8859 -0.7741
   68SAPC   H7Y 5790   4.423   7.201   7.535  0.3711 -0.4665  3.5268
   68SAPC   C38 5791   4.526   7.060   7.659 -0.7212 -0.8500  0.5224
   68SAPC   H8X 5792   4.629   7.100   7.672  0.3774 -3.0156 -0.9796
   68SAPC   H8Y 5793   4.543   6.952   7.675  2.4016 -0.4181  0.6501
   68SAPC   C39 5794   4.453   7.134   7.774 -0.3571  0.0362 -0.3569
   68SAPC   H9X 5795   4.343   7.130   7.764 -0.4616 -1.0578  1.0305
   68SAPC   H9Y 5796   4.471   7.244   7.772 -2.3560  0.4122  0.3627
   68SAPC  C310 5797   4.483   7.084   7.914 -0.0493  0.4720 -0.0226
   68SAPC  H10X 5798   4.591   7.104   7.932 -0.0596  1.4358 -0.9724
   68SAPC  H10Y 5799   4.485   6.973   7.917  0.5320  0.4792  0.1642
   68SAPC  C311 5800   4.392   7.154   8.012 -0.4200  0.2212 -0.0686
   68SAPC  H11X 5801   4.297   7.098   8.002 -2.0961  3.2424 -3.6662
   68SAPC  H11Y 5802   4.359   7.252   7.972 -2.5077 -0.7741 -0.9059
   68SAPC  C312 5803   4.446   7.169   8.148 -0.4923 -0.6475 -0.2231
   68SAPC  H12X 5804   4.514   7.256   8.157  0.3277 -1.3599  0.8822
   68SAPC  H12Y 5805   4.488   7.075   8.191 -0.6862 -0.5274  0.2252
   68SAPC  C313 5806   4.346   7.203   8.256  1.0147 -0.7609 -0.6352
   68SAPC  H13X 5807   4.250   7.157   8.224 -0.7650  2.4090 -0.3274
   68SAPC  H13Y 5808   4.323   7.312   8.261  1.6185 -0.6603  0.1630
   68SAPC  C314 5809   4.394   7.152   8.388  0.2927 -0.1698  0.1772
   68SAPC  H14X 5810   4.387   7.041   8.380  0.3236 -0.4227  2.9323
   68SAPC  H14Y 5811   4.316   7.190   8.458 -0.4652  0.8801 -1.1839
   68SAPC  C315 5812   4.524   7.197   8.452 -0.5094 -0.8651 -0.4690
   68SAPC  H15X 5813   4.514   7.301   8.492  0.0945 -0.6346 -0.9042
   68SAPC  H15Y 5814   4.614   7.208   8.387  0.7727  2.0292  1.5417
   68SAPC  C316 5815   4.561   7.099   8.572  0.2043 -0.3840  0.9267
   68SAPC  H16X 5816   4.463   7.083   8.622 -0.9720 -0.8202 -1.3689
   68SAPC  H16Y 5817   4.619   7.164   8.641  0.3164 -0.5129  0.9560
   68SAPC  C317 5818   4.625   6.963   8.536  0.7026 -0.6720 -0.7805
   68SAPC  H17X 5819   4.715   6.991   8.478 -0.3281  0.3887 -1.9042
   68SAPC  H17Y 5820   4.547   6.908   8.478 -2.8085  1.2696  1.6882
   68SAPC  C318 5821   4.662   6.880   8.663  0.5474  0.0606  0.0068
   68SAPC  H18X 5822   4.708   6.941   8.743 -0.3305  3.0230 -1.5863
   68SAPC  H18Y 5823   4.731   6.797   8.637 -0.5924 -0.4597 -1.5110
   68SAPC  H18Z 5824   4.573   6.831   8.708 -0.5336  1.3400 -0.6599
   69SLPC     N 5825   5.301   4.984  11.103  0.0175 -0.6897  0.7908
   69SLPC   C13 5826   5.196   4.903  11.162  0.0029 -0.0210 -0.8396
   69SLPC  H13A 5827   5.103   4.957  11.170  0.0589 -0.1238  0.9208
   69SLPC  H13B 5828   5.190   4.809  11.110  1.1021 -0.4995 -0.1498
   69SLPC  H13C 5829   5.224   4.883  11.265  0.4885  0.3748 -0.8868
   69SLPC   C14 5830   5.333   5.095  11.204  0.3035  0.4717  0.3002
   69SLPC  H14A 5831   5.356   5.067  11.306  0.8655 -1.2045 -0.2486
   69SLPC  H14B 5832   5.401   5.165  11.158 -1.1149  1.6736 -0.0292
   69SLPC  H14C 5833   5.244   5.155  11.217 -1.6852 -1.6249 -2.4400
   69SLPC   C15 5834   5.245   5.052  10.977  0.3549  0.4028 -0.1931
   69SLPC  H15A 5835   5.187   5.138  11.008 -1.6053 -1.6908  2.3648
   69SLPC  H15B 5836   5.332   5.084  10.921 -0.4665  0.4406 -1.4981
   69SLPC  H15C 5837   5.190   4.983  10.916  1.8004 -1.0075  0.0399
   69SLPC   C12 5838   5.416   4.897  11.062  0.5609  0.1644 -0.1750
   69SLPC  H12A 5839   5.461   4.865  11.155 -1.0836  0.1373  0.6505
   69SLPC  H12B 5840   5.492   4.962  11.024  2.1279 -1.7927 -0.5631
   69SLPC   C11 5841   5.386   4.775  10.973 -0.0698 -0.0532  0.0070
   69SLPC  H11A 5842   5.341   4.801  10.875 -2.2893 -0.4128  0.8669
   69SLPC  H11B 5843   5.315   4.708  11.026 -0.4794 -1.2005 -1.9014
   69SLPC     P 5844   5.505   4.561  10.890  0.2336  0.0896 -0.0399
   69SLPC   O13 5845   5.645   4.514  10.882  0.3604 -0.0779  0.0418
   69SLPC   O14 5846   5.406   4.476  10.957 -0.5066  0.2685  0.3022
   69SLPC   O12 5847   5.506   4.701  10.960  0.0767 -0.2795  0.0620
   69SLPC   O11 5848   5.449   4.596  10.744  0.5269  0.1855 -0.7840
   69SLPC    C1 5849   5.516   4.704  10.671  0.2604  0.0738 -0.7977
   69SLPC    HA 5850   5.495   4.803  10.716  3.6254  0.4253  0.2485
   69SLPC    HB 5851   5.625   4.700  10.687  0.0349  1.4963  1.4531
   69SLPC    C2 5852   5.491   4.702  10.518  0.2356  0.9395  0.2377
   69SLPC    HS 5853   5.548   4.786  10.472  1.1402  0.3065  0.1647
   69SLPC   O21 5854   5.349   4.715  10.501  0.2049  0.1006 -0.4599
   69SLPC   C21 5855   5.305   4.840  10.498  0.0759  0.5102 -0.7732
   69SLPC   O22 5856   5.372   4.940  10.477  0.1813 -0.3288 -0.3309
   69SLPC   C22 5857   5.152   4.827  10.498  1.0899  0.1162  0.8144
   69SLPC   H2R 5858   5.121   4.741  10.560 -1.8918  0.5829  0.1215
   69SLPC   H2S 5859   5.098   4.917  10.533  3.2629  1.7530  0.1681
   69SLPC    C3 5860   5.536   4.574  10.438  0.2380  0.5200 -0.0498
   69SLPC    HX 5861   5.489   4.486  10.486 -0.5340  0.9251 -0.0507
   69SLPC    HY 5862   5.646   4.569  10.452  0.8350 -0.8198 -4.0679
   69SLPC   O31 5863   5.513   4.591  10.297 -0.1840 -0.0027  0.5345
   69SLPC   C31 5864   5.406   4.535  10.242 -0.0251  0.3030 -0.4915
   69SLPC   O32 5865   5.330   4.452  10.299  0.1082 -0.1551 -0.0890
   69SLPC   C32 5866   5.373   4.605  10.110 -0.3318  0.1488 -0.2615
   69SLPC   H2X 5867   5.467   4.622  10.053  1.2258  3.2684  2.8696
   69SLPC   H2Y 5868   5.339   4.706  10.139  0.2111  0.3052 -0.1576
   69SLPC   C23 5869   5.090   4.784  10.361  0.3391  0.3416  0.4177
   69SLPC   H3R 5870   4.981   4.774  10.380 -0.0690 -1.6244 -2.3685
   69SLPC   H3S 5871   5.124   4.687  10.320 -0.6930 -0.4381  1.3354
   69SLPC   C24 5872   5.104   4.892  10.254 -0.3544  0.1711 -0.2946
   69SLPC   H4R 5873   5.205   4.873  10.212  0.7944 -1.1495  2.8108
   69SLPC   H4S 5874   5.108   4.991  10.305 -2.0692  0.8759 -1.4369
   69SLPC   C25 5875   4.990   4.870  10.154 -0.4169 -0.4344  0.2866
   69SLPC   H5R 5876   4.894   4.869  10.209  0.1469 -0.1201  1.3045
   69SLPC   H5S 5877   5.000   4.763  10.126 -0.1565 -1.0136  2.4129
   69SLPC   C26 5878   4.990   4.970  10.040 -0.2480  0.3036  1.0203
   69SLPC   H6R 5879   5.094   4.983  10.003  0.2763 -2.6699  1.2281
   69SLPC   H6S 5880   4.947   5.066  10.076  0.2184  0.3263  1.5261
   69SLPC   C27 5881   4.892   4.939   9.921  0.4270 -0.7256  0.2765
   69SLPC   H7R 5882   4.805   4.897   9.977 -0.6462  1.1160  0.0905
   69SLPC   H7S 5883   4.927   4.862   9.849  1.0414 -1.7252  1.5949
   69SLPC   C28 5884   4.827   5.055   9.849 -0.9252  0.2098  0.8340
   69SLPC   H8R 5885   4.773   5.133   9.907 -1.7900  1.3004 -1.3135
   69SLPC   H8S 5886   4.750   5.014   9.780  1.8903 -0.4326 -2.2201
   69SLPC   C29 5887   4.936   5.126   9.767 -0.5822 -0.0059 -0.3914
   69SLPC   H9R 5888   5.000   5.184   9.835 -1.4449  1.1634 -0.5517
   69SLPC  C210 5889   4.962   5.132   9.636  0.9825 -0.1359  0.6507
   69SLPC  H10R 5890   5.038   5.197   9.590  0.6145 -0.6599 -0.7487
   69SLPC  C211 5891   4.875   5.055   9.537  0.1234  0.6185  0.5104
   69SLPC  H11R 5892   4.827   5.120   9.461 -0.6816 -1.4894 -0.8848
   69SLPC  H11S 5893   4.789   5.010   9.590  0.9067  0.8315  2.0028
   69SLPC  C212 5894   4.937   4.941   9.462 -0.5752 -0.7435  0.2125
   69SLPC  H12R 5895   4.938   4.844   9.514  0.2854 -0.7849  0.1395
   69SLPC  C213 5896   4.980   4.940   9.331 -0.0757  0.5060 -0.2773
   69SLPC  H13R 5897   5.016   4.845   9.289  0.5814  0.5724  0.1266
   69SLPC  C214 5898   4.972   5.059   9.232 -0.5170 -0.0304 -0.1993
   69SLPC  H14R 5899   5.065   5.054   9.171  0.1230 -1.7799  0.8708
   69SLPC  H14S 5900   4.959   5.151   9.293  0.8734 -0.5183  0.8671
   69SLPC  C215 5901   4.843   5.065   9.146 -0.0883 -0.3361 -0.5133
   69SLPC  H15R 5902   4.758   5.085   9.214 -2.1871 -2.4024 -2.3306
   69SLPC  H15S 5903   4.828   4.964   9.100  1.1951 -1.0401  0.5446
   69SLPC  C216 5904   4.845   5.176   9.042  0.2371 -0.0292 -0.3087
   69SLPC  H16R 5905   4.881   5.272   9.086  0.2580  0.2144 -0.8551
   69SLPC  H16S 5906   4.743   5.202   9.005  1.3723  3.9534 -1.0733
   69SLPC  C217 5907   4.926   5.146   8.911 -0.3099  0.2331 -0.1973
   69SLPC  H17R 5908   4.883   5.054   8.866 -0.5723  0.4712 -0.4366
   69SLPC  H17S 5909   5.027   5.112   8.944 -0.8633  0.4649  1.8973
   69SLPC  C218 5910   4.946   5.259   8.807 -0.0348  0.1514 -0.4146
   69SLPC  H18R 5911   4.858   5.321   8.779 -1.5272 -0.9615  1.5558
   69SLPC  H18S 5912   4.997   5.214   8.719  0.9478  0.4472 -0.0065
   69SLPC  H18T 5913   5.018   5.331   8.852 -1.1809  0.5685  0.8008
   69SLPC   C33 5914   5.264   4.528  10.042  0.5514 -0.5390 -0.2882
   69SLPC   H3X 5915   5.168   4.521  10.098 -0.6271 -2.8692 -2.3898
   69SLPC   H3Y 5916   5.292   4.425  10.011  0.3358  0.3352 -3.8379
   69SLPC   C34 5917   5.226   4.599   9.910  0.0308  0.0336 -0.0458
   69SLPC   H4X 5918   5.323   4.615   9.858  0.7715 -0.2490  1.1919
   69SLPC   H4Y 5919   5.174   4.696   9.920  1.5122  0.8613 -0.0888
   69SLPC   C35 5920   5.135   4.501   9.832  0.1262  0.4755  0.6131
   69SLPC   H5X 5921   5.039   4.475   9.883  0.1529 -1.2822 -0.1649
   69SLPC   H5Y 5922   5.198   4.409   9.828  1.6362  1.5402 -1.7791
   69SLPC   C36 5923   5.100   4.542   9.682  0.9290 -0.6064 -0.1202
   69SLPC   H6X 5924   5.187   4.581   9.625 -0.1139  0.3229 -1.1306
   69SLPC   H6Y 5925   5.033   4.630   9.693 -1.5060 -2.3536 -0.1914
   69SLPC   C37 5926   5.026   4.437   9.602 -0.5386 -0.4675 -0.9522
   69SLPC   H7X 5927   4.958   4.376   9.664 -2.0700  1.2293 -0.8876
   69SLPC   H7Y 5928   5.106   4.375   9.554 -1.4170  0.1246 -3.3000
   69SLPC   C38 5929   4.942   4.497   9.486  0.1180  0.2754  0.8005
   69SLPC   H8X 5930   4.916   4.600   9.519  1.5079  0.8564  0.1399
   69SLPC   H8Y 5931   4.849   4.438   9.469  0.3052  1.0788 -5.0874
   69SLPC   C39 5932   5.017   4.500   9.352 -0.2793  0.2625 -0.3808
   69SLPC   H9X 5933   4.947   4.560   9.291 -0.9459  2.2746  2.1850
   69SLPC   H9Y 5934   5.024   4.402   9.300 -1.9581  1.4817 -3.0794
   69SLPC  C310 5935   5.148   4.581   9.359  0.2588  0.0061 -0.0491
   69SLPC  H10X 5936   5.234   4.523   9.398  1.1104  0.4731 -1.1878
   69SLPC  H10Y 5937   5.129   4.664   9.430  2.1835  0.3403  0.1159
   69SLPC  C311 5938   5.183   4.635   9.228  0.4564  0.7525 -0.0709
   69SLPC  H11X 5939   5.273   4.698   9.241 -1.5602  4.0753 -0.9699
   69SLPC  H11Y 5940   5.101   4.686   9.173  0.6683  1.2724  0.1000
   69SLPC  C312 5941   5.213   4.524   9.126 -0.1093 -0.2082  0.3367
   69SLPC  H12X 5942   5.119   4.475   9.093 -0.3128  0.2472  0.2446
   69SLPC  H12Y 5943   5.286   4.449   9.165  0.6649 -0.2288 -1.1162
   69SLPC  C313 5944   5.279   4.587   9.001  0.0193 -1.0701  0.5456
   69SLPC  H13X 5945   5.303   4.501   8.934 -3.7217  0.5487 -3.3316
   69SLPC  H13Y 5946   5.378   4.626   9.035  0.0493 -1.0946  0.4885
   69SLPC  C314 5947   5.204   4.703   8.922  0.3018 -0.1830  1.1592
   69SLPC  H14X 5948   5.268   4.751   8.845 -1.1400 -0.7602 -0.4619
   69SLPC  H14Y 5949   5.180   4.777   9.001  1.7462  0.6516  0.8497
   69SLPC  C315 5950   5.074   4.651   8.856 -1.0482  0.4525 -0.3814
   69SLPC  H15X 5951   5.010   4.590   8.924 -0.7948  0.5518 -0.0550
   69SLPC  H15Y 5952   5.105   4.585   8.772 -1.2719 -0.1014 -0.0379
   69SLPC  C316 5953   4.994   4.770   8.797  0.0210  0.3074  0.2963
   69SLPC  H16X 5954   5.062   4.830   8.732  2.9890 -0.6009  2.3232
   69SLPC  H16Y 5955   4.980   4.835   8.886 -2.3234 -1.6366  1.4566
   69SLPC  C317 5956   4.855   4.737   8.737  0.6413  0.3464 -0.1187
   69SLPC  H17X 5957   4.802   4.834   8.729 -0.4229 -0.3300 -1.6622
   69SLPC  H17Y 5958   4.807   4.663   8.803 -0.5138 -1.3097 -2.6677
   69SLPC  C318 5959   4.850   4.681   8.598  0.0924 -0.0479 -1.0368
   69SLPC  H18X 5960   4.925   4.600   8.583 -0.5354 -0.1027 -4.5925
   69SLPC  H18Y 5961   4.867   4.760   8.523  0.1093  0.5912 -0.3761
   69SLPC  H18Z 5962   4.745   4.654   8.575 -1.1787  4.4429 -1.4554
   70SLPC     N 5963   1.476   1.191  11.310  0.1555  0.8256 -0.5848
   70SLPC   C13 5964   1.380   1.142  11.206  0.1345  0.2956  0.4269
   70SLPC  H13A 5965   1.422   1.161  11.108 -1.2190  0.5426 -0.1286
   70SLPC  H13B 5966   1.363   1.037  11.224 -0.6821  0.5976  1.4837
   70SLPC  H13C 5967   1.284   1.190  11.213  0.4042  1.2078 -1.5406
   70SLPC   C14 5968   1.413   1.150  11.442  0.0071  0.0669  0.7051
   70SLPC  H14A 5969   1.405   1.042  11.445 -2.9452  0.2076  0.8256
   70SLPC  H14B 5970   1.472   1.179  11.528 -0.9875 -0.4771  1.5891
   70SLPC  H14C 5971   1.314   1.188  11.460  0.1949 -0.2425  2.6148
   70SLPC   C15 5972   1.481   1.337  11.308  0.4980 -0.6089 -0.0551
   70SLPC  H15A 5973   1.533   1.373  11.220  3.8182 -0.4388  1.8138
   70SLPC  H15B 5974   1.377   1.367  11.310  0.8041  0.5204 -0.1416
   70SLPC  H15C 5975   1.525   1.376  11.399 -1.8760 -0.0187  0.9281
   70SLPC   C12 5976   1.611   1.125  11.294  0.4010  0.0454 -0.0948
   70SLPC  H12A 5977   1.595   1.023  11.263 -0.6777 -0.1920  1.1544
   70SLPC  H12B 5978   1.662   1.123  11.389 -0.9481 -0.3532  0.6411
   70SLPC   C11 5979   1.696   1.162  11.169  0.2179 -0.1288 -0.1082
   70SLPC  H11A 5980   1.799   1.120  11.172  0.3169  0.1287  0.1609
   70SLPC  H11B 5981   1.717   1.270  11.181 -2.4740  0.2753  2.0129
   70SLPC     P 5982   1.606   0.994  10.998  0.0632 -0.2622  0.0198
   70SLPC   O13 5983   1.591   0.909  11.117 -0.3774  0.0706 -0.1370
   70SLPC   O14 5984   1.492   0.999  10.907  0.0794  0.4198 -0.1151
   70SLPC   O12 5985   1.637   1.137  11.046 -0.5314  0.3087  0.1679
   70SLPC   O11 5986   1.739   0.962  10.919 -0.0290  0.1490 -0.0888
   70SLPC    C1 5987   1.821   1.063  10.856 -0.2367  0.2802 -0.0918
   70SLPC    HA 5988   1.820   1.153  10.920 -0.3787 -0.5006  1.0414
   70SLPC    HB 5989   1.925   1.025  10.843 -1.1822 -1.8792 -2.1633
   70SLPC    C2 5990   1.762   1.089  10.721  0.2561  0.1172 -0.3618
   70SLPC    HS 5991   1.651   1.097  10.716  0.3114  1.8162  0.5219
   70SLPC   O21 5992   1.815   0.989  10.631  0.4689  1.2193 -0.5256
   70SLPC   C21 5993   1.725   0.908  10.573 -0.6945 -0.8184  0.8142
   70SLPC   O22 5994   1.603   0.916  10.577 -0.5312  0.5411  0.4902
   70SLPC   C22 5995   1.804   0.801  10.495  0.3465  0.2063  0.2903
   70SLPC   H2R 5996   1.895   0.842  10.447  0.7487 -1.0519 -0.0844
   70SLPC   H2S 5997   1.842   0.728  10.569  0.7981  1.7003  1.5733
   70SLPC    C3 5998   1.812   1.222  10.665  0.5285 -0.0691  0.0482
   70SLPC    HX 5999   1.911   1.220  10.615 -0.0017  3.3208 -1.4222
   70SLPC    HY 6000   1.816   1.301  10.744  1.6722 -0.0390 -0.0343
   70SLPC   O31 6001   1.703   1.271  10.571  0.1386 -0.4717  0.4493
   70SLPC   C31 6002   1.713   1.227  10.448  0.2315 -0.2760 -0.3015
   70SLPC   O32 6003   1.814   1.177  10.402  0.1015  0.1144  0.0568
   70SLPC   C32 6004   1.581   1.243  10.368 -0.1386  0.4281 -0.3514
   70SLPC   H2X 6005   1.537   1.343  10.391  3.1299  1.6324  1.1939
   70SLPC   H2Y 6006   1.501   1.182  10.415  3.4118 -3.2108  1.5284
   70SLPC   C23 6007   1.716   0.722  10.398  0.7087 -0.5314 -0.4326
   70SLPC   H3R 6008   1.621   0.701  10.451 -0.0630  1.2043 -1.0311
   70SLPC   H3S 6009   1.768   0.626  10.378  2.4847 -0.0649  1.6083
   70SLPC   C24 6010   1.681   0.798  10.268 -0.3055 -0.8712  0.2261
   70SLPC   H4R 6011   1.634   0.895  10.295 -0.1092 -1.0682  1.3460
   70SLPC   H4S 6012   1.617   0.739  10.200 -3.1183  1.3522  0.7431
   70SLPC   C25 6013   1.805   0.836  10.185 -0.0316  0.2137 -0.6919
   70SLPC   H5R 6014   1.859   0.740  10.171 -1.4094 -1.1192  2.4199
   70SLPC   H5S 6015   1.882   0.902  10.231  0.1936 -0.2106 -0.4637
   70SLPC   C26 6016   1.777   0.862  10.040  0.1023 -0.2192  0.0325
   70SLPC   H6R 6017   1.709   0.951  10.037  0.8199  0.3522  0.4563
   70SLPC   H6S 6018   1.715   0.777  10.003 -0.5827  0.1702  0.2514
   70SLPC   C27 6019   1.903   0.902   9.957 -0.8157  0.2561 -0.3570
   70SLPC   H7R 6020   1.959   0.814   9.920 -0.5546  0.4107 -0.3363
   70SLPC   H7S 6021   1.968   0.960  10.026  0.9990 -0.1997 -1.6135
   70SLPC   C28 6022   1.861   0.981   9.832 -0.1535 -0.8318 -0.2967
   70SLPC   H8R 6023   1.798   1.070   9.850  2.1419  0.7227  0.4603
   70SLPC   H8S 6024   1.806   0.912   9.764  0.0652  1.4752 -2.9817
   70SLPC   C29 6025   1.973   1.041   9.753 -0.0255 -1.0117  0.0172
   70SLPC   H9R 6026   2.052   1.082   9.817  0.8657 -1.1140 -0.9737
   70SLPC  C210 6027   1.988   1.031   9.620  0.3202 -0.2376  0.6008
   70SLPC  H10R 6028   2.082   1.073   9.582  2.1218 -2.7538  1.9481
   70SLPC  C211 6029   1.902   0.959   9.527  0.4585  0.1612 -0.6642
   70SLPC  H11R 6030   1.810   1.021   9.521  1.1387  1.2012 -0.5224
   70SLPC  H11S 6031   1.866   0.862   9.568  0.3570 -0.8783 -3.0198
   70SLPC  C212 6032   1.957   0.946   9.393  0.5169 -0.8849 -0.4576
   70SLPC  H12R 6033   2.062   0.971   9.371  0.5931 -1.4748 -0.7830
   70SLPC  C213 6034   1.885   0.902   9.287  0.1122 -0.8538  0.6948
   70SLPC  H13R 6035   1.934   0.907   9.189 -0.8832  2.2227  0.2344
   70SLPC  C214 6036   1.737   0.857   9.284  0.2026 -0.6118 -0.3879
   70SLPC  H14R 6037   1.672   0.943   9.259  0.3077  0.2809  2.1387
   70SLPC  H14S 6038   1.703   0.816   9.381 -0.4849 -0.3064 -0.4966
   70SLPC  C215 6039   1.714   0.741   9.181 -0.5480 -0.5495  0.1919
   70SLPC  H15R 6040   1.621   0.691   9.215 -0.8359  0.6954  1.3317
   70SLPC  H15S 6041   1.800   0.671   9.181  0.0790  0.1934 -0.6930
   70SLPC  C216 6042   1.670   0.779   9.038  1.0613 -0.1901  0.7374
   70SLPC  H16R 6043   1.761   0.817   8.986 -0.8600  1.9685 -1.3310
   70SLPC  H16S 6044   1.598   0.862   9.053  0.0093 -0.1887 -3.2724
   70SLPC  C217 6045   1.611   0.677   8.944 -0.3974 -0.7917 -0.4608
   70SLPC  H17R 6046   1.511   0.651   8.984 -0.6963 -1.0319 -1.3410
   70SLPC  H17S 6047   1.673   0.584   8.940  1.2176  0.2398 -0.6076
   70SLPC  C218 6048   1.599   0.724   8.804  0.1732 -0.6960  0.3129
   70SLPC  H18R 6049   1.699   0.762   8.775  0.5735 -1.1909  0.9988
   70SLPC  H18S 6050   1.528   0.810   8.800  0.3623 -0.5201  0.6541
   70SLPC  H18T 6051   1.567   0.649   8.729 -1.6614  1.1487 -0.8525
   70SLPC   C33 6052   1.613   1.222  10.219  0.9218  0.7252 -0.0358
   70SLPC   H3X 6053   1.517   1.192  10.170  0.8871 -1.2143  1.1168
   70SLPC   H3Y 6054   1.679   1.135  10.201  0.7498  0.6177 -0.1503
   70SLPC   C34 6055   1.659   1.346  10.140  0.5650  0.2211  0.3672
   70SLPC   H4X 6056   1.764   1.374  10.164  1.0791 -0.5611 -0.8621
   70SLPC   H4Y 6057   1.594   1.433  10.164 -0.7138 -0.6209  0.0695
   70SLPC   C35 6058   1.658   1.312   9.988  0.2346  0.6284 -0.5876
   70SLPC   H5X 6059   1.552   1.293   9.962  0.2394  0.6771 -0.6427
   70SLPC   H5Y 6060   1.714   1.218   9.970  1.8938  1.6124 -0.8436
   70SLPC   C36 6061   1.717   1.418   9.897  0.3569 -0.2353  0.0224
   70SLPC   H6X 6062   1.827   1.429   9.911  0.3510 -1.2244  0.8957
   70SLPC   H6Y 6063   1.675   1.515   9.931 -2.3495 -0.6848 -1.8045
   70SLPC   C37 6064   1.686   1.386   9.749 -0.3912  0.3736 -0.6582
   70SLPC   H7X 6065   1.575   1.380   9.751 -0.3205 -0.9602 -0.1402
   70SLPC   H7Y 6066   1.721   1.284   9.724 -0.5478 -0.0772  0.8492
   70SLPC   C38 6067   1.751   1.483   9.652  0.6571 -0.4160 -0.1723
   70SLPC   H8X 6068   1.858   1.496   9.679  0.4254  0.1524  0.4982
   70SLPC   H8Y 6069   1.704   1.583   9.663  0.2749 -0.1091 -3.4050
   70SLPC   C39 6070   1.714   1.448   9.511  0.6709  0.2199  0.7006
   70SLPC   H9X 6071   1.752   1.532   9.450  1.0527 -0.1469  0.4277
   70SLPC   H9Y 6072   1.603   1.438   9.505  0.8048 -0.4034 -2.0702
   70SLPC  C310 6073   1.783   1.317   9.455  0.4569  0.0217  0.2427
   70SLPC  H10X 6074   1.735   1.234   9.511  1.3018 -0.9013 -0.3571
   70SLPC  H10Y 6075   1.891   1.335   9.473  0.7131 -0.0134 -1.1035
   70SLPC  C311 6076   1.769   1.297   9.296 -0.3191 -0.9422 -0.3212
   70SLPC  H11X 6077   1.838   1.218   9.260  2.1344  1.9655 -2.5925
   70SLPC  H11Y 6078   1.795   1.391   9.243 -1.4460 -0.7537 -0.5793
   70SLPC  C312 6079   1.623   1.262   9.255  0.5547 -0.2574  0.6596
   70SLPC  H12X 6080   1.556   1.350   9.267  1.9900  0.8063  1.2643
   70SLPC  H12Y 6081   1.589   1.184   9.326  1.3579 -1.9519 -0.7529
   70SLPC  C313 6082   1.609   1.212   9.108 -0.6987  0.4061  0.5306
   70SLPC  H13X 6083   1.538   1.128   9.092  0.8440 -0.6983 -0.8995
   70SLPC  H13Y 6084   1.709   1.177   9.074  0.1904  1.2207  2.1799
   70SLPC  C314 6085   1.553   1.324   9.016 -0.1088  0.1244 -0.0711
   70SLPC  H14X 6086   1.484   1.385   9.077  0.7160 -0.3611  1.3894
   70SLPC  H14Y 6087   1.506   1.283   8.924  2.4850 -1.3208 -0.8488
   70SLPC  C315 6088   1.663   1.411   8.958 -0.6520 -0.4558 -0.3354
   70SLPC  H15X 6089   1.726   1.345   8.894  0.8933  1.6663 -1.1398
   70SLPC  H15Y 6090   1.733   1.450   9.036  0.0534  0.9180 -1.5899
   70SLPC  C316 6091   1.616   1.535   8.883 -0.3611 -0.0160 -0.4154
   70SLPC  H16X 6092   1.687   1.619   8.898 -0.0448 -0.1007 -1.4138
   70SLPC  H16Y 6093   1.515   1.564   8.919 -0.0401  1.5626 -0.7168
   70SLPC  C317 6094   1.599   1.504   8.730  0.2343 -0.5732 -0.2426
   70SLPC  H17X 6095   1.509   1.560   8.698  0.4711 -1.5363 -2.7824
   70SLPC  H17Y 6096   1.581   1.395   8.719 -1.2088 -0.6319  2.0339
   70SLPC  C318 6097   1.722   1.548   8.636  0.0195  0.3054  0.1346
   70SLPC  H18X 6098   1.810   1.482   8.647  0.7714  1.1968 -0.3965
   70SLPC  H18Y 6099   1.744   1.654   8.660  1.4334  0.2315 -0.7346
   70SLPC  H18Z 6100   1.698   1.536   8.528 -0.5479 -3.2523  0.5417
   71SLPC     N 6101   1.678   6.335  11.274  0.2386  0.6356 -0.1588
   71SLPC   C13 6102   1.552   6.256  11.310  0.3118 -0.5731 -0.2746
   71SLPC  H13A 6103   1.550   6.167  11.248 -0.1209 -1.3921  0.8850
   71SLPC  H13B 6104   1.562   6.227  11.413 -1.6564 -0.6000 -0.0559
   71SLPC  H13C 6105   1.460   6.310  11.296  1.1985  1.0693  0.0187
   71SLPC   C14 6106   1.805   6.256  11.314  0.4027 -0.6623  0.1740
   71SLPC  H14A 6107   1.806   6.164  11.256 -0.0343 -2.1321  2.3729
   71SLPC  H14B 6108   1.888   6.325  11.306 -0.9352  0.8935 -0.9171
   71SLPC  H14C 6109   1.796   6.218  11.415 -3.0325  0.1850  0.3008
   71SLPC   C15 6110   1.673   6.466  11.347  0.5920  0.2249 -0.4770
   71SLPC  H15A 6111   1.673   6.441  11.452  1.4412 -0.7908 -0.6967
   71SLPC  H15B 6112   1.762   6.519  11.316  0.1358  0.6162 -1.1235
   71SLPC  H15C 6113   1.588   6.526  11.322  0.7440  1.1236  1.0014
   71SLPC   C12 6114   1.674   6.374  11.127  0.7046  0.2427 -0.7680
   71SLPC  H12A 6115   1.755   6.440  11.101  0.4942  0.6720 -0.3533
   71SLPC  H12B 6116   1.596   6.446  11.105  1.1174  0.5563 -1.2213
   71SLPC   C11 6117   1.671   6.253  11.031  0.7348  0.4591  0.0792
   71SLPC  H11A 6118   1.755   6.188  11.062  0.1926  0.0410  0.6905
   71SLPC  H11B 6119   1.706   6.292  10.933 -0.7663  0.3859 -0.5087
   71SLPC     P 6120   1.424   6.228  10.946  0.3392  0.4389 -0.3568
   71SLPC   O13 6121   1.301   6.184  11.014  0.0934 -0.4253  0.4090
   71SLPC   O14 6122   1.425   6.376  10.921 -0.1148 -0.5993 -0.0717
   71SLPC   O12 6123   1.545   6.180  11.026 -0.4457  0.4288 -0.2808
   71SLPC   O11 6124   1.434   6.151  10.810 -0.1058  0.2905 -0.4140
   71SLPC    C1 6125   1.558   6.118  10.747 -0.0274 -0.8337 -0.0373
   71SLPC    HA 6126   1.617   6.212  10.737 -2.4127  0.9538  1.5915
   71SLPC    HB 6127   1.620   6.048  10.806 -0.2933  0.6822  2.1649
   71SLPC    C2 6128   1.526   6.064  10.605  0.5161  0.5366  0.4426
   71SLPC    HS 6129   1.629   6.050  10.565  1.1270  0.7973  1.8464
   71SLPC   O21 6130   1.445   6.155  10.524  0.6071 -0.1551 -0.3139
   71SLPC   C21 6131   1.518   6.248  10.459 -0.0487 -0.2454 -0.9575
   71SLPC   O22 6132   1.640   6.265  10.483  0.0980 -1.0461 -0.3329
   71SLPC   C22 6133   1.428   6.338  10.389  0.1196 -0.5216 -0.4121
   71SLPC   H2R 6134   1.415   6.300  10.285  0.8535 -0.8601 -0.3920
   71SLPC   H2S 6135   1.335   6.336  10.449  0.9638  1.5296  1.0870
   71SLPC    C3 6136   1.461   5.925  10.610  0.3521 -0.0051 -0.6786
   71SLPC    HX 6137   1.358   5.926  10.653  1.0944  0.4913  1.1688
   71SLPC    HY 6138   1.517   5.874  10.691 -0.2194  2.3630  1.3312
   71SLPC   O31 6139   1.463   5.853  10.485  0.0375 -0.2652  0.0283
   71SLPC   C31 6140   1.548   5.748  10.472 -0.2594  0.1616 -0.7479
   71SLPC   O32 6141   1.625   5.713  10.561  0.0612 -0.4904 -0.4576
   71SLPC   C32 6142   1.533   5.688  10.330  0.0992  0.6566  0.1026
   71SLPC   H2X 6143   1.432   5.644  10.324 -0.4398  1.7587  0.8801
   71SLPC   H2Y 6144   1.612   5.612  10.314 -0.5401  0.0701 -0.2640
   71SLPC   C23 6145   1.472   6.482  10.375 -0.4392  0.4324 -0.0551
   71SLPC   H3R 6146   1.575   6.483  10.334 -0.1007 -1.1780  0.7209
   71SLPC   H3S 6147   1.468   6.534  10.473 -0.4004  1.8779 -0.7828
   71SLPC   C24 6148   1.381   6.564  10.279 -0.2336 -0.0531  0.0459
   71SLPC   H4R 6149   1.274   6.538  10.294 -0.0941 -0.3022  0.6337
   71SLPC   H4S 6150   1.420   6.540  10.178  0.2989 -2.8578  0.8372
   71SLPC   C25 6151   1.393   6.720  10.293  0.8168  0.2076  0.4031
   71SLPC   H5R 6152   1.326   6.753  10.376 -4.2343 -0.6458 -2.8972
   71SLPC   H5S 6153   1.363   6.771  10.199 -0.2511 -1.7907 -0.4304
   71SLPC   C26 6154   1.542   6.770  10.299  0.4471 -0.2033 -0.5022
   71SLPC   H6R 6155   1.579   6.729  10.395 -0.2299 -0.6983 -0.4398
   71SLPC   H6S 6156   1.543   6.881  10.306 -0.5829 -0.2079 -0.0666
   71SLPC   C27 6157   1.642   6.723  10.194 -0.3971 -0.7326 -0.2878
   71SLPC   H7R 6158   1.610   6.635  10.134  2.1629 -1.8766 -0.1334
   71SLPC   H7S 6159   1.732   6.701  10.255 -0.2297  1.7191  0.4447
   71SLPC   C28 6160   1.676   6.836  10.087 -0.6203 -0.2361 -0.2022
   71SLPC   H8R 6161   1.711   6.922  10.148  1.3554 -1.6773  0.8338
   71SLPC   H8S 6162   1.585   6.863  10.029 -0.9303 -0.6833  0.0684
   71SLPC   C29 6163   1.792   6.807   9.994 -0.1137  0.9727 -0.0264
   71SLPC   H9R 6164   1.883   6.805  10.055  0.1812  3.8215 -0.2575
   71SLPC  C210 6165   1.802   6.772   9.865 -0.7165  0.2237  0.3057
   71SLPC  H10R 6166   1.905   6.744   9.836  0.5769  3.7339  0.8907
   71SLPC  C211 6167   1.694   6.763   9.756  0.0480 -0.2552  0.0327
   71SLPC  H11R 6168   1.595   6.741   9.802  0.1675 -2.4560 -0.6660
   71SLPC  H11S 6169   1.715   6.678   9.688 -0.3721 -1.2802  1.1452
   71SLPC  C212 6170   1.673   6.898   9.693  0.8456 -0.5331 -0.3561
   71SLPC  H12R 6171   1.649   6.980   9.762 -0.0018 -0.2476 -0.9648
   71SLPC  C213 6172   1.670   6.918   9.565  0.0770 -0.4547 -0.2691
   71SLPC  H13R 6173   1.645   7.016   9.521 -0.2817  0.7460  2.3872
   71SLPC  C214 6174   1.696   6.809   9.460  0.4332 -0.1354  0.4270
   71SLPC  H14R 6175   1.714   6.705   9.494 -0.5472 -0.2893  0.5057
   71SLPC  H14S 6176   1.778   6.851   9.398  0.0640 -1.0248 -0.7007
   71SLPC  C215 6177   1.562   6.814   9.371  0.4436 -0.3132  0.7336
   71SLPC  H15R 6178   1.527   6.918   9.354 -0.6083 -0.9105 -0.9433
   71SLPC  H15S 6179   1.490   6.754   9.430  2.1755 -0.4591  2.8577
   71SLPC  C216 6180   1.568   6.750   9.233 -0.0263  0.2539  0.6443
   71SLPC  H16R 6181   1.607   6.646   9.236 -3.5626 -1.1945  1.1675
   71SLPC  H16S 6182   1.644   6.819   9.189  1.7248 -1.6124  0.6326
   71SLPC  C217 6183   1.435   6.754   9.147  0.1435 -0.4783 -0.6487
   71SLPC  H17R 6184   1.379   6.846   9.174  1.5140  0.2033 -0.0300
   71SLPC  H17S 6185   1.382   6.664   9.183  0.3128 -0.8561 -1.3297
   71SLPC  C218 6186   1.463   6.744   8.997 -0.1137 -0.1729 -0.5088
   71SLPC  H18R 6187   1.514   6.836   8.961 -1.4366  0.0562 -1.8638
   71SLPC  H18S 6188   1.367   6.744   8.943 -1.0508 -0.3159  1.0876
   71SLPC  H18T 6189   1.523   6.651   8.984 -0.7765 -0.4706 -1.5357
   71SLPC   C33 6190   1.520   5.794  10.217 -0.9589  0.3370 -0.5371
   71SLPC   H3X 6191   1.610   5.858  10.224 -1.9273  1.6282  0.9382
   71SLPC   H3Y 6192   1.445   5.873  10.240 -0.8218  0.5890 -0.9428
   71SLPC   C34 6193   1.488   5.732  10.083 -0.7413  0.1872 -0.2142
   71SLPC   H4X 6194   1.388   5.686  10.090 -0.6985  0.2932  1.5259
   71SLPC   H4Y 6195   1.557   5.645  10.072  0.2353  0.6447  1.8083
   71SLPC   C35 6196   1.510   5.832   9.965 -0.0060  0.4363 -0.0415
   71SLPC   H5X 6197   1.619   5.851   9.949 -0.4659  0.5627 -4.0558
   71SLPC   H5Y 6198   1.454   5.928   9.975  2.8957  2.9667 -4.5994
   71SLPC   C36 6199   1.455   5.771   9.831 -0.1266 -0.1366  0.0800
   71SLPC   H6X 6200   1.346   5.751   9.833  0.1880 -2.2713 -0.5962
   71SLPC   H6Y 6201   1.511   5.676   9.814 -1.3538 -1.3876  2.5425
   71SLPC   C37 6202   1.476   5.860   9.714  0.4756  0.3215  0.1219
   71SLPC   H7X 6203   1.579   5.902   9.710 -0.0171  1.6714  0.9039
   71SLPC   H7Y 6204   1.414   5.951   9.726 -0.5184 -0.2532 -0.4986
   71SLPC   C38 6205   1.452   5.806   9.573 -0.4620  0.7020 -0.3177
   71SLPC   H8X 6206   1.345   5.782   9.560 -0.3460 -0.4318  0.6682
   71SLPC   H8Y 6207   1.503   5.707   9.566 -1.2552  0.1562  1.1192
   71SLPC   C39 6208   1.488   5.901   9.460  0.2264  0.1963  0.3692
   71SLPC   H9X 6209   1.595   5.928   9.473  0.8654 -1.0521 -1.7838
   71SLPC   H9Y 6210   1.436   5.998   9.471 -1.6398 -0.5625 -1.1729
   71SLPC  C310 6211   1.455   5.845   9.323  1.3349  0.2223  0.5763
   71SLPC  H10X 6212   1.365   5.780   9.334  3.2018 -2.5595  0.5630
   71SLPC  H10Y 6213   1.542   5.783   9.292  1.0788 -0.0681  0.4249
   71SLPC  C311 6214   1.442   5.953   9.217 -0.4489  0.1738  0.1849
   71SLPC  H11X 6215   1.536   6.008   9.200  0.4260 -0.5254  2.3608
   71SLPC  H11Y 6216   1.353   6.016   9.238 -1.2053  0.7396 -3.8726
   71SLPC  C312 6217   1.420   5.891   9.082 -0.0291  0.0828  0.3013
   71SLPC  H12X 6218   1.327   5.831   9.080  0.1810 -0.2948  1.1798
   71SLPC  H12Y 6219   1.512   5.832   9.057  1.4291  2.1492  0.5414
   71SLPC  C313 6220   1.408   6.006   8.979 -0.0864  0.0048  0.5842
   71SLPC  H13X 6221   1.501   6.066   8.970  1.5213 -2.1832  1.8584
   71SLPC  H13Y 6222   1.327   6.077   9.006 -0.9095 -0.4965 -0.4847
   71SLPC  C314 6223   1.375   5.960   8.837 -0.0933  0.0966  0.1937
   71SLPC  H14X 6224   1.285   5.895   8.843 -0.6152  0.7629 -0.2470
   71SLPC  H14Y 6225   1.462   5.897   8.807 -0.1892  0.0477  0.0170
   71SLPC  C315 6226   1.345   6.077   8.738  0.1895  0.3956  0.4782
   71SLPC  H15X 6227   1.432   6.146   8.738 -1.6286  2.8503  1.3832
   71SLPC  H15Y 6228   1.269   6.135   8.795  2.4282  2.1920  1.7904
   71SLPC  C316 6229   1.302   6.023   8.605  0.4899  0.0518 -0.1440
   71SLPC  H16X 6230   1.250   5.925   8.610  1.3682 -0.4352 -0.4383
   71SLPC  H16Y 6231   1.394   6.014   8.544  1.1057  0.8271  0.6449
   71SLPC  C317 6232   1.196   6.116   8.536 -0.0000 -0.5151  0.3423
   71SLPC  H17X 6233   1.233   6.219   8.550  0.5404 -0.4863 -1.0790
   71SLPC  H17Y 6234   1.095   6.105   8.580  0.2527 -0.3456  0.9751
   71SLPC  C318 6235   1.191   6.088   8.384  0.5153  0.2342 -0.4307
   71SLPC  H18X 6236   1.287   6.125   8.342  0.7993  1.5811  1.2934
   71SLPC  H18Y 6237   1.109   6.151   8.343  1.1965 -0.6554 -3.4238
   71SLPC  H18Z 6238   1.173   5.981   8.360  0.9860  0.5175 -2.2034
   72SLPC     N 6239   3.512   4.797  10.811 -0.0737  0.8137  1.1207
   72SLPC   C13 6240   3.641   4.845  10.766 -0.7577  0.1574 -0.2451
   72SLPC  H13A 6241   3.725   4.778  10.778  0.2992  1.5724  0.5491
   72SLPC  H13B 6242   3.646   4.872  10.661  0.7036  0.1138 -0.2063
   72SLPC  H13C 6243   3.673   4.929  10.825 -1.6259  0.1943  0.1946
   72SLPC   C14 6244   3.394   4.882  10.763  0.3283 -0.2884  0.1333
   72SLPC  H14A 6245   3.390   4.981  10.807  4.2212  0.2189 -0.2867
   72SLPC  H14B 6246   3.393   4.894  10.656  0.6052  0.8759  0.2440
   72SLPC  H14C 6247   3.300   4.835  10.789 -2.1079  3.7835 -0.3132
   72SLPC   C15 6248   3.517   4.784  10.961  0.2525  0.1891  0.3670
   72SLPC  H15A 6249   3.577   4.696  10.980  2.7932  2.0505  1.6543
   72SLPC  H15B 6250   3.566   4.867  11.011  2.4071 -0.6203 -0.2946
   72SLPC  H15C 6251   3.415   4.772  10.994 -0.7777  4.0017 -0.8045
   72SLPC   C12 6252   3.502   4.659  10.750  0.7570 -0.3601  0.5021
   72SLPC  H12A 6253   3.509   4.673  10.643 -0.2147 -0.3631  0.4257
   72SLPC  H12B 6254   3.403   4.618  10.765  0.4517 -0.8263 -2.2022
   72SLPC   C11 6255   3.608   4.556  10.777 -0.2892  0.0384 -0.1910
   72SLPC  H11A 6256   3.702   4.593  10.728 -0.3269  0.0831 -0.2301
   72SLPC  H11B 6257   3.579   4.471  10.712  1.4700 -0.5216 -0.3036
   72SLPC     P 6258   3.508   4.430  10.969 -0.4000 -0.4991 -0.0698
   72SLPC   O13 6259   3.551   4.372  11.097 -0.2888  0.5043  0.1990
   72SLPC   O14 6260   3.382   4.502  10.960  0.0926 -0.1588 -0.3401
   72SLPC   O12 6261   3.625   4.521  10.912 -0.5698 -0.0059 -0.2084
   72SLPC   O11 6262   3.516   4.309  10.871  0.4428  0.1654  0.0894
   72SLPC    C1 6263   3.592   4.194  10.884  0.9516 -0.1436  0.2700
   72SLPC    HA 6264   3.698   4.226  10.891  0.3553  2.0093  0.1763
   72SLPC    HB 6265   3.558   4.133  10.970  0.1018 -0.5422 -0.3333
   72SLPC    C2 6266   3.570   4.100  10.758  0.4639  0.1900  0.2230
   72SLPC    HS 6267   3.658   4.033  10.747 -1.2464 -2.6904  2.3650
   72SLPC   O21 6268   3.545   4.178  10.640 -0.5943  0.7238  0.0926
   72SLPC   C21 6269   3.658   4.240  10.592 -0.0898 -0.6139  0.1772
   72SLPC   O22 6270   3.770   4.234  10.645  0.2245 -0.3293  0.3227
   72SLPC   C22 6271   3.621   4.323  10.460  0.2967  0.3668  0.2134
   72SLPC   H2R 6272   3.545   4.263  10.407  1.5501 -1.2275  0.1358
   72SLPC   H2S 6273   3.580   4.420  10.495 -0.5424  0.4950 -1.0759
   72SLPC    C3 6274   3.442   4.015  10.783  0.2502  0.1643  0.1472
   72SLPC    HX 6275   3.362   4.081  10.823  0.0626 -1.0170  1.8694
   72SLPC    HY 6276   3.463   3.949  10.871 -0.5865  0.0638  0.2769
   72SLPC   O31 6277   3.401   3.922  10.672 -0.1376 -0.3127 -0.2980
   72SLPC   C31 6278   3.309   3.971  10.592  0.1861  0.2995 -0.5051
   72SLPC   O32 6279   3.270   4.084  10.586 -0.2787 -0.1446 -0.2057
   72SLPC   C32 6280   3.256   3.865  10.501 -0.3334 -0.1368  0.3836
   72SLPC   H2X 6281   3.206   3.797  10.573  1.2297  1.7656  3.5363
   72SLPC   H2Y 6282   3.338   3.809  10.451  1.2688  1.4298  1.1103
   72SLPC   C23 6283   3.750   4.328  10.371  0.7742 -0.0324 -0.3815
   72SLPC   H3R 6284   3.797   4.228  10.382 -1.0850 -0.6595  5.0330
   72SLPC   H3S 6285   3.815   4.394  10.432 -0.9221  0.0476  1.4479
   72SLPC   C24 6286   3.742   4.381  10.231  0.0154  0.0157 -0.3506
   72SLPC   H4R 6287   3.724   4.491  10.224 -0.5761 -0.1590 -2.1388
   72SLPC   H4S 6288   3.663   4.332  10.170 -0.9061  1.4373 -0.3362
   72SLPC   C25 6289   3.872   4.364  10.155 -0.5837  0.0726 -0.1593
   72SLPC   H5R 6290   3.901   4.257  10.153 -0.7927  0.0085  0.1272
   72SLPC   H5S 6291   3.949   4.424  10.209  2.3585 -1.2539 -2.5353
   72SLPC   C26 6292   3.858   4.416  10.015 -0.1457  0.6179  0.7127
   72SLPC   H6R 6293   3.841   4.526  10.016 -0.3312  0.5953  0.2814
   72SLPC   H6S 6294   3.767   4.370   9.971 -0.8979  3.7028 -1.3168
   72SLPC   C27 6295   3.982   4.369   9.929 -0.6431  0.3898  0.2605
   72SLPC   H7R 6296   3.969   4.262   9.901 -0.8567  0.7064 -0.8863
   72SLPC   H7S 6297   4.073   4.375   9.994 -0.6202 -1.3975  0.4544
   72SLPC   C28 6298   4.002   4.451   9.803 -0.4484  0.9097 -0.2168
   72SLPC   H8R 6299   3.981   4.558   9.828 -0.9142  0.3134  2.2366
   72SLPC   H8S 6300   3.927   4.423   9.725 -1.0605 -1.1952  1.0579
   72SLPC   C29 6301   4.138   4.424   9.747  0.3770 -0.1665  0.0391
   72SLPC   H9R 6302   4.213   4.383   9.816 -0.0207 -2.6124 -0.8560
   72SLPC  C210 6303   4.170   4.436   9.619  0.5625 -0.3182 -0.3764
   72SLPC  H10R 6304   4.275   4.427   9.587  0.3247 -1.5734 -0.8848
   72SLPC  C211 6305   4.075   4.475   9.508 -0.5190 -0.7753 -0.1639
   72SLPC  H11R 6306   4.125   4.565   9.466  0.8399 -1.5123 -0.1569
   72SLPC  H11S 6307   3.970   4.503   9.533 -0.4057 -0.4789 -0.0188
   72SLPC  C212 6308   4.068   4.371   9.403 -0.0288 -0.7117  0.2320
   72SLPC  H12R 6309   4.059   4.270   9.445  1.8687 -0.9267  0.1908
   72SLPC  C213 6310   4.043   4.400   9.271  0.3090  0.6248  0.2830
   72SLPC  H13R 6311   4.038   4.315   9.201 -1.9262 -0.4902  1.6772
   72SLPC  C214 6312   4.018   4.535   9.206 -0.4628 -0.0207 -0.0407
   72SLPC  H14R 6313   4.022   4.614   9.284 -0.9574 -1.0304  1.0496
   72SLPC  H14S 6314   3.918   4.529   9.159 -1.2888  0.7346  1.5495
   72SLPC  C215 6315   4.119   4.572   9.100 -0.3063 -0.3219  0.9370
   72SLPC  H15R 6316   4.225   4.562   9.133 -0.2152 -0.1057  0.7112
   72SLPC  H15S 6317   4.092   4.677   9.077 -2.6927 -1.0119  0.2944
   72SLPC  C216 6318   4.107   4.483   8.976  0.4455 -0.4665 -0.0158
   72SLPC  H16R 6319   4.005   4.492   8.933  0.9627  1.7240 -0.8903
   72SLPC  H16S 6320   4.135   4.381   9.009 -0.6915 -0.2425  1.7785
   72SLPC  C217 6321   4.202   4.518   8.857 -0.1359 -0.1864 -0.4279
   72SLPC  H17R 6322   4.184   4.453   8.768  0.2818  0.0330 -0.6744
   72SLPC  H17S 6323   4.307   4.492   8.879 -0.0694 -1.0926 -1.6911
   72SLPC  C218 6324   4.202   4.667   8.812 -0.1960  0.0115  0.6040
   72SLPC  H18R 6325   4.109   4.686   8.754 -0.4461 -0.4793  0.8355
   72SLPC  H18S 6326   4.287   4.696   8.747 -2.9520  0.9693 -2.9048
   72SLPC  H18T 6327   4.207   4.742   8.893 -1.8339 -1.5799  2.2852
   72SLPC   C33 6328   3.169   3.927  10.385 -0.0594 -0.3965  0.7112
   72SLPC   H3X 6329   3.182   4.035  10.364 -1.0247 -0.2713  0.7027
   72SLPC   H3Y 6330   3.062   3.899  10.400  0.4345 -2.9981 -0.0541
   72SLPC   C34 6331   3.201   3.864  10.255 -0.4827  0.0967  0.1509
   72SLPC   H4X 6332   3.154   3.764  10.265 -0.2580  0.0952  1.3860
   72SLPC   H4Y 6333   3.311   3.854  10.250 -0.4532 -0.4994  1.5322
   72SLPC   C35 6334   3.150   3.939  10.135  0.5932 -0.0777  0.2341
   72SLPC   H5X 6335   3.190   4.042  10.148 -1.2367  0.6811  0.2007
   72SLPC   H5Y 6336   3.039   3.939  10.133  0.5877 -1.4931 -1.4901
   72SLPC   C36 6337   3.215   3.873  10.008 -0.2987  0.1281  0.8276
   72SLPC   H6X 6338   3.224   3.762  10.012 -1.6459  0.0379  2.1576
   72SLPC   H6Y 6339   3.316   3.916   9.991  1.5624 -3.3507  2.0613
   72SLPC   C37 6340   3.151   3.916   9.876 -0.5476 -0.2832 -0.7596
   72SLPC   H7X 6341   3.160   4.026   9.864  0.5069 -0.4386 -1.4646
   72SLPC   H7Y 6342   3.043   3.892   9.877 -0.0132 -2.9670  0.7136
   72SLPC   C38 6343   3.232   3.857   9.764  1.2226 -0.6194 -0.3970
   72SLPC   H8X 6344   3.228   3.746   9.769  0.5441 -0.6532 -1.4040
   72SLPC   H8Y 6345   3.338   3.890   9.772  1.9176 -2.8239  0.1469
   72SLPC   C39 6346   3.194   3.890   9.617 -0.2929 -0.3906 -0.2201
   72SLPC   H9X 6347   3.204   3.999   9.598 -4.2736 -0.0417 -1.3724
   72SLPC   H9Y 6348   3.089   3.854   9.608  0.0373 -1.6983  0.8987
   72SLPC  C310 6349   3.299   3.845   9.520 -0.3463  0.7833  0.2797
   72SLPC  H10X 6350   3.322   3.740   9.546 -1.8674  0.4760  0.4548
   72SLPC  H10Y 6351   3.393   3.904   9.534 -0.7260  1.1017  1.6472
   72SLPC  C311 6352   3.262   3.846   9.370  0.7702 -0.1437  0.4305
   72SLPC  H11X 6353   3.238   3.954   9.357  0.0392  0.0136  2.6611
   72SLPC  H11Y 6354   3.164   3.795   9.361  0.9239 -0.7063  1.7594
   72SLPC  C312 6355   3.367   3.784   9.278  0.2237  0.1786  0.2254
   72SLPC  H12X 6356   3.341   3.678   9.259 -0.0453  0.1371  0.8087
   72SLPC  H12Y 6357   3.469   3.782   9.322 -0.0902  0.8903  1.0226
   72SLPC  C313 6358   3.357   3.861   9.147  0.0511 -0.1097 -0.4401
   72SLPC  H13X 6359   3.376   3.969   9.164  2.0065 -0.7225  1.8617
   72SLPC  H13Y 6360   3.249   3.852   9.124 -0.3789  1.3122  0.8361
   72SLPC  C314 6361   3.441   3.815   9.030 -0.2123  0.3815  0.3223
   72SLPC  H14X 6362   3.546   3.845   9.051 -0.1625 -0.2280  0.9680
   72SLPC  H14Y 6363   3.417   3.867   8.935  1.6080  0.3724 -0.1879
   72SLPC  C315 6364   3.431   3.661   9.002 -0.3906 -0.1088  0.5684
   72SLPC  H15X 6365   3.329   3.620   8.987 -0.1036  0.0013 -2.1106
   72SLPC  H15Y 6366   3.476   3.599   9.083  2.2116  1.6500  0.6001
   72SLPC  C316 6367   3.514   3.623   8.878  0.1251 -0.3451 -0.1239
   72SLPC  H16X 6368   3.540   3.515   8.881 -0.5793 -0.5273 -0.2186
   72SLPC  H16Y 6369   3.606   3.684   8.873 -0.4805  0.5496 -0.6569
   72SLPC  C317 6370   3.440   3.659   8.751  0.1326  0.1934  1.3554
   72SLPC  H17X 6371   3.445   3.769   8.741 -0.8010  0.1513  0.1446
   72SLPC  H17Y 6372   3.330   3.639   8.748  0.4087 -1.3956  0.0944
   72SLPC  C318 6373   3.508   3.594   8.625 -0.2463  0.5281  0.2912
   72SLPC  H18X 6374   3.607   3.644   8.615 -0.5256  0.7345 -2.0808
   72SLPC  H18Y 6375   3.460   3.605   8.525  1.6516 -0.1570 -0.7522
   72SLPC  H18Z 6376   3.524   3.487   8.647 -1.6668 -0.1043 -1.4690
   73SLPC     N 6377   4.475   5.066  11.108  0.0935  0.7773  0.0337
   73SLPC   C13 6378   4.377   5.084  10.994  0.5118  0.4334  0.3674
   73SLPC  H13A 6379   4.382   5.009  10.916  1.0382 -0.3217  1.0988
   73SLPC  H13B 6380   4.275   5.086  11.030  1.0333  0.2505  1.9358
   73SLPC  H13C 6381   4.405   5.176  10.946  3.6368 -0.4154  0.3513
   73SLPC   C14 6382   4.467   4.918  11.150  0.7385 -0.5600  0.0832
   73SLPC  H14A 6383   4.367   4.886  11.175  0.5792 -0.2244 -0.1153
   73SLPC  H14B 6384   4.498   4.866  11.060  1.0410  1.7794 -1.2561
   73SLPC  H14C 6385   4.539   4.892  11.226  1.0397  0.1545  0.0574
   73SLPC   C15 6386   4.428   5.154  11.219 -0.5533 -0.3061  0.5458
   73SLPC  H15A 6387   4.418   5.255  11.183 -2.0092 -0.7641 -0.4220
   73SLPC  H15B 6388   4.324   5.135  11.244 -1.0252  0.4793 -0.7684
   73SLPC  H15C 6389   4.488   5.130  11.306 -0.5851  0.9697  0.9408
   73SLPC   C12 6390   4.619   5.097  11.067 -0.2251 -0.2399  0.1205
   73SLPC  H12A 6391   4.642   5.033  10.983  2.5572  1.4937 -0.5627
   73SLPC  H12B 6392   4.677   5.062  11.151  0.6768  0.4351 -0.2108
   73SLPC   C11 6393   4.652   5.246  11.028 -0.4104  0.1875  0.3065
   73SLPC  H11A 6394   4.761   5.253  11.006 -0.3975  0.1346  0.3524
   73SLPC  H11B 6395   4.639   5.307  11.120 -0.7007 -0.1653  0.5020
   73SLPC     P 6396   4.504   5.435  10.930 -0.2289  0.1833 -0.0504
   73SLPC   O13 6397   4.436   5.444  11.061 -0.0655  0.3125 -0.4269
   73SLPC   O14 6398   4.614   5.533  10.910  0.1248 -0.0578 -0.4255
   73SLPC   O12 6399   4.579   5.294  10.915  0.0921 -0.2311  0.0050
   73SLPC   O11 6400   4.401   5.431  10.816 -0.3626  0.6032  0.2792
   73SLPC    C1 6401   4.403   5.355  10.695 -0.8542  0.2186  0.1133
   73SLPC    HA 6402   4.448   5.254  10.709  1.3712  1.0476 -0.4966
   73SLPC    HB 6403   4.298   5.342  10.661 -0.4778 -1.0855 -0.6339
   73SLPC    C2 6404   4.484   5.431  10.584 -0.4038  0.6541  0.8222
   73SLPC    HS 6405   4.591   5.423  10.613 -0.2681 -2.0771 -0.1162
   73SLPC   O21 6406   4.435   5.566  10.579 -0.3297  0.0992  0.5298
   73SLPC   C21 6407   4.528   5.663  10.559  0.2100 -0.3395 -0.5645
   73SLPC   O22 6408   4.647   5.647  10.545  0.6262  0.0013 -0.0992
   73SLPC   C22 6409   4.439   5.786  10.532 -0.4615  0.6907 -0.0498
   73SLPC   H2R 6410   4.335   5.754  10.510 -0.3894 -0.2595  0.9006
   73SLPC   H2S 6411   4.425   5.844  10.626 -2.1536 -1.4896  1.1362
   73SLPC    C3 6412   4.455   5.365  10.449 -0.3418 -0.4688  0.5338
   73SLPC    HX 6413   4.351   5.380  10.414  0.8284  0.7424 -2.7354
   73SLPC    HY 6414   4.480   5.257  10.455  0.8725 -0.3335 -1.4079
   73SLPC   O31 6415   4.550   5.422  10.349  0.7330 -0.2857 -0.6196
   73SLPC   C31 6416   4.574   5.345  10.242  1.1425  1.5612  0.4904
   73SLPC   O32 6417   4.521   5.235  10.224  0.1176  0.4075 -0.5112
   73SLPC   C32 6418   4.673   5.410  10.150  0.3400  0.5624 -0.2653
   73SLPC   H2X 6419   4.768   5.351  10.149 -0.2892 -0.9165  4.4022
   73SLPC   H2Y 6420   4.705   5.508  10.194 -0.9978  0.7282  0.3631
   73SLPC   C23 6421   4.514   5.874  10.439  0.1428 -0.1653 -0.3286
   73SLPC   H3R 6422   4.621   5.870  10.465 -0.0645  1.8919  1.0574
   73SLPC   H3S 6423   4.471   5.976  10.445  1.2719  0.3373 -0.6455
   73SLPC   C24 6424   4.510   5.822  10.295 -0.1376  0.6715 -0.8055
   73SLPC   H4R 6425   4.401   5.807  10.280 -0.4242  1.0742  0.7007
   73SLPC   H4S 6426   4.562   5.724  10.291 -1.1244  0.1301 -0.6532
   73SLPC   C25 6427   4.571   5.911  10.193  0.5650  0.6631  0.1273
   73SLPC   H5R 6428   4.674   5.938  10.223  0.5581  0.9972 -0.1395
   73SLPC   H5S 6429   4.500   5.996  10.182 -2.6029 -1.8500 -0.3655
   73SLPC   C26 6430   4.587   5.836  10.057  0.2705  0.0743  0.2513
   73SLPC   H6R 6431   4.494   5.785  10.024 -0.1759  0.7286  0.4793
   73SLPC   H6S 6432   4.663   5.755  10.065 -2.5729 -2.6632  1.4512
   73SLPC   C27 6433   4.633   5.939   9.953  0.2742 -0.5137  0.5505
   73SLPC   H7R 6434   4.726   5.898   9.909  0.8545 -0.8389  2.0111
   73SLPC   H7S 6435   4.645   6.036  10.005 -1.8209  0.1761 -0.1437
   73SLPC   C28 6436   4.522   5.960   9.849  0.0248  0.1513 -0.6702
   73SLPC   H8R 6437   4.505   6.066   9.822 -2.3552  0.2636  0.9853
   73SLPC   H8S 6438   4.426   5.925   9.892  0.9320  0.4796  1.8240
   73SLPC   C29 6439   4.536   5.876   9.722 -0.6434 -0.8596  0.3306
   73SLPC   H9R 6440   4.591   5.781   9.732 -1.5827 -1.5200 -0.5432
   73SLPC  C210 6441   4.469   5.906   9.611  0.4038 -0.1134 -0.5673
   73SLPC  H10R 6442   4.510   5.869   9.516  0.2933 -0.7092 -0.3838
   73SLPC  C211 6443   4.375   6.020   9.602 -0.5001 -0.4320  0.3821
   73SLPC  H11R 6444   4.425   6.119   9.607  0.5558 -0.9942  2.1675
   73SLPC  H11S 6445   4.302   6.025   9.686  0.1524 -1.4696  1.0442
   73SLPC  C212 6446   4.292   6.013   9.471 -0.1460  0.5253 -0.2798
   73SLPC  H12R 6447   4.196   5.960   9.482 -0.6017  1.2410 -0.6770
   73SLPC  C213 6448   4.332   6.046   9.348  0.0647 -0.4226  0.3142
   73SLPC  H13R 6449   4.258   6.058   9.268  0.2936  2.1261  0.4037
   73SLPC  C214 6450   4.462   6.110   9.300 -0.7304  0.0410 -0.3674
   73SLPC  H14R 6451   4.517   6.158   9.384  2.9449 -1.8243 -1.4902
   73SLPC  H14S 6452   4.440   6.179   9.217  1.9836  1.1358 -0.2673
   73SLPC  C215 6453   4.567   6.019   9.230  0.1970 -0.0023 -0.8773
   73SLPC  H15R 6454   4.588   5.934   9.299 -0.8427 -0.8156 -1.5328
   73SLPC  H15S 6455   4.662   6.071   9.207  0.2919  0.6764  0.8333
   73SLPC  C216 6456   4.518   5.965   9.097  0.6297 -0.4217  0.0331
   73SLPC  H16R 6457   4.416   5.924   9.119  0.3329  0.8656  1.2214
   73SLPC  H16S 6458   4.588   5.884   9.069 -0.7324 -1.2098 -1.2554
   73SLPC  C217 6459   4.519   6.075   8.991 -0.0734  0.8713 -0.3204
   73SLPC  H17R 6460   4.432   6.145   8.996 -1.7689 -1.2016  0.5586
   73SLPC  H17S 6461   4.481   6.018   8.903 -0.1464 -0.9625  0.8570
   73SLPC  C218 6462   4.654   6.140   8.953  0.1744 -0.3233 -0.4336
   73SLPC  H18R 6463   4.726   6.056   8.938  0.2455 -0.6266  1.4018
   73SLPC  H18S 6464   4.688   6.207   9.036 -1.6008 -0.5372  0.4949
   73SLPC  H18T 6465   4.654   6.195   8.856  0.3429 -0.3119 -0.4288
   73SLPC   C33 6466   4.606   5.436  10.010  0.1108 -0.2524 -0.4672
   73SLPC   H3X 6467   4.516   5.502  10.009 -0.8571 -1.4692 -2.9475
   73SLPC   H3Y 6468   4.565   5.341   9.971 -1.1914  0.0645  0.0495
   73SLPC   C34 6469   4.709   5.483   9.907  0.7389 -0.0771 -0.0729
   73SLPC   H4X 6470   4.783   5.401   9.912  1.4324  0.5685  0.3503
   73SLPC   H4Y 6471   4.744   5.585   9.934 -0.7572  0.6000 -0.5507
   73SLPC   C35 6472   4.658   5.481   9.766  0.1420  0.5599  0.8425
   73SLPC   H5X 6473   4.583   5.561   9.748  0.0340  0.3239  0.2346
   73SLPC   H5Y 6474   4.611   5.383   9.744  0.3772  0.1790  1.9564
   73SLPC   C36 6475   4.775   5.512   9.670  0.0695  0.1712  0.2542
   73SLPC   H6X 6476   4.855   5.435   9.677 -0.0700 -0.4805 -3.2502
   73SLPC   H6Y 6477   4.829   5.603   9.700  1.0841 -0.7470  1.2968
   73SLPC   C37 6478   4.743   5.534   9.520  0.0068  0.0493 -0.0963
   73SLPC   H7X 6479   4.664   5.610   9.503 -0.8571 -0.5242  1.1465
   73SLPC   H7Y 6480   4.678   5.447   9.494  1.1074 -1.0145  0.6002
   73SLPC   C38 6481   4.859   5.556   9.431 -0.4152  0.8520  0.2076
   73SLPC   H8X 6482   4.931   5.473   9.450  0.0108  1.0398 -0.5512
   73SLPC   H8Y 6483   4.916   5.646   9.465  2.8635 -0.5219 -1.1629
   73SLPC   C39 6484   4.831   5.562   9.280  0.5838  0.8900 -0.2940
   73SLPC   H9X 6485   4.778   5.656   9.255 -0.3092  0.6409  0.5799
   73SLPC   H9Y 6486   4.756   5.486   9.249  0.8205  1.3494 -2.0849
   73SLPC  C310 6487   4.960   5.559   9.196  0.3835 -0.0379 -0.2202
   73SLPC  H10X 6488   5.004   5.458   9.206 -1.1217 -0.7874 -0.7894
   73SLPC  H10Y 6489   5.033   5.629   9.240 -0.3861  0.3886  0.4086
   73SLPC  C311 6490   4.934   5.595   9.051  0.3855  0.2657 -0.1148
   73SLPC  H11X 6491   4.857   5.675   9.044 -0.5102 -0.6766 -1.4704
   73SLPC  H11Y 6492   4.889   5.501   9.013  0.3821 -1.4386  3.7113
   73SLPC  C312 6493   5.059   5.609   8.971  0.0197  0.0526 -0.1421
   73SLPC  H12X 6494   5.117   5.515   8.981 -0.0278  0.0046 -0.3140
   73SLPC  H12Y 6495   5.120   5.687   9.022  0.9186 -1.2816  0.8912
   73SLPC  C313 6496   5.047   5.657   8.826 -0.6295 -0.0567  1.1085
   73SLPC  H13X 6497   4.996   5.756   8.823 -0.7800 -0.0779  2.5410
   73SLPC  H13Y 6498   4.973   5.594   8.771  2.3316 -3.2306  0.4391
   73SLPC  C314 6499   5.181   5.665   8.766  0.3792  0.2571 -0.0862
   73SLPC  H14X 6500   5.227   5.566   8.787 -2.8368 -1.1590  0.8813
   73SLPC  H14Y 6501   5.243   5.745   8.811  0.4591 -0.2522  0.7278
   73SLPC  C315 6502   5.187   5.707   8.620  0.5827 -0.4854  0.0065
   73SLPC  H15X 6503   5.127   5.799   8.600 -1.2905 -1.2879  1.6000
   73SLPC  H15Y 6504   5.139   5.622   8.566 -0.4077  0.0743 -0.0177
   73SLPC  C316 6505   5.318   5.730   8.550 -0.6281 -0.2277 -0.7993
   73SLPC  H16X 6506   5.370   5.634   8.571  2.3123  1.4512  0.2313
   73SLPC  H16Y 6507   5.374   5.815   8.594 -2.4545  1.9144 -2.4097
   73SLPC  C317 6508   5.322   5.756   8.403 -0.5783 -0.2368 -0.2097
   73SLPC  H17X 6509   5.422   5.805   8.396 -0.1469 -0.4562  3.1596
   73SLPC  H17Y 6510   5.248   5.837   8.383 -0.2894 -0.2939 -1.6871
   73SLPC  C318 6511   5.284   5.642   8.306  0.0967 -0.1116 -0.5729
   73SLPC  H18X 6512   5.362   5.564   8.324  0.4133  0.8440  2.9456
   73SLPC  H18Y 6513   5.286   5.686   8.204  0.3341 -0.7497 -0.8484
   73SLPC  H18Z 6514   5.185   5.605   8.339 -0.7185  3.6172  1.7993
   74SLPC     N 6515   3.467   5.594  10.786 -0.2777 -0.1555 -0.5491
   74SLPC   C13 6516   3.514   5.693  10.888 -0.1948  0.0655  0.0204
   74SLPC  H13A 6517   3.572   5.635  10.957  0.3472 -2.3752 -2.3329
   74SLPC  H13B 6518   3.588   5.753  10.837 -0.5899  0.2714 -0.3239
   74SLPC  H13C 6519   3.440   5.753  10.940 -0.1256 -1.1214  1.5531
   74SLPC   C14 6520   3.376   5.655  10.685 -0.5748  0.6377  1.1705
   74SLPC  H14A 6521   3.278   5.682  10.722 -0.0059  1.5406  2.1083
   74SLPC  H14B 6522   3.436   5.736  10.646  0.3216  0.0531  1.2994
   74SLPC  H14C 6523   3.353   5.580  10.611  1.9751  1.4726 -0.6302
   74SLPC   C15 6524   3.379   5.498  10.856  0.2045  0.4304 -0.9422
   74SLPC  H15A 6525   3.288   5.542  10.895 -1.5275 -1.2526 -2.7922
   74SLPC  H15B 6526   3.338   5.429  10.784  1.8586 -1.8035  0.1279
   74SLPC  H15C 6527   3.437   5.441  10.927 -3.1236  0.1155  1.8360
   74SLPC   C12 6528   3.586   5.530  10.716  0.1949 -0.1778 -0.1426
   74SLPC  H12A 6529   3.640   5.614  10.676 -3.3676  1.9227 -0.9852
   74SLPC  H12B 6530   3.557   5.468  10.633  1.6122  0.9043 -1.4759
   74SLPC   C11 6531   3.697   5.455  10.792  0.3459  1.2183 -0.0516
   74SLPC  H11A 6532   3.766   5.394  10.729  0.4827 -0.3454  1.5419
   74SLPC  H11B 6533   3.660   5.370  10.854 -0.6821  1.2203 -0.6365
   74SLPC     P 6534   3.886   5.635  10.815  0.4305  0.2122  0.4188
   74SLPC   O13 6535   3.913   5.727  10.925 -0.1789 -0.2156 -0.6728
   74SLPC   O14 6536   3.998   5.555  10.766 -0.3796  0.2385  0.0336
   74SLPC   O12 6537   3.773   5.535  10.874  0.3354 -0.1647  0.0444
   74SLPC   O11 6538   3.820   5.714  10.698 -0.3750 -0.3796  0.2747
   74SLPC    C1 6539   3.833   5.858  10.692  0.0450 -0.0007 -0.1563
   74SLPC    HA 6540   3.734   5.908  10.682  0.0952 -0.1866 -1.8502
   74SLPC    HB 6541   3.879   5.901  10.783 -2.3132  1.1844  0.5700
   74SLPC    C2 6542   3.911   5.907  10.565  0.1882 -0.0466 -0.1611
   74SLPC    HS 6543   3.889   6.016  10.561 -1.3059 -0.1440  2.8477
   74SLPC   O21 6544   3.867   5.827  10.452  0.5213 -0.9878  0.4667
   74SLPC   C21 6545   3.744   5.839  10.411 -0.4266 -0.1049  0.0766
   74SLPC   O22 6546   3.658   5.910  10.462 -0.3720 -0.0051 -0.0094
   74SLPC   C22 6547   3.719   5.745  10.290 -0.5713  0.6939 -0.6925
   74SLPC   H2R 6548   3.803   5.672  10.285 -0.7018  0.6178 -2.1481
   74SLPC   H2S 6549   3.629   5.691  10.325 -0.2847  0.6475  0.0006
   74SLPC    C3 6550   4.065   5.899  10.574 -0.2988 -0.1082 -0.6654
   74SLPC    HX 6551   4.104   5.795  10.583 -2.0230 -1.0087 -2.8411
   74SLPC    HY 6552   4.116   5.945  10.661  0.7526  0.6155 -1.6284
   74SLPC   O31 6553   4.122   5.971  10.465 -0.1786  0.5621 -0.3231
   74SLPC   C31 6554   4.116   6.100  10.441  0.4832 -0.2953 -0.2923
   74SLPC   O32 6555   4.052   6.178  10.509 -0.5047  0.2090  0.3487
   74SLPC   C32 6556   4.215   6.138  10.323 -0.2763 -0.6942  0.3304
   74SLPC   H2X 6557   4.314   6.091  10.337  0.4976  0.7682 -0.1101
   74SLPC   H2Y 6558   4.226   6.247  10.343  0.9314 -0.9338  0.9894
   74SLPC   C23 6559   3.696   5.807  10.151 -0.7650 -0.6135  0.2257
   74SLPC   H3R 6560   3.625   5.890  10.169  1.3856  1.0925  1.3667
   74SLPC   H3S 6561   3.648   5.729  10.088  0.2443 -2.5446  1.7073
   74SLPC   C24 6562   3.824   5.865  10.082  0.6747  0.0535 -0.5554
   74SLPC   H4R 6563   3.885   5.780  10.044 -0.4292 -1.2519  0.4699
   74SLPC   H4S 6564   3.878   5.918  10.164 -2.2390 -0.1893  1.6928
   74SLPC   C25 6565   3.795   5.968   9.971 -0.2563 -0.4176  0.3823
   74SLPC   H5R 6566   3.833   6.066  10.006  0.9602 -0.6543 -0.2299
   74SLPC   H5S 6567   3.684   5.972   9.964 -0.4335 -0.2266  2.6377
   74SLPC   C26 6568   3.854   5.915   9.843  0.0569 -0.1597  0.4846
   74SLPC   H6R 6569   3.817   5.816   9.807 -1.9195  1.0472 -0.9964
   74SLPC   H6S 6570   3.962   5.899   9.865  0.4325  2.6708  1.0196
   74SLPC   C27 6571   3.844   6.008   9.720 -0.1426 -0.1009 -0.2075
   74SLPC   H7R 6572   3.880   6.110   9.745  1.4519 -0.9152  0.9833
   74SLPC   H7S 6573   3.737   6.002   9.692 -0.0774 -4.1152 -0.2025
   74SLPC   C28 6574   3.934   5.952   9.599  0.8574  0.0961  0.2342
   74SLPC   H8R 6575   4.038   5.947   9.636  0.9498  0.0087 -0.0382
   74SLPC   H8S 6576   3.935   6.033   9.522  2.4100 -2.1639 -2.3118
   74SLPC   C29 6577   3.882   5.821   9.538  0.2935  0.0053 -0.8468
   74SLPC   H9R 6578   3.916   5.734   9.595 -1.7747 -0.5284 -0.3724
   74SLPC  C210 6579   3.804   5.814   9.429  0.0115 -0.1029 -0.0529
   74SLPC  H10R 6580   3.759   5.717   9.402 -0.8909  1.0644 -3.1225
   74SLPC  C211 6581   3.748   5.932   9.349  0.3706  0.8355 -0.2624
   74SLPC  H11R 6582   3.831   5.958   9.279  0.5861  1.0222  0.0578
   74SLPC  H11S 6583   3.746   6.024   9.412  1.8435  0.6364  0.1103
   74SLPC  C212 6584   3.604   5.918   9.304  0.8828  0.2788 -0.4343
   74SLPC  H12R 6585   3.589   5.887   9.199  0.3615 -1.3224  0.0767
   74SLPC  C213 6586   3.493   5.933   9.385 -0.6164  0.1152 -1.0067
   74SLPC  H13R 6587   3.396   5.950   9.336 -0.9948  4.3884  0.7622
   74SLPC  C214 6588   3.483   5.967   9.527 -0.3340 -0.1211  0.4982
   74SLPC  H14R 6589   3.565   6.038   9.554 -1.8361  1.8017  0.1902
   74SLPC  H14S 6590   3.494   5.880   9.594  1.8416 -0.0839  0.2724
   74SLPC  C215 6591   3.357   6.060   9.532 -0.3765 -0.4635 -0.0202
   74SLPC  H15R 6592   3.278   5.996   9.488 -0.9451 -0.3499  0.8116
   74SLPC  H15S 6593   3.357   6.147   9.462 -0.6838 -0.9903 -0.6805
   74SLPC  C216 6594   3.326   6.111   9.673 -0.2617  0.2539 -0.1025
   74SLPC  H16R 6595   3.243   6.185   9.668 -1.4374 -1.0910 -2.6113
   74SLPC  H16S 6596   3.407   6.179   9.708 -1.1088  0.2318  2.0629
   74SLPC  C217 6597   3.299   6.005   9.778  0.1093  0.3681 -0.7713
   74SLPC  H17R 6598   3.251   6.051   9.868  0.5104 -0.7543  0.0355
   74SLPC  H17S 6599   3.400   5.962   9.796 -0.3439 -0.7867 -0.9187
   74SLPC  C218 6600   3.213   5.889   9.735  0.0848  0.4794 -0.4054
   74SLPC  H18R 6601   3.214   5.810   9.814  0.7649  0.5226 -0.3590
   74SLPC  H18S 6602   3.257   5.842   9.644 -1.4929  2.8926 -2.5370
   74SLPC  H18T 6603   3.107   5.907   9.710  0.2011 -0.1250 -1.4065
   74SLPC   C33 6604   4.149   6.133  10.177 -0.4084 -0.4560  0.2805
   74SLPC   H3X 6605   4.056   6.193  10.188 -1.4014 -1.5700 -1.4294
   74SLPC   H3Y 6606   4.122   6.041  10.120 -0.6858  1.3299 -2.6999
   74SLPC   C34 6607   4.241   6.194  10.070 -0.1127  0.1025  0.3902
   74SLPC   H4X 6608   4.315   6.117  10.040 -0.4083 -0.7133  1.6833
   74SLPC   H4Y 6609   4.289   6.280  10.123  0.4299 -0.4643  0.8260
   74SLPC   C35 6610   4.163   6.250   9.950  0.3982  0.1089 -0.1690
   74SLPC   H5X 6611   4.076   6.315   9.970  0.2436  0.3237 -1.4408
   74SLPC   H5Y 6612   4.120   6.166   9.891 -1.0562 -0.3081  1.4127
   74SLPC   C36 6613   4.251   6.320   9.846 -0.0022  0.0131  0.5472
   74SLPC   H6X 6614   4.330   6.249   9.814  0.7048  0.3997  1.4004
   74SLPC   H6Y 6615   4.308   6.410   9.876  1.9142 -0.3961 -1.5739
   74SLPC   C37 6616   4.181   6.360   9.714  0.4071  0.6582  0.5457
   74SLPC   H7X 6617   4.101   6.435   9.730  0.0440  0.7632 -1.4508
   74SLPC   H7Y 6618   4.136   6.268   9.669 -0.7115  1.9292 -1.0526
   74SLPC   C38 6619   4.279   6.409   9.606 -0.3186 -0.0219 -0.1901
   74SLPC   H8X 6620   4.365   6.339   9.609 -2.0548 -2.3338 -0.4394
   74SLPC   H8Y 6621   4.304   6.514   9.628 -0.1994  0.0498 -0.6533
   74SLPC   C39 6622   4.218   6.410   9.468 -0.0042 -0.2827 -0.6686
   74SLPC   H9X 6623   4.132   6.481   9.462  0.0516 -0.2743 -1.4550
   74SLPC   H9Y 6624   4.191   6.307   9.437 -1.3632  0.1452 -1.0083
   74SLPC  C310 6625   4.318   6.457   9.362 -0.3523  0.1847  0.1900
   74SLPC  H10X 6626   4.412   6.398   9.371 -0.9169 -0.6685  0.4999
   74SLPC  H10Y 6627   4.339   6.564   9.388  2.2409 -0.0650 -0.6046
   74SLPC  C311 6628   4.274   6.451   9.220  0.6767  0.2883  0.1016
   74SLPC  H11X 6629   4.192   6.526   9.210 -0.5189 -1.0997 -0.9729
   74SLPC  H11Y 6630   4.235   6.349   9.198 -1.6046  0.5464  2.4595
   74SLPC  C312 6631   4.381   6.505   9.123  0.0738  0.2983  0.7569
   74SLPC  H12X 6632   4.480   6.463   9.153  0.8148  0.6595 -1.0717
   74SLPC  H12Y 6633   4.383   6.616   9.133 -1.4345  0.5641 -1.4004
   74SLPC  C313 6634   4.349   6.465   8.975  0.4095  0.0738  0.1253
   74SLPC  H13X 6635   4.358   6.354   8.969  3.7958  0.3474 -2.4045
   74SLPC  H13Y 6636   4.425   6.500   8.903 -0.4004 -1.0612 -1.3364
   74SLPC  C314 6637   4.206   6.498   8.920 -0.0144  0.1263  0.5482
   74SLPC  H14X 6638   4.130   6.439   8.976 -1.5595 -1.3152 -2.7806
   74SLPC  H14Y 6639   4.199   6.455   8.818 -1.1859  1.7688 -0.1157
   74SLPC  C315 6640   4.156   6.642   8.913 -0.2157 -0.5598  0.0868
   74SLPC  H15X 6641   4.232   6.709   8.867  0.6875 -1.8425 -0.3633
   74SLPC  H15Y 6642   4.130   6.681   9.013  3.3810 -3.6670  2.4986
   74SLPC  C316 6643   4.022   6.652   8.833 -0.1468  0.4844  0.4179
   74SLPC  H16X 6644   3.946   6.645   8.913 -1.9055  3.2035 -0.8611
   74SLPC  H16Y 6645   4.013   6.560   8.771 -0.3584 -2.0683  3.9461
   74SLPC  C317 6646   3.990   6.778   8.761 -0.2005 -0.0233 -0.5256
   74SLPC  H17X 6647   4.061   6.774   8.676  1.5544 -0.1672  0.9024
   74SLPC  H17Y 6648   4.024   6.857   8.831  0.7529 -1.6366  0.9356
   74SLPC  C318 6649   3.843   6.779   8.708 -0.4521 -0.2297 -0.3734
   74SLPC  H18X 6650   3.832   6.857   8.629  0.0718  0.7965  0.5465
   74SLPC  H18Y 6651   3.762   6.792   8.783 -0.9862 -2.0731 -0.5782
   74SLPC  H18Z 6652   3.832   6.683   8.653 -0.9200  0.6986 -1.9662
   75SLPC     N 6653   4.292   3.379   6.266  0.2969  0.0901  0.1584
   75SLPC   C13 6654   4.416   3.420   6.198  0.2326 -0.2473 -0.1660
   75SLPC  H13A 6655   4.458   3.359   6.119  0.4789 -0.4600  0.1316
   75SLPC  H13B 6656   4.406   3.521   6.159  0.6053 -0.3489 -0.5289
   75SLPC  H13C 6657   4.488   3.418   6.277 -0.6733 -2.5742  0.6813
   75SLPC   C14 6658   4.306   3.243   6.328  0.4313 -0.1570 -0.2705
   75SLPC  H14A 6659   4.348   3.182   6.249 -1.7947 -0.2569 -1.4482
   75SLPC  H14B 6660   4.372   3.246   6.414  2.5745 -2.2285 -1.7115
   75SLPC  H14C 6661   4.213   3.198   6.359  0.1114  0.9947  0.5362
   75SLPC   C15 6662   4.188   3.363   6.157  0.1998 -0.3230 -0.1865
   75SLPC  H15A 6663   4.238   3.310   6.077  1.0142 -1.7661  1.2374
   75SLPC  H15B 6664   4.102   3.310   6.195  0.0537  0.4049  0.5207
   75SLPC  H15C 6665   4.143   3.455   6.123 -0.9622 -0.0894  1.8021
   75SLPC   C12 6666   4.238   3.474   6.372 -0.2128  0.3965 -0.5852
   75SLPC  H12A 6667   4.139   3.439   6.398  1.2141 -2.3730  1.7742
   75SLPC  H12B 6668   4.250   3.575   6.337  4.1256  0.6952  1.2066
   75SLPC   C11 6669   4.318   3.475   6.505  0.5660  0.0332 -0.3705
   75SLPC  H11A 6670   4.423   3.504   6.483  0.9267  0.3339  1.5630
   75SLPC  H11B 6671   4.319   3.377   6.556 -2.3886  0.3210  0.4330
   75SLPC     P 6672   4.293   3.720   6.599 -0.8341  0.0234 -0.3288
   75SLPC   O13 6673   4.291   3.770   6.463 -0.1796 -0.1386  0.3674
   75SLPC   O14 6674   4.204   3.787   6.691 -0.2364 -0.1165 -0.0053
   75SLPC   O12 6675   4.257   3.565   6.594  0.3759 -0.1209  0.2844
   75SLPC   O11 6676   4.438   3.723   6.663  0.1000 -0.1854  0.5737
   75SLPC    C1 6677   4.462   3.628   6.768  0.5106 -0.2102 -0.6101
   75SLPC    HA 6678   4.416   3.528   6.759 -0.1570  0.1495 -1.3265
   75SLPC    HB 6679   4.572   3.611   6.761  0.8860  1.1101  1.1415
   75SLPC    C2 6680   4.448   3.685   6.908  0.8466  0.5069 -0.2133
   75SLPC    HS 6681   4.337   3.693   6.913  0.9091  1.4823 -0.0697
   75SLPC   O21 6682   4.510   3.815   6.931 -0.0893 -0.0429 -0.0934
   75SLPC   C21 6683   4.445   3.894   7.010 -0.7319  0.0462 -0.3032
   75SLPC   O22 6684   4.329   3.888   7.048 -0.1398 -0.6333  0.1154
   75SLPC   C22 6685   4.540   4.011   7.058  0.0505  0.1966  0.5231
   75SLPC   H2R 6686   4.594   4.048   6.969 -0.9617 -0.1233 -0.2399
   75SLPC   H2S 6687   4.476   4.095   7.090 -0.7943  0.3139 -1.3878
   75SLPC    C3 6688   4.505   3.590   7.021 -0.1333 -0.1518 -0.1451
   75SLPC    HX 6689   4.615   3.578   7.015 -0.0529  0.1324  0.6569
   75SLPC    HY 6690   4.466   3.488   7.001 -0.0173  0.0027 -1.2137
   75SLPC   O31 6691   4.473   3.640   7.158 -0.1545 -0.3866  0.0091
   75SLPC   C31 6692   4.347   3.617   7.195  0.4529  0.2235  0.1351
   75SLPC   O32 6693   4.262   3.562   7.125  0.5980  0.2637 -0.0355
   75SLPC   C32 6694   4.323   3.669   7.334  0.2687 -0.2211 -0.3044
   75SLPC   H2X 6695   4.231   3.730   7.332  0.7526  0.6543  1.7827
   75SLPC   H2Y 6696   4.406   3.734   7.368  1.4510 -1.3119 -1.0068
   75SLPC   C23 6697   4.645   3.966   7.160  0.0437 -0.8943 -0.1388
   75SLPC   H3R 6698   4.747   4.008   7.155 -0.2966 -0.1524 -0.9450
   75SLPC   H3S 6699   4.664   3.858   7.139 -0.3068 -0.6439 -1.8821
   75SLPC   C24 6700   4.596   3.971   7.310  0.0886  0.0908  0.0338
   75SLPC   H4R 6701   4.491   3.934   7.315  0.6344 -1.7684 -0.9842
   75SLPC   H4S 6702   4.596   4.075   7.349 -0.0828 -0.3424  1.2398
   75SLPC   C25 6703   4.676   3.868   7.391 -0.0011  0.4185 -0.0821
   75SLPC   H5R 6704   4.776   3.913   7.404 -1.2256  2.8422  1.6613
   75SLPC   H5S 6705   4.686   3.765   7.349 -0.5022 -0.0462  0.9195
   75SLPC   C26 6706   4.609   3.858   7.535 -0.6876  0.3540  0.3737
   75SLPC   H6R 6707   4.510   3.811   7.523 -0.4175  0.2940 -1.9194
   75SLPC   H6S 6708   4.615   3.961   7.575  1.3531  0.5119 -0.2211
   75SLPC   C27 6709   4.693   3.772   7.636 -0.6093 -0.6380 -0.7503
   75SLPC   H7R 6710   4.793   3.816   7.655 -0.7932 -0.7634  0.6068
   75SLPC   H7S 6711   4.708   3.679   7.578  0.2132 -0.6026 -0.6049
   75SLPC   C28 6712   4.618   3.746   7.771  0.5758  0.0869  0.1927
   75SLPC   H8R 6713   4.648   3.662   7.838 -0.7567 -0.9321 -0.4424
   75SLPC   H8S 6714   4.525   3.706   7.727  1.3613  1.4611 -2.9763
   75SLPC   C29 6715   4.603   3.875   7.850  0.8313  0.4188 -0.4145
   75SLPC   H9R 6716   4.540   3.948   7.797  2.5221  0.7481 -2.1113
   75SLPC  C210 6717   4.667   3.901   7.963 -0.6964  0.4241 -0.1900
   75SLPC  H10R 6718   4.655   4.000   8.009  0.5217 -0.5455  2.4312
   75SLPC  C211 6719   4.766   3.813   8.033  0.2840 -0.2473 -0.4908
   75SLPC  H11R 6720   4.818   3.869   8.112 -0.7201  3.7005 -2.3765
   75SLPC  H11S 6721   4.845   3.806   7.955  0.3880 -0.5313 -0.3590
   75SLPC  C212 6722   4.727   3.679   8.091  0.3355 -0.5517  0.0897
   75SLPC  H12R 6723   4.725   3.590   8.026  3.0846 -0.9087  0.3639
   75SLPC  C213 6724   4.728   3.643   8.222 -0.4229 -0.4491 -0.1375
   75SLPC  H13R 6725   4.715   3.536   8.248  0.1931 -0.6249 -0.5304
   75SLPC  C214 6726   4.756   3.736   8.339 -0.0532 -0.2664  0.2353
   75SLPC  H14R 6727   4.719   3.837   8.312 -1.8909 -0.7136  0.9191
   75SLPC  H14S 6728   4.865   3.738   8.357 -0.2443 -0.8935  1.5812
   75SLPC  C215 6729   4.684   3.690   8.467  0.3522  0.4574  0.6867
   75SLPC  H15R 6730   4.719   3.588   8.490 -0.4120 -0.8599 -3.2678
   75SLPC  H15S 6731   4.574   3.678   8.454  0.6680  0.2462 -2.3561
   75SLPC  C216 6732   4.697   3.797   8.571  0.2066 -0.0038  0.0685
   75SLPC  H16R 6733   4.680   3.901   8.539  0.6147  0.6783  1.9143
   75SLPC  H16S 6734   4.806   3.806   8.593  0.5971 -2.8387 -0.3119
   75SLPC  C217 6735   4.612   3.774   8.694  0.6745  0.0469  0.0675
   75SLPC  H17R 6736   4.646   3.679   8.741  0.8814 -0.5031 -1.1473
   75SLPC  H17S 6737   4.506   3.774   8.661  0.7406  2.6505 -0.3784
   75SLPC  C218 6738   4.623   3.889   8.793 -0.1273 -0.7397 -0.8762
   75SLPC  H18R 6739   4.612   3.993   8.757  1.1140  0.1611  1.1724
   75SLPC  H18S 6740   4.718   3.876   8.848 -0.5947 -3.5423 -0.5665
   75SLPC  H18T 6741   4.548   3.869   8.873  0.8583 -0.1349  0.2209
   75SLPC   C33 6742   4.293   3.567   7.438  0.3915 -0.0299 -0.3565
   75SLPC   H3X 6743   4.249   3.608   7.531  1.3566  0.6205 -0.1826
   75SLPC   H3Y 6744   4.213   3.505   7.391  0.7211 -0.3425 -0.5106
   75SLPC   C34 6745   4.409   3.483   7.471 -0.2161  0.2019  0.0293
   75SLPC   H4X 6746   4.494   3.550   7.496  1.3077 -0.9973 -1.6370
   75SLPC   H4Y 6747   4.432   3.437   7.373 -1.5182  0.1632 -0.2829
   75SLPC   C35 6748   4.378   3.368   7.569  0.0667 -0.1439 -0.7252
   75SLPC   H5X 6749   4.454   3.288   7.558 -1.3391 -1.5739 -0.4136
   75SLPC   H5Y 6750   4.280   3.320   7.550 -0.9785  1.3838  0.5397
   75SLPC   C36 6751   4.398   3.415   7.709  0.0664 -0.0803 -0.5414
   75SLPC   H6X 6752   4.309   3.478   7.731 -1.6350 -2.5555  0.1949
   75SLPC   H6Y 6753   4.482   3.486   7.722 -0.6932  0.6235  0.7323
   75SLPC   C37 6754   4.386   3.299   7.820 -0.2274 -0.2634  0.0943
   75SLPC   H7X 6755   4.472   3.230   7.805  1.6027  1.4379  2.1283
   75SLPC   H7Y 6756   4.291   3.244   7.801  0.1305 -0.7284 -0.4180
   75SLPC   C38 6757   4.379   3.341   7.960  0.4237 -1.2633  0.1548
   75SLPC   H8X 6758   4.289   3.405   7.973  1.9193  0.6006  2.0183
   75SLPC   H8Y 6759   4.463   3.408   7.988 -0.5099 -1.2739  3.3532
   75SLPC   C39 6760   4.368   3.228   8.062  0.1874  0.4509  0.9207
   75SLPC   H9X 6761   4.459   3.166   8.046 -1.4422 -1.6195 -1.0170
   75SLPC   H9Y 6762   4.279   3.165   8.040  1.1251 -0.4328 -0.6040
   75SLPC  C310 6763   4.356   3.275   8.208  0.8326 -0.2025  0.9766
   75SLPC  H10X 6764   4.251   3.308   8.216 -0.0338 -1.4736 -2.9653
   75SLPC  H10Y 6765   4.424   3.362   8.219  0.1191  0.4477  0.2472
   75SLPC  C311 6766   4.399   3.171   8.309  0.1834 -0.4294  0.1937
   75SLPC  H11X 6767   4.495   3.132   8.269  0.7300  1.0195  0.0164
   75SLPC  H11Y 6768   4.325   3.089   8.305 -2.6891  2.0110 -0.4509
   75SLPC  C312 6769   4.407   3.223   8.448  0.4832 -0.0296  0.6229
   75SLPC  H12X 6770   4.448   3.137   8.505 -0.0553 -1.3451 -0.8734
   75SLPC  H12Y 6771   4.307   3.252   8.485 -0.1766  0.1869 -1.2245
   75SLPC  C313 6772   4.508   3.338   8.467 -0.6040 -0.3432  0.3778
   75SLPC  H13X 6773   4.469   3.437   8.433 -0.3808 -0.0363  1.0014
   75SLPC  H13Y 6774   4.596   3.316   8.403 -0.9747  1.7713 -0.9753
   75SLPC  C314 6775   4.554   3.357   8.608 -0.5013 -0.3582 -1.0162
   75SLPC  H14X 6776   4.645   3.416   8.632 -1.3283  0.2718  0.7163
   75SLPC  H14Y 6777   4.553   3.263   8.666 -2.8513  0.4687  0.4630
   75SLPC  C315 6778   4.448   3.437   8.693 -0.5241 -0.1406 -0.5759
   75SLPC  H15X 6779   4.349   3.386   8.689  0.5409 -2.4382  0.2694
   75SLPC  H15Y 6780   4.434   3.541   8.658 -0.0942 -0.2980 -1.2408
   75SLPC  C316 6781   4.489   3.447   8.846  0.3938  0.5243  0.1004
   75SLPC  H16X 6782   4.588   3.498   8.849  0.8904 -0.2690 -1.3897
   75SLPC  H16Y 6783   4.489   3.344   8.887  0.7147  1.1878  1.8314
   75SLPC  C317 6784   4.398   3.533   8.931 -0.6597  0.7995  0.0477
   75SLPC  H17X 6785   4.295   3.490   8.934 -2.1869  3.7728 -2.6638
   75SLPC  H17Y 6786   4.387   3.637   8.892 -3.5463  1.0172  1.1994
   75SLPC  C318 6787   4.439   3.550   9.078  0.2063 -0.8402  0.9680
   75SLPC  H18X 6788   4.349   3.570   9.139  1.4915  0.8658  2.3771
   75SLPC  H18Y 6789   4.507   3.636   9.097 -0.0477 -0.6909  1.2045
   75SLPC  H18Z 6790   4.484   3.456   9.115  0.4216 -1.5919 -1.0407
   76SLPC     N 6791   5.578   5.493   5.981 -0.5576 -0.6190  0.1591
   76SLPC   C13 6792   5.710   5.497   5.909 -0.3385  0.1468  0.3041
   76SLPC  H13A 6793   5.790   5.537   5.970  1.3040  1.8691 -2.7372
   76SLPC  H13B 6794   5.743   5.398   5.879  2.3547  1.0397 -0.0059
   76SLPC  H13C 6795   5.711   5.559   5.821 -2.3924 -0.2787 -0.0705
   76SLPC   C14 6796   5.469   5.449   5.891  0.3852  0.4572 -0.0623
   76SLPC  H14A 6797   5.373   5.439   5.939 -0.4158 -1.3798 -1.8780
   76SLPC  H14B 6798   5.461   5.504   5.798 -0.3689 -0.3857 -0.5143
   76SLPC  H14C 6799   5.480   5.347   5.857  1.9737  0.1175  1.3119
   76SLPC   C15 6800   5.555   5.640   6.022  0.4122 -0.8646 -0.7588
   76SLPC  H15A 6801   5.550   5.709   5.939 -1.2530  0.2436  0.2072
   76SLPC  H15B 6802   5.466   5.656   6.080  1.2901  1.9446 -0.0359
   76SLPC  H15C 6803   5.636   5.681   6.081 -0.1145  0.4408 -0.9193
   76SLPC   C12 6804   5.590   5.410   6.109  0.8367 -0.6053  0.0347
   76SLPC  H12A 6805   5.598   5.306   6.081  0.1655 -0.0782 -2.3540
   76SLPC  H12B 6806   5.496   5.411   6.163  0.9103 -0.4573  0.1601
   76SLPC   C11 6807   5.701   5.454   6.210 -0.6903 -0.1894  0.3043
   76SLPC  H11A 6808   5.799   5.456   6.157 -1.0639  2.3409 -0.4310
   76SLPC  H11B 6809   5.716   5.374   6.285 -0.0986  0.8729  1.3699
   76SLPC     P 6810   5.591   5.614   6.381  0.2295  0.3487  0.1509
   76SLPC   O13 6811   5.593   5.763   6.400 -0.2168 -0.2671  0.4342
   76SLPC   O14 6812   5.459   5.559   6.346  0.2841 -0.4228  0.1096
   76SLPC   O12 6813   5.687   5.586   6.261 -0.2627 -0.5802 -0.1938
   76SLPC   O11 6814   5.653   5.535   6.502  0.4221  0.3164 -0.2894
   76SLPC    C1 6815   5.606   5.416   6.555  0.1562 -0.1560 -0.3580
   76SLPC    HA 6816   5.559   5.354   6.476 -0.1903  0.3723 -0.5736
   76SLPC    HB 6817   5.697   5.367   6.595  0.0259  2.0072  2.9561
   76SLPC    C2 6818   5.504   5.440   6.665 -0.2128  0.1301  0.4215
   76SLPC    HS 6819   5.438   5.515   6.617  0.3702 -0.7962 -1.9876
   76SLPC   O21 6820   5.576   5.489   6.781 -0.7887  0.3062  0.3412
   76SLPC   C21 6821   5.509   5.568   6.859  0.1297 -0.1125 -0.6138
   76SLPC   O22 6822   5.396   5.604   6.834 -0.7506 -0.2949 -0.1430
   76SLPC   C22 6823   5.586   5.596   6.989 -0.1484  0.1025 -0.4028
   76SLPC   H2R 6824   5.603   5.491   7.021  3.2782 -0.2190 -2.7249
   76SLPC   H2S 6825   5.682   5.650   6.974 -0.0612  0.8896  2.4074
   76SLPC    C3 6826   5.425   5.315   6.704 -0.2926 -0.0242  0.0281
   76SLPC    HX 6827   5.382   5.263   6.615 -0.0657 -1.5282  0.7657
   76SLPC    HY 6828   5.337   5.357   6.758  0.3941 -0.3344  1.4190
   76SLPC   O31 6829   5.505   5.219   6.786 -0.4523 -0.4215 -0.0057
   76SLPC   C31 6830   5.435   5.157   6.876  0.9871 -0.5752 -0.0613
   76SLPC   O32 6831   5.320   5.180   6.903  0.2129 -0.2784 -1.0716
   76SLPC   C32 6832   5.524   5.043   6.930 -0.1379 -0.7364  0.2432
   76SLPC   H2X 6833   5.622   5.093   6.947 -1.1317  1.4403 -0.1890
   76SLPC   H2Y 6834   5.536   4.964   6.852 -1.5720  0.3033 -1.0869
   76SLPC   C23 6835   5.502   5.680   7.095 -0.0202  0.7284 -0.3456
   76SLPC   H3R 6836   5.422   5.616   7.138 -0.6320  2.8800  1.9513
   76SLPC   H3S 6837   5.447   5.761   7.043 -0.6401  1.0412  0.7617
   76SLPC   C24 6838   5.592   5.729   7.210  0.4044  0.0498  0.5825
   76SLPC   H4R 6839   5.641   5.814   7.158 -2.1314  1.4430  0.3076
   76SLPC   H4S 6840   5.671   5.659   7.246  0.8450  0.7784  1.0446
   76SLPC   C25 6841   5.516   5.769   7.339  0.2015 -0.1802 -0.9016
   76SLPC   H5R 6842   5.410   5.762   7.308  0.5479 -1.3909 -1.9276
   76SLPC   H5S 6843   5.551   5.868   7.375  0.0123 -0.4188 -0.0416
   76SLPC   C26 6844   5.529   5.666   7.454 -0.0447 -0.4097 -0.3363
   76SLPC   H6R 6845   5.639   5.672   7.465 -0.2539  2.0199  1.4345
   76SLPC   H6S 6846   5.500   5.568   7.410  0.9955 -0.5893 -0.6267
   76SLPC   C27 6847   5.452   5.707   7.579  0.3958  0.8158  0.1717
   76SLPC   H7R 6848   5.343   5.694   7.562  0.4889 -0.0371  0.1848
   76SLPC   H7S 6849   5.467   5.817   7.579  0.6857  0.7899  1.1540
   76SLPC   C28 6850   5.502   5.644   7.709  0.7541  0.1586  0.2129
   76SLPC   H8R 6851   5.610   5.670   7.716  0.9142  0.1776 -1.7382
   76SLPC   H8S 6852   5.462   5.701   7.795  2.5464 -1.4355  2.2393
   76SLPC   C29 6853   5.476   5.489   7.716  0.3188 -0.2823 -0.2634
   76SLPC   H9R 6854   5.552   5.432   7.662 -1.1878 -2.0235 -0.6428
   76SLPC  C210 6855   5.375   5.424   7.776 -0.9934  1.2895  0.0990
   76SLPC  H10R 6856   5.374   5.314   7.781  1.3885  1.1947 -0.6416
   76SLPC  C211 6857   5.271   5.493   7.858  0.5357  0.2411 -0.0087
   76SLPC  H11R 6858   5.171   5.453   7.833  0.8895 -1.5279  1.1866
   76SLPC  H11S 6859   5.264   5.603   7.845 -3.4658  0.2068  0.5399
   76SLPC  C212 6860   5.298   5.460   8.006  0.0941 -0.1104  0.4266
   76SLPC  H12R 6861   5.366   5.531   8.056  0.1434  0.5730 -0.5810
   76SLPC  C213 6862   5.247   5.360   8.081 -0.2876 -0.3808 -0.1883
   76SLPC  H13R 6863   5.292   5.336   8.178  0.9608 -3.3055 -1.3671
   76SLPC  C214 6864   5.147   5.264   8.020 -0.4714 -0.0184  0.5135
   76SLPC  H14R 6865   5.212   5.174   8.022 -2.3737 -1.4310  0.8911
   76SLPC  H14S 6866   5.128   5.285   7.912  0.5035  2.6587  0.7803
   76SLPC  C215 6867   5.020   5.245   8.092  0.3485  0.4312 -0.3779
   76SLPC  H15R 6868   5.047   5.220   8.197 -0.6389  1.0258  0.0351
   76SLPC  H15S 6869   4.959   5.162   8.051 -1.6762  1.0368  1.2046
   76SLPC  C216 6870   4.911   5.364   8.087 -0.1715 -0.4273  0.4568
   76SLPC  H16R 6871   4.811   5.314   8.079 -1.0456  1.3138  0.1271
   76SLPC  H16S 6872   4.933   5.434   8.004  1.7962 -1.4065  0.0866
   76SLPC  C217 6873   4.899   5.457   8.209  0.2647  0.2151  0.5796
   76SLPC  H17R 6874   4.821   5.534   8.192 -0.5093 -0.7960 -0.6495
   76SLPC  H17S 6875   4.983   5.527   8.226  0.0993  0.7751 -0.8186
   76SLPC  C218 6876   4.873   5.382   8.346 -0.4224  0.1175  1.1198
   76SLPC  H18R 6877   4.797   5.302   8.338  1.3700 -1.5455 -0.2293
   76SLPC  H18S 6878   4.846   5.454   8.427  0.2726 -0.6947  2.0934
   76SLPC  H18T 6879   4.966   5.332   8.379 -0.7062 -2.6532 -1.8450
   76SLPC   C33 6880   5.455   4.976   7.057 -0.1463 -0.1986  0.1763
   76SLPC   H3X 6881   5.366   4.932   7.007 -0.7565  2.5078 -1.3251
   76SLPC   H3Y 6882   5.419   5.059   7.122 -1.8756 -1.4646  0.9313
   76SLPC   C34 6883   5.557   4.878   7.126 -0.0544 -0.0030  0.1297
   76SLPC   H4X 6884   5.642   4.937   7.166 -1.0708  1.1664  0.6229
   76SLPC   H4Y 6885   5.603   4.807   7.054 -1.0615  1.4502 -2.0670
   76SLPC   C35 6886   5.484   4.803   7.241  0.7906  0.3472 -0.8082
   76SLPC   H5X 6887   5.408   4.735   7.196 -0.1734 -0.3216  1.6693
   76SLPC   H5Y 6888   5.440   4.880   7.307  0.5348 -0.0725 -0.4835
   76SLPC   C36 6889   5.579   4.720   7.323  0.0044 -0.1501 -0.5010
   76SLPC   H6X 6890   5.647   4.789   7.378  1.1331 -2.0476  0.5979
   76SLPC   H6Y 6891   5.634   4.648   7.259  1.8800 -0.2319  1.1249
   76SLPC   C37 6892   5.498   4.651   7.436  0.3007 -0.1304  0.2935
   76SLPC   H7X 6893   5.457   4.562   7.383  1.4949 -0.5170 -0.0100
   76SLPC   H7Y 6894   5.420   4.719   7.476  0.1307 -0.6561  0.8818
   76SLPC   C38 6895   5.591   4.609   7.556  0.1379 -0.4937  0.6847
   76SLPC   H8X 6896   5.647   4.700   7.586 -0.2612 -1.0204  3.3226
   76SLPC   H8Y 6897   5.659   4.534   7.511 -1.5198 -0.7901 -1.4980
   76SLPC   C39 6898   5.518   4.554   7.680 -0.6142 -0.6488 -0.6485
   76SLPC   H9X 6899   5.484   4.450   7.664 -1.3125 -0.5386  0.0451
   76SLPC   H9Y 6900   5.425   4.607   7.709 -1.0123 -1.7858  0.1744
   76SLPC  C310 6901   5.606   4.548   7.798 -0.1686 -1.1858 -0.0756
   76SLPC  H10X 6902   5.636   4.654   7.811 -0.3080 -1.0473 -0.8438
   76SLPC  H10Y 6903   5.699   4.493   7.771  0.1974  0.2316 -1.8724
   76SLPC  C311 6904   5.552   4.493   7.931 -0.0453 -0.0810  0.3391
   76SLPC  H11X 6905   5.570   4.384   7.926 -0.8464 -0.1741 -0.8723
   76SLPC  H11Y 6906   5.444   4.519   7.934  0.0074  0.8146 -2.5757
   76SLPC  C312 6907   5.632   4.558   8.051  0.5199 -0.1582  0.4371
   76SLPC  H12X 6908   5.579   4.655   8.058  0.9744  0.0111  1.9532
   76SLPC  H12Y 6909   5.739   4.581   8.029  1.7641 -4.8679  0.3184
   76SLPC  C313 6910   5.596   4.486   8.182 -0.3526  0.2267  0.6729
   76SLPC  H13X 6911   5.489   4.456   8.176 -0.0199 -1.1251  1.1291
   76SLPC  H13Y 6912   5.632   4.550   8.265  3.0328 -0.5181 -0.0679
   76SLPC  C314 6913   5.661   4.348   8.190 -0.0223 -0.6645 -0.0477
   76SLPC  H14X 6914   5.769   4.352   8.215 -0.1468  1.4420  0.2936
   76SLPC  H14Y 6915   5.661   4.288   8.097  3.7838 -0.7979 -0.1254
   76SLPC  C315 6916   5.577   4.266   8.292 -0.0171  0.4723 -0.7516
   76SLPC  H15X 6917   5.605   4.159   8.278  1.3772  0.8467 -0.9643
   76SLPC  H15Y 6918   5.469   4.276   8.271 -0.4794  2.1678  1.9152
   76SLPC  C316 6919   5.596   4.318   8.434  0.0590 -0.5215 -0.0682
   76SLPC  H16X 6920   5.583   4.428   8.440  0.5645 -0.4594 -0.0151
   76SLPC  H16Y 6921   5.703   4.300   8.458  0.3911  2.5829  1.1959
   76SLPC  C317 6922   5.511   4.248   8.538 -0.0501  0.0664 -0.1700
   76SLPC  H17X 6923   5.566   4.243   8.634 -1.0383  0.0335  0.4020
   76SLPC  H17Y 6924   5.503   4.141   8.510  0.7208 -0.0752  0.1336
   76SLPC  C318 6925   5.375   4.315   8.571  0.4024 -1.0841  0.1971
   76SLPC  H18X 6926   5.311   4.304   8.481  0.5249 -0.9386  0.0915
   76SLPC  H18Y 6927   5.391   4.425   8.579 -1.9599 -0.5409 -1.5417
   76SLPC  H18Z 6928   5.332   4.278   8.667 -1.6533  0.7534  0.0676
   77SLPC     N 6929   1.556   5.554   5.966  0.0609 -0.3015  0.5965
   77SLPC   C13 6930   1.603   5.501   5.833 -0.1904  0.3118  0.1712
   77SLPC  H13A 6931   1.608   5.581   5.760  0.1364  0.3902  0.2781
   77SLPC  H13B 6932   1.699   5.453   5.839  0.0596  0.4267 -2.2267
   77SLPC  H13C 6933   1.540   5.417   5.808  3.1589 -1.6168 -2.6186
   77SLPC   C14 6934   1.429   5.632   5.948 -0.7279 -0.2803  0.3995
   77SLPC  H14A 6935   1.417   5.700   6.031  3.0827  0.1439  0.7994
   77SLPC  H14B 6936   1.435   5.693   5.860 -0.1751  1.7827  1.7892
   77SLPC  H14C 6937   1.352   5.557   5.938  1.0556 -2.1682  0.2182
   77SLPC   C15 6938   1.666   5.645   6.015 -0.0344  0.3298 -0.2187
   77SLPC  H15A 6939   1.681   5.715   5.934 -1.0062 -0.3975 -1.0612
   77SLPC  H15B 6940   1.631   5.691   6.107  0.1399  0.8933 -0.4315
   77SLPC  H15C 6941   1.761   5.595   6.025  1.2300  2.0758 -2.6127
   77SLPC   C12 6942   1.536   5.439   6.059 -0.1219 -0.3316 -0.2610
   77SLPC  H12A 6943   1.627   5.388   6.087 -0.8356 -0.4568  1.9866
   77SLPC  H12B 6944   1.469   5.368   6.013 -1.3036  0.0973  0.7571
   77SLPC   C11 6945   1.473   5.478   6.197  0.8927  0.4269 -0.6449
   77SLPC  H11A 6946   1.411   5.396   6.240  2.6743 -0.1111  1.0399
   77SLPC  H11B 6947   1.402   5.563   6.182 -0.9674 -0.7211  1.1682
   77SLPC     P 6948   1.665   5.415   6.359  0.0364  0.0405 -0.2120
   77SLPC   O13 6949   1.733   5.330   6.257  0.6161  0.5228  0.2395
   77SLPC   O14 6950   1.751   5.497   6.448  0.4021  0.2587 -0.9454
   77SLPC   O12 6951   1.564   5.521   6.289 -0.2892 -0.2717 -0.6688
   77SLPC   O11 6952   1.578   5.331   6.464 -0.1407 -0.2671 -0.1683
   77SLPC    C1 6953   1.472   5.393   6.530  0.2431  0.6554  0.6314
   77SLPC    HA 6954   1.443   5.489   6.483 -0.5522 -0.7521 -2.0010
   77SLPC    HB 6955   1.387   5.322   6.520  0.2890  0.6345  0.3630
   77SLPC    C2 6956   1.501   5.422   6.680  0.0708 -0.4996 -0.2841
   77SLPC    HS 6957   1.405   5.446   6.731 -1.5960 -1.5893 -2.6655
   77SLPC   O21 6958   1.605   5.532   6.697  0.1408 -0.3471  0.1472
   77SLPC   C21 6959   1.543   5.649   6.660 -0.6114  0.8045 -0.2172
   77SLPC   O22 6960   1.422   5.665   6.635 -0.0805  0.2807  0.2967
   77SLPC   C22 6961   1.646   5.759   6.645 -0.3979  0.5627  0.2587
   77SLPC   H2R 6962   1.749   5.720   6.636 -1.1995 -1.6559  0.2479
   77SLPC   H2S 6963   1.613   5.812   6.553 -2.5188  0.6571  1.0059
   77SLPC    C3 6964   1.566   5.296   6.747 -0.3735  0.6867  0.1696
   77SLPC    HX 6965   1.664   5.270   6.701  0.1240  3.0210 -0.2288
   77SLPC    HY 6966   1.512   5.203   6.721 -1.9859  1.3010  1.1985
   77SLPC   O31 6967   1.550   5.315   6.890 -0.5066 -0.3326 -0.4061
   77SLPC   C31 6968   1.654   5.368   6.954 -0.3991  0.2443 -0.4977
   77SLPC   O32 6969   1.763   5.395   6.909 -0.3378  1.5826  0.2341
   77SLPC   C32 6970   1.617   5.392   7.098  0.2050 -0.5324 -0.1902
   77SLPC   H2X 6971   1.519   5.341   7.113  0.4890 -0.8171  0.7748
   77SLPC   H2Y 6972   1.610   5.501   7.118 -0.3970 -0.5854 -0.0976
   77SLPC   C23 6973   1.630   5.856   6.764  0.6622  0.1242 -0.7019
   77SLPC   H3R 6974   1.523   5.882   6.779  0.6824 -0.0165 -0.2976
   77SLPC   H3S 6975   1.672   5.957   6.744  0.0748  0.6591  0.6608
   77SLPC   C24 6976   1.674   5.801   6.907 -0.0315 -0.4332 -0.0526
   77SLPC   H4R 6977   1.782   5.781   6.897 -0.3402 -1.5568 -1.4283
   77SLPC   H4S 6978   1.624   5.703   6.921 -0.4220 -0.2898 -0.4067
   77SLPC   C25 6979   1.644   5.903   7.023  0.2583 -0.2817  0.2824
   77SLPC   H5R 6980   1.535   5.921   7.038  0.1197 -0.6146 -0.2874
   77SLPC   H5S 6981   1.691   6.003   7.010 -0.5095 -0.2120 -2.9502
   77SLPC   C26 6982   1.691   5.844   7.152 -0.1719 -0.4966 -0.2278
   77SLPC   H6R 6983   1.801   5.861   7.160 -0.1863  0.3589 -1.5760
   77SLPC   H6S 6984   1.670   5.735   7.148  0.3175 -0.6031 -0.0352
   77SLPC   C27 6985   1.610   5.884   7.272  0.2624  0.5053 -0.5370
   77SLPC   H7R 6986   1.515   5.830   7.254  1.0695 -0.5947 -1.6233
   77SLPC   H7S 6987   1.589   5.993   7.272  2.0735  0.8886 -1.5595
   77SLPC   C28 6988   1.674   5.844   7.408 -0.0148 -0.0666 -1.0511
   77SLPC   H8R 6989   1.772   5.896   7.408  0.5926 -1.1246  0.3120
   77SLPC   H8S 6990   1.687   5.734   7.403  0.6434 -0.1482  1.2626
   77SLPC   C29 6991   1.594   5.877   7.537 -0.4646  0.8787  0.4144
   77SLPC   H9R 6992   1.596   5.983   7.566  0.3622  0.5080  1.8189
   77SLPC  C210 6993   1.522   5.793   7.616 -0.0140  0.3505 -0.5398
   77SLPC  H10R 6994   1.471   5.828   7.707  0.3908 -1.2135  0.3264
   77SLPC  C211 6995   1.511   5.641   7.599  0.0338  0.2667  0.8901
   77SLPC  H11R 6996   1.575   5.590   7.674  2.3479  0.3049 -0.9388
   77SLPC  H11S 6997   1.549   5.613   7.498  0.9002  1.9744  0.7072
   77SLPC  C212 6998   1.373   5.586   7.609 -0.1034 -0.2884  0.4633
   77SLPC  H12R 6999   1.330   5.568   7.509 -0.3298 -0.5643  0.6061
   77SLPC  C213 7000   1.303   5.540   7.711  0.3699  0.1242 -0.2506
   77SLPC  H13R 7001   1.207   5.494   7.684  1.2043 -0.5526 -2.2501
   77SLPC  C214 7002   1.345   5.549   7.857 -0.7455 -1.1272 -0.4604
   77SLPC  H14R 7003   1.441   5.605   7.866 -1.9101  1.6626 -3.2555
   77SLPC  H14S 7004   1.369   5.446   7.891  1.3699 -1.1673 -1.8772
   77SLPC  C215 7005   1.263   5.644   7.944 -0.1449 -0.1471  0.2349
   77SLPC  H15R 7006   1.281   5.610   8.049 -0.3429  2.0256  1.0169
   77SLPC  H15S 7007   1.156   5.619   7.928 -0.2433 -0.1998  0.9471
   77SLPC  C216 7008   1.292   5.795   7.928 -0.1269  0.1983  0.3863
   77SLPC  H16R 7009   1.212   5.850   7.982  0.1874 -0.2517  1.3396
   77SLPC  H16S 7010   1.278   5.809   7.819 -3.1947 -1.9670  0.3630
   77SLPC  C217 7011   1.429   5.829   7.983  0.4447  0.1404 -0.0080
   77SLPC  H17R 7012   1.444   5.939   7.977 -1.4301  0.4321 -0.0589
   77SLPC  H17S 7013   1.508   5.778   7.924  0.6294 -0.5773  0.8477
   77SLPC  C218 7014   1.447   5.797   8.131  0.0130 -0.2130 -0.8903
   77SLPC  H18R 7015   1.378   5.852   8.198  1.1778 -0.3014  0.4399
   77SLPC  H18S 7016   1.552   5.821   8.158  0.5768 -1.7823 -1.5458
   77SLPC  H18T 7017   1.440   5.687   8.145 -2.6695 -0.2313 -1.9061
   77SLPC   C33 7018   1.718   5.325   7.194  0.0568 -0.1368  0.5961
   77SLPC   H3X 7019   1.814   5.376   7.171 -0.6444  1.1954  0.5251
   77SLPC   H3Y 7020   1.721   5.214   7.183  2.0814 -0.1560  1.0302
   77SLPC   C34 7021   1.691   5.347   7.341  0.6249  0.0963 -0.4678
   77SLPC   H4X 7022   1.607   5.292   7.390 -0.4501  2.6622  0.7886
   77SLPC   H4Y 7023   1.679   5.457   7.354  0.8029  0.1797 -1.0241
   77SLPC   C35 7024   1.816   5.316   7.418 -0.6434 -0.2594  0.9056
   77SLPC   H5X 7025   1.901   5.374   7.376 -1.4055 -0.6262 -1.3138
   77SLPC   H5Y 7026   1.830   5.209   7.394 -0.4037 -0.3184  1.3116
   77SLPC   C36 7027   1.811   5.349   7.563  0.0406  0.4924 -0.4618
   77SLPC   H6X 7028   1.795   5.459   7.570 -0.6794  0.5146 -1.9870
   77SLPC   H6Y 7029   1.909   5.318   7.605  1.4940  1.6006 -2.7787
   77SLPC   C37 7030   1.700   5.288   7.654 -0.2305 -0.9397  0.2462
   77SLPC   H7X 7031   1.698   5.184   7.616 -2.1215 -0.2010 -1.8664
   77SLPC   H7Y 7032   1.603   5.329   7.620  1.1809  1.5804 -1.0806
   77SLPC   C38 7033   1.728   5.294   7.805 -0.5007 -0.1030  0.3652
   77SLPC   H8X 7034   1.710   5.395   7.846 -4.7584 -1.4165  2.2479
   77SLPC   H8Y 7035   1.832   5.258   7.821  0.4354  2.2521 -0.0946
   77SLPC   C39 7036   1.622   5.220   7.882  0.1618 -0.6722  0.0068
   77SLPC   H9X 7037   1.615   5.110   7.865 -4.0064 -0.6401  0.6203
   77SLPC   H9Y 7038   1.528   5.268   7.847 -1.9571 -1.7093  3.7903
   77SLPC  C310 7039   1.638   5.236   8.029  0.1128 -0.1501  0.1413
   77SLPC  H10X 7040   1.620   5.342   8.059 -1.4301 -0.5804  0.8228
   77SLPC  H10Y 7041   1.740   5.207   8.060  0.8349  1.8981 -0.1724
   77SLPC  C311 7042   1.521   5.156   8.097 -0.0399 -0.1686 -0.1361
   77SLPC  H11X 7043   1.552   5.050   8.084 -1.6816 -0.4494 -2.3421
   77SLPC  H11Y 7044   1.436   5.165   8.025  1.5281  0.6904 -1.9669
   77SLPC  C312 7045   1.490   5.199   8.246  0.6842 -0.0798 -0.1665
   77SLPC  H12X 7046   1.466   5.307   8.235 -1.2319 -0.7505 -4.1007
   77SLPC  H12Y 7047   1.588   5.192   8.298  0.9480  1.8318 -0.3259
   77SLPC  C313 7048   1.387   5.110   8.320 -0.1283  0.0202 -0.3425
   77SLPC  H13X 7049   1.438   5.014   8.343  2.0405  1.8467  3.4055
   77SLPC  H13Y 7050   1.304   5.099   8.247  0.1495 -1.1851 -0.4969
   77SLPC  C314 7051   1.331   5.169   8.448 -0.2635  0.4396 -0.5058
   77SLPC  H14X 7052   1.242   5.232   8.428 -0.9441 -0.2290  0.3042
   77SLPC  H14Y 7053   1.406   5.222   8.510  0.1701 -0.3917 -0.2978
   77SLPC  C315 7054   1.288   5.053   8.534 -0.3854  0.7555  0.2940
   77SLPC  H15X 7055   1.376   4.986   8.546 -1.1637 -0.0787  1.4685
   77SLPC  H15Y 7056   1.206   4.994   8.489  1.0100 -0.3868 -0.8830
   77SLPC  C316 7057   1.249   5.092   8.676 -1.0407  0.5291  0.0516
   77SLPC  H16X 7058   1.166   5.166   8.681 -2.3833 -0.9336  0.1693
   77SLPC  H16Y 7059   1.335   5.155   8.707 -1.5796  1.1873  0.2127
   77SLPC  C317 7060   1.226   4.973   8.773  0.4837  0.2430  0.3114
   77SLPC  H17X 7061   1.142   4.925   8.719 -0.9008  1.4032  1.3416
   77SLPC  H17Y 7062   1.172   5.004   8.865  0.6263  0.6524  0.2597
   77SLPC  C318 7063   1.346   4.885   8.801  0.1004  0.3693 -0.6569
   77SLPC  H18X 7064   1.384   4.836   8.709  1.9185  2.4630 -1.0859
   77SLPC  H18Y 7065   1.318   4.804   8.872 -1.7418  2.2502  0.9032
   77SLPC  H18Z 7066   1.426   4.939   8.857 -0.9337 -0.7152  2.0734
   78SLPC     N 7067   3.739   1.882   6.107 -0.2120 -0.2183  0.6778
   78SLPC   C13 7068   3.613   1.832   6.047 -0.0382 -0.5401 -0.4508
   78SLPC  H13A 7069   3.537   1.844   6.123  0.9049  3.5790  0.0869
   78SLPC  H13B 7070   3.568   1.894   5.972  1.5294 -0.8312 -1.6866
   78SLPC  H13C 7071   3.630   1.732   6.009  1.3293 -0.2173 -0.7257
   78SLPC   C14 7072   3.841   1.896   5.993  0.6124  0.0172  0.0349
   78SLPC  H14A 7073   3.809   1.980   5.935  1.6262 -0.6039 -1.4824
   78SLPC  H14B 7074   3.938   1.925   6.030  0.5181 -1.1187  1.2900
   78SLPC  H14C 7075   3.860   1.807   5.935  3.8174  1.3369 -1.2066
   78SLPC   C15 7076   3.789   1.791   6.218  0.1002  0.5662 -1.2480
   78SLPC  H15A 7077   3.872   1.836   6.270 -0.4810  1.6928 -1.2557
   78SLPC  H15B 7078   3.719   1.791   6.300  1.0095 -0.9032 -0.4287
   78SLPC  H15C 7079   3.803   1.689   6.187 -1.7236 -0.6678  1.6817
   78SLPC   C12 7080   3.712   2.019   6.162  0.1179  0.0934 -0.5304
   78SLPC  H12A 7081   3.641   2.011   6.243  1.1342 -0.4296  0.3354
   78SLPC  H12B 7082   3.648   2.067   6.089 -1.2244  1.4354  1.4320
   78SLPC   C11 7083   3.825   2.112   6.219  0.2269 -0.5999 -0.2729
   78SLPC  H11A 7084   3.784   2.215   6.226 -0.5486 -1.0131  2.0361
   78SLPC  H11B 7085   3.902   2.120   6.139  0.0625  1.8669 -0.2772
   78SLPC     P 7086   4.022   1.991   6.360 -0.3138 -0.2634  0.0573
   78SLPC   O13 7087   3.996   1.850   6.409  0.3922 -0.1014  0.0312
   78SLPC   O14 7088   4.096   2.008   6.231  0.1652  0.6389 -1.2717
   78SLPC   O12 7089   3.880   2.080   6.346 -0.1877 -0.1843  0.3722
   78SLPC   O11 7090   4.100   2.067   6.471  0.4074 -0.2310 -0.0787
   78SLPC    C1 7091   4.052   2.182   6.549  0.0939 -0.4029  0.0686
   78SLPC    HA 7092   4.100   2.272   6.505  0.5649  0.7105  2.6459
   78SLPC    HB 7093   3.943   2.195   6.536  0.0252 -2.6178 -2.3156
   78SLPC    C2 7094   4.082   2.176   6.701  0.4020  0.3751 -0.3828
   78SLPC    HS 7095   4.025   2.252   6.757 -0.1975 -1.0927  1.0542
   78SLPC   O21 7096   4.221   2.196   6.721 -0.1600 -0.2102  0.1075
   78SLPC   C21 7097   4.269   2.316   6.744 -0.4980 -0.4308  0.0409
   78SLPC   O22 7098   4.212   2.423   6.731  0.8835 -0.0526 -0.2544
   78SLPC   C22 7099   4.423   2.309   6.759 -0.0537  0.0154 -0.2098
   78SLPC   H2R 7100   4.463   2.213   6.801  0.0284  0.1554  0.0385
   78SLPC   H2S 7101   4.459   2.326   6.656 -1.8228  2.5874 -0.4920
   78SLPC    C3 7102   4.047   2.025   6.754  0.2653  0.6260  0.5740
   78SLPC    HX 7103   4.132   1.957   6.732 -1.2555 -1.0762 -0.3261
   78SLPC    HY 7104   3.964   1.984   6.692 -0.7491  0.6422  1.8609
   78SLPC   O31 7105   4.045   2.010   6.898  0.1357 -0.0503 -0.4858
   78SLPC   C31 7106   3.939   2.051   6.968  0.3799  0.3828  0.4347
   78SLPC   O32 7107   3.842   2.108   6.928 -0.2049  0.0037  0.1384
   78SLPC   C32 7108   3.973   2.025   7.114 -0.3667  0.3102 -0.1195
   78SLPC   H2X 7109   4.039   2.107   7.152 -0.4268 -0.2664  1.2859
   78SLPC   H2Y 7110   4.035   1.933   7.119 -0.3980  0.3219  0.6241
   78SLPC   C23 7111   4.487   2.421   6.846 -0.5229 -0.1857  0.4129
   78SLPC   H3R 7112   4.430   2.514   6.829  0.1161  0.2355  0.5562
   78SLPC   H3S 7113   4.590   2.451   6.819 -1.0897  0.6974 -0.8518
   78SLPC   C24 7114   4.474   2.398   6.992 -0.1932  0.3234 -1.2352
   78SLPC   H4R 7115   4.536   2.474   7.046  0.6655 -0.9768 -0.3379
   78SLPC   H4S 7116   4.523   2.301   7.016 -2.4240 -0.5820 -0.0352
   78SLPC   C25 7117   4.332   2.401   7.045  0.2973 -1.0522  0.1215
   78SLPC   H5R 7118   4.272   2.316   7.005  2.8655 -3.7043  1.6075
   78SLPC   H5S 7119   4.280   2.495   7.017 -0.7267 -1.8067 -0.5895
   78SLPC   C26 7120   4.338   2.398   7.202 -0.5375  0.0524  0.0503
   78SLPC   H6R 7121   4.408   2.480   7.226  0.3103  0.1144 -2.3976
   78SLPC   H6S 7122   4.383   2.302   7.235 -1.5851 -0.4879 -0.0219
   78SLPC   C27 7123   4.194   2.415   7.263  0.2026  0.0511  0.3020
   78SLPC   H7R 7124   4.132   2.326   7.237 -0.7329  0.2046  1.8757
   78SLPC   H7S 7125   4.158   2.506   7.210 -0.0683  0.1499  0.6586
   78SLPC   C28 7126   4.193   2.430   7.415  0.4077  0.0312  0.2756
   78SLPC   H8R 7127   4.098   2.486   7.431 -0.1530  0.2987 -3.2896
   78SLPC   H8S 7128   4.281   2.494   7.436  1.1289 -0.9843  0.4328
   78SLPC   C29 7129   4.202   2.293   7.484 -0.0184  0.4109 -0.1123
   78SLPC   H9R 7130   4.266   2.232   7.419 -1.3831  0.7851 -1.8649
   78SLPC  C210 7131   4.152   2.257   7.605  0.1037  0.2393 -0.2025
   78SLPC  H10R 7132   4.162   2.154   7.641 -1.3422 -0.5152 -1.8266
   78SLPC  C211 7133   4.078   2.347   7.705 -0.1720 -0.5616  0.4317
   78SLPC  H11R 7134   3.982   2.291   7.711  0.3169 -1.2987  1.7053
   78SLPC  H11S 7135   4.054   2.446   7.661  0.7439 -0.2600  0.5813
   78SLPC  C212 7136   4.153   2.375   7.832  0.0217 -0.1183 -0.1276
   78SLPC  H12R 7137   4.247   2.429   7.813  0.8110 -1.4598 -0.1119
   78SLPC  C213 7138   4.122   2.345   7.963  0.0854 -0.0895 -0.5967
   78SLPC  H13R 7139   4.181   2.385   8.047  0.2547  2.2693 -1.7434
   78SLPC  C214 7140   3.996   2.272   8.014  0.3670  0.5176 -0.0824
   78SLPC  H14R 7141   3.937   2.226   7.931  0.3866 -3.2343  1.7399
   78SLPC  H14S 7142   3.936   2.352   8.061 -1.5504 -1.3074  0.7640
   78SLPC  C215 7143   4.015   2.151   8.107  0.2190  0.2728  0.0318
   78SLPC  H15R 7144   4.069   2.074   8.047  0.1612  1.8103 -2.1329
   78SLPC  H15S 7145   3.906   2.136   8.121  0.4790 -1.8703  0.0644
   78SLPC  C216 7146   4.084   2.185   8.237  0.3541 -0.8588  0.1313
   78SLPC  H16R 7147   4.034   2.278   8.273 -0.8002 -1.2180 -0.4760
   78SLPC  H16S 7148   4.188   2.206   8.206 -0.5879 -0.3789 -3.1385
   78SLPC  C217 7149   4.072   2.073   8.346  0.4794 -0.7766 -0.1870
   78SLPC  H17R 7150   4.127   1.982   8.314 -0.2688 -0.2439 -3.3399
   78SLPC  H17S 7151   3.965   2.044   8.350 -0.7809  3.2812  0.2533
   78SLPC  C218 7152   4.111   2.113   8.492 -0.4013  0.0469  0.5657
   78SLPC  H18R 7153   4.197   2.184   8.502  0.6210 -1.0897  0.0903
   78SLPC  H18S 7154   4.147   2.021   8.543  0.3934 -0.2012 -0.4066
   78SLPC  H18T 7155   4.029   2.154   8.555 -1.2528 -1.6606  0.6055
   78SLPC   C33 7156   3.844   2.016   7.194  0.0409  0.4460 -0.8459
   78SLPC   H3X 7157   3.777   1.941   7.145  2.3267 -1.3895 -1.3499
   78SLPC   H3Y 7158   3.801   2.116   7.176 -0.8901 -0.2849 -3.1183
   78SLPC   C34 7159   3.857   1.985   7.344 -0.5003 -0.0598 -0.1171
   78SLPC   H4X 7160   3.765   2.030   7.387 -0.2003 -1.2155  1.8614
   78SLPC   H4Y 7161   3.947   2.038   7.382 -1.7724  1.2697  1.1752
   78SLPC   C35 7162   3.875   1.841   7.389 -0.0819  0.0894  0.1322
   78SLPC   H5X 7163   3.979   1.802   7.378  0.3020  0.1062  2.8751
   78SLPC   H5Y 7164   3.806   1.773   7.334  0.2043  0.1036 -0.2489
   78SLPC   C36 7165   3.863   1.827   7.545 -0.1821  0.1795  0.0144
   78SLPC   H6X 7166   3.889   1.720   7.559  3.0048  0.8512 -0.0283
   78SLPC   H6Y 7167   3.760   1.862   7.568  0.4479  3.1497 -1.2580
   78SLPC   C37 7168   3.967   1.904   7.621  0.5677 -0.3591  0.5692
   78SLPC   H7X 7169   3.952   2.013   7.605  1.1702 -0.3051  0.3672
   78SLPC   H7Y 7170   4.065   1.872   7.579 -1.4202 -2.1851 -3.2862
   78SLPC   C38 7171   3.962   1.874   7.771  0.7894 -0.1125 -1.0575
   78SLPC   H8X 7172   3.854   1.879   7.794  0.5284 -0.4218 -2.1271
   78SLPC   H8Y 7173   4.020   1.945   7.834  2.2640 -2.6285  0.6009
   78SLPC   C39 7174   4.000   1.729   7.807 -0.3322  0.3540 -0.3240
   78SLPC   H9X 7175   4.104   1.720   7.770 -0.2770  1.5091 -0.4816
   78SLPC   H9Y 7176   3.933   1.654   7.760 -0.8210  1.5423 -1.6195
   78SLPC  C310 7177   4.011   1.719   7.955 -0.4084 -0.0482 -0.7394
   78SLPC  H10X 7178   3.980   1.617   7.987  1.1631 -0.1507  0.5727
   78SLPC  H10Y 7179   3.935   1.781   8.008  0.0850  0.0107 -0.0875
   78SLPC  C311 7180   4.152   1.745   8.009  0.1863  0.3241 -0.2698
   78SLPC  H11X 7181   4.183   1.851   8.002 -0.3676  0.5404  0.4605
   78SLPC  H11Y 7182   4.225   1.687   7.948  0.1047  0.0235 -0.0835
   78SLPC  C312 7183   4.162   1.707   8.159  0.0486  0.3426  0.8919
   78SLPC  H12X 7184   4.139   1.599   8.171  3.2657 -0.5461  0.0594
   78SLPC  H12Y 7185   4.090   1.764   8.221 -2.2771 -1.6087  0.1271
   78SLPC  C313 7186   4.300   1.721   8.217 -0.2222 -0.6301  0.3460
   78SLPC  H13X 7187   4.333   1.826   8.207  1.3624 -0.8111  2.9592
   78SLPC  H13Y 7188   4.377   1.668   8.156 -0.1818 -2.1723  1.6595
   78SLPC  C314 7189   4.320   1.664   8.356 -0.3835 -0.3243 -0.2514
   78SLPC  H14X 7190   4.429   1.660   8.377 -0.4305  1.0844  0.3675
   78SLPC  H14Y 7191   4.279   1.563   8.337 -0.4004 -0.4718  0.5636
   78SLPC  C315 7192   4.238   1.718   8.468  0.4528 -0.0749 -0.4795
   78SLPC  H15X 7193   4.132   1.697   8.442 -0.2596 -2.1457  3.2331
   78SLPC  H15Y 7194   4.264   1.824   8.485  1.9123 -0.6553  1.2358
   78SLPC  C316 7195   4.260   1.648   8.606 -0.3088  0.0792  0.4972
   78SLPC  H16X 7196   4.363   1.663   8.643 -0.3822 -1.0266  1.2156
   78SLPC  H16Y 7197   4.258   1.538   8.591 -0.0699  0.3897 -2.5582
   78SLPC  C317 7198   4.168   1.697   8.718  0.5543  0.0373 -0.2997
   78SLPC  H17X 7199   4.171   1.807   8.727 -1.9284  0.0466  1.3422
   78SLPC  H17Y 7200   4.220   1.653   8.806  3.3686  1.3998 -1.1498
   78SLPC  C318 7201   4.027   1.643   8.710  0.6785  0.5501 -0.9059
   78SLPC  H18X 7202   3.959   1.672   8.793  0.0900  2.4106 -1.9877
   78SLPC  H18Y 7203   4.039   1.533   8.697  1.3998  0.7807 -2.3439
   78SLPC  H18Z 7204   3.986   1.679   8.613 -0.5338  2.1941  0.1686
   79SLPC     N 7205   5.593   2.457   6.133 -0.3582 -0.7526 -0.3826
   79SLPC   C13 7206   5.662   2.327   6.119  0.1993 -0.6571  0.1720
   79SLPC  H13A 7207   5.714   2.340   6.025 -1.7395  2.1437 -0.6345
   79SLPC  H13B 7208   5.735   2.324   6.199 -0.5391  0.0726  0.8836
   79SLPC  H13C 7209   5.606   2.235   6.115 -1.3812  0.2835  0.1633
   79SLPC   C14 7210   5.534   2.464   6.277 -0.7729  0.7001 -0.2216
   79SLPC  H14A 7211   5.471   2.550   6.297  1.8355  2.4763  0.8607
   79SLPC  H14B 7212   5.476   2.374   6.291  0.4952 -0.1108 -0.0181
   79SLPC  H14C 7213   5.616   2.472   6.347  0.0729 -0.9154 -0.9994
   79SLPC   C15 7214   5.482   2.456   6.030 -0.4341 -0.1569  0.1997
   79SLPC  H15A 7215   5.414   2.539   6.025  0.3412  0.5987  1.5166
   79SLPC  H15B 7216   5.532   2.447   5.935 -0.0445 -0.1900  0.4029
   79SLPC  H15C 7217   5.423   2.369   6.054 -0.2235  0.0605  1.6189
   79SLPC   C12 7218   5.688   2.573   6.099  0.2325 -0.5060  0.6036
   79SLPC  H12A 7219   5.622   2.656   6.078 -0.5628 -1.5366 -1.2228
   79SLPC  H12B 7220   5.742   2.556   6.007  0.6227  1.1052  0.4984
   79SLPC   C11 7221   5.795   2.610   6.199 -0.4401 -0.4723 -0.6195
   79SLPC  H11A 7222   5.877   2.665   6.149 -0.1566 -1.3419 -1.1330
   79SLPC  H11B 7223   5.853   2.520   6.227  0.6254  0.6078  0.7597
   79SLPC     P 7224   5.696   2.833   6.298 -0.0571 -0.0290  0.3728
   79SLPC   O13 7225   5.631   2.858   6.167 -0.2028  0.5761  0.0186
   79SLPC   O14 7226   5.611   2.864   6.414 -0.4392 -0.1985 -0.4186
   79SLPC   O12 7227   5.740   2.681   6.308  0.1680  0.6411 -0.7330
   79SLPC   O11 7228   5.827   2.928   6.315 -0.1709  0.1714 -0.1869
   79SLPC    C1 7229   5.947   2.887   6.383 -0.2110  0.0475  0.5897
   79SLPC    HA 7230   5.982   2.789   6.343  0.4496  1.1336 -1.6068
   79SLPC    HB 7231   6.028   2.959   6.356 -0.7117 -0.2645 -1.9745
   79SLPC    C2 7232   5.918   2.879   6.537  0.2715  0.2046  0.8207
   79SLPC    HS 7233   5.830   2.812   6.550 -1.5192  2.3461  0.3892
   79SLPC   O21 7234   5.893   3.015   6.577  0.6438 -0.0556 -0.0873
   79SLPC   C21 7235   5.823   3.032   6.692 -0.0957  0.9047 -0.2134
   79SLPC   O22 7236   5.787   2.942   6.768  0.1681  0.3383 -0.6365
   79SLPC   C22 7237   5.814   3.184   6.714  0.0059  0.6282 -0.5134
   79SLPC   H2R 7238   5.914   3.231   6.721 -0.5061  1.6706  0.3010
   79SLPC   H2S 7239   5.778   3.224   6.617  2.7264  4.0229 -0.3318
   79SLPC    C3 7240   6.040   2.811   6.613 -0.4928  0.0906  0.0499
   79SLPC    HX 7241   6.127   2.879   6.610 -1.7704  1.7432 -0.9008
   79SLPC    HY 7242   6.066   2.719   6.557  0.0610  0.7889 -0.8593
   79SLPC   O31 7243   6.014   2.788   6.753 -0.0035 -0.5087 -0.5301
   79SLPC   C31 7244   6.108   2.713   6.818  1.0554 -0.0862 -0.0958
   79SLPC   O32 7245   6.206   2.656   6.775  0.3459 -0.1333  0.4696
   79SLPC   C32 7246   6.064   2.717   6.965  0.2300  0.1582  0.1576
   79SLPC   H2X 7247   6.050   2.613   7.000  0.1397 -0.7820 -2.4526
   79SLPC   H2Y 7248   5.980   2.788   6.976  0.4831  0.4863 -0.0003
   79SLPC   C23 7249   5.716   3.222   6.825 -0.3865 -0.0166  0.3995
   79SLPC   H3R 7250   5.616   3.179   6.805 -0.9410  2.0575 -1.7262
   79SLPC   H3S 7251   5.696   3.331   6.811 -0.2205 -0.3473 -3.2295
   79SLPC   C24 7252   5.769   3.190   6.961  0.1316 -0.6866 -0.6018
   79SLPC   H4R 7253   5.873   3.225   6.981 -0.7401  0.8918  1.5388
   79SLPC   H4S 7254   5.779   3.080   6.975 -2.5998 -0.9137  0.1478
   79SLPC   C25 7255   5.671   3.240   7.067 -0.7181  0.0783 -0.0308
   79SLPC   H5R 7256   5.569   3.232   7.023 -0.9124 -0.4816  0.4906
   79SLPC   H5S 7257   5.685   3.348   7.089  0.1110  0.0509 -0.3903
   79SLPC   C26 7258   5.681   3.150   7.199 -0.2919  0.6617  0.2122
   79SLPC   H6R 7259   5.646   3.050   7.163 -1.2607  0.5365  1.4244
   79SLPC   H6S 7260   5.608   3.192   7.271  0.3056  1.0960  0.5749
   79SLPC   C27 7261   5.819   3.135   7.260  0.0748  0.5026 -0.9431
   79SLPC   H7R 7262   5.892   3.102   7.183 -0.7522 -1.2449 -1.0431
   79SLPC   H7S 7263   5.826   3.060   7.342 -0.4776  0.7669 -0.6486
   79SLPC   C28 7264   5.871   3.271   7.318  0.2164 -0.8015  0.4207
   79SLPC   H8R 7265   5.896   3.342   7.236 -0.7713 -0.2421  0.5872
   79SLPC   H8S 7266   5.958   3.246   7.383  0.3153 -1.7162 -0.0537
   79SLPC   C29 7267   5.774   3.342   7.404 -0.8164 -0.1149  0.1245
   79SLPC   H9R 7268   5.689   3.370   7.342 -2.5866  0.0847  2.4971
   79SLPC  C210 7269   5.764   3.381   7.528  0.1227 -0.5380  0.3865
   79SLPC  H10R 7270   5.685   3.450   7.561  2.6994  0.8308  4.5517
   79SLPC  C211 7271   5.868   3.365   7.634  0.1379  0.6713  0.2478
   79SLPC  H11R 7272   5.890   3.462   7.684  1.2009  1.4854 -1.6887
   79SLPC  H11S 7273   5.963   3.336   7.585 -0.6566  1.9220 -2.1672
   79SLPC  C212 7274   5.844   3.241   7.725 -0.2722 -0.8895 -0.2156
   79SLPC  H12R 7275   5.866   3.145   7.676  0.6048 -0.1114 -1.3758
   79SLPC  C213 7276   5.783   3.253   7.843  0.0303 -0.0967 -0.3880
   79SLPC  H13R 7277   5.754   3.165   7.903  2.3129  1.0111  2.6067
   79SLPC  C214 7278   5.740   3.385   7.906 -0.9078  0.4949  0.0331
   79SLPC  H14R 7279   5.641   3.368   7.954 -1.0493 -0.6582 -0.6309
   79SLPC  H14S 7280   5.738   3.467   7.832  2.2106  0.6274 -0.0106
   79SLPC  C215 7281   5.844   3.439   8.005 -0.2908  0.1533 -1.0110
   79SLPC  H15R 7282   5.797   3.528   8.052  1.1199 -0.2506  1.2909
   79SLPC  H15S 7283   5.943   3.459   7.960 -0.0291 -0.9783 -0.9543
   79SLPC  C216 7284   5.881   3.348   8.132 -0.1199  0.0025 -0.5333
   79SLPC  H16R 7285   5.899   3.244   8.096  1.3027 -0.5535  1.6075
   79SLPC  H16S 7286   5.792   3.345   8.198 -0.7057 -1.6240 -1.3311
   79SLPC  C217 7287   5.995   3.389   8.224  0.0889  0.2638 -0.2217
   79SLPC  H17R 7288   6.083   3.380   8.158  0.1728 -1.5612  0.0976
   79SLPC  H17S 7289   5.993   3.315   8.307  2.6297 -0.0985 -0.4120
   79SLPC  C218 7290   5.964   3.528   8.281 -0.0320  0.6272 -0.6104
   79SLPC  H18R 7291   5.878   3.523   8.352  1.5900 -1.4509  1.3730
   79SLPC  H18S 7292   5.939   3.603   8.203 -0.7942  1.5125  0.4598
   79SLPC  H18T 7293   6.053   3.561   8.339 -0.1683 -2.1067  1.3472
   79SLPC   C33 7294   6.179   2.766   7.053  0.8989 -0.6047  0.2995
   79SLPC   H3X 7295   6.246   2.834   6.996 -1.6600  2.1748  0.3664
   79SLPC   H3Y 7296   6.236   2.684   7.100 -1.1367 -0.3242  3.5546
   79SLPC   C34 7297   6.140   2.841   7.180  0.7103 -0.3309 -0.0774
   79SLPC   H4X 7298   6.095   2.940   7.155 -1.1631 -1.6476 -2.3710
   79SLPC   H4Y 7299   6.234   2.867   7.233  2.4415 -0.3040 -2.9059
   79SLPC   C35 7300   6.044   2.766   7.274 -0.6546 -0.1751  0.1316
   79SLPC   H5X 7301   6.095   2.668   7.280  0.2856  0.2031 -1.2410
   79SLPC   H5Y 7302   5.957   2.760   7.205 -1.3503 -2.8585  1.1383
   79SLPC   C36 7303   6.028   2.837   7.408 -0.2608  0.2655 -0.0209
   79SLPC   H6X 7304   5.979   2.936   7.393  0.6025  0.5270 -1.2742
   79SLPC   H6Y 7305   6.122   2.848   7.465 -1.1054  0.5100  1.3662
   79SLPC   C37 7306   5.926   2.756   7.491  0.6804 -0.7577  0.1007
   79SLPC   H7X 7307   5.954   2.649   7.479  1.0994 -0.5828 -0.4956
   79SLPC   H7Y 7308   5.824   2.762   7.448  1.2452 -0.6498 -1.2537
   79SLPC   C38 7309   5.911   2.823   7.624 -0.2920  0.1220  0.4770
   79SLPC   H8X 7310   5.883   2.930   7.615 -1.4424 -0.0951  1.2166
   79SLPC   H8Y 7311   6.008   2.814   7.678  0.0663 -0.9434 -0.3172
   79SLPC   C39 7312   5.803   2.757   7.709 -0.1227 -0.0118 -0.1316
   79SLPC   H9X 7313   5.842   2.655   7.729  0.5322 -0.1808 -1.9948
   79SLPC   H9Y 7314   5.709   2.745   7.650 -0.9908  2.6200  0.5948
   79SLPC  C310 7315   5.752   2.826   7.832 -0.2271 -0.6439  0.1301
   79SLPC  H10X 7316   5.673   2.763   7.877  0.6553 -0.6017  1.8399
   79SLPC  H10Y 7317   5.701   2.919   7.799  0.6059 -0.5092 -0.8560
   79SLPC  C311 7318   5.840   2.853   7.949 -0.5898 -0.1013 -0.0989
   79SLPC  H11X 7319   5.920   2.920   7.912 -2.3016  1.4252 -1.2209
   79SLPC  H11Y 7320   5.888   2.757   7.978 -0.6440 -1.3246 -3.4949
   79SLPC  C312 7321   5.763   2.925   8.063  0.0834 -0.2638 -0.5004
   79SLPC  H12X 7322   5.666   2.957   8.020  0.5896  0.4574 -1.1217
   79SLPC  H12Y 7323   5.814   3.020   8.088 -1.9959  1.2149 -1.5446
   79SLPC  C313 7324   5.752   2.822   8.182  0.6813 -0.6011 -0.8568
   79SLPC  H13X 7325   5.856   2.792   8.210  1.0904  0.1557 -1.5176
   79SLPC  H13Y 7326   5.701   2.732   8.143  2.3726 -0.7897 -2.8033
   79SLPC  C314 7327   5.680   2.867   8.316 -0.6252 -0.0188 -0.3923
   79SLPC  H14X 7328   5.648   2.783   8.381 -1.0916  0.7250  0.3562
   79SLPC  H14Y 7329   5.590   2.922   8.281 -1.8957 -1.1116  1.0084
   79SLPC  C315 7330   5.766   2.968   8.388  0.1586  0.1415 -0.0979
   79SLPC  H15X 7331   5.748   3.073   8.357 -3.3065 -0.5039 -0.7350
   79SLPC  H15Y 7332   5.871   2.951   8.357  0.1626 -0.6933  0.3482
   79SLPC  C316 7333   5.756   2.957   8.546 -0.3916  0.3366  0.2949
   79SLPC  H16X 7334   5.756   2.850   8.573  2.6035  0.4468  0.9995
   79SLPC  H16Y 7335   5.657   2.999   8.574 -0.1829  1.6361 -0.8200
   79SLPC  C317 7336   5.866   3.029   8.627 -0.3256 -0.3881 -0.6310
   79SLPC  H17X 7337   5.860   3.137   8.598 -1.1570  0.2794  1.8314
   79SLPC  H17Y 7338   5.968   2.995   8.600  0.0919  0.9901 -0.8571
   79SLPC  C318 7339   5.842   3.012   8.779  0.4739  0.1047 -0.0881
   79SLPC  H18X 7340   5.755   3.079   8.799  1.1537  0.7955  0.6185
   79SLPC  H18Y 7341   5.929   3.044   8.841  0.3240  0.7082 -0.1791
   79SLPC  H18Z 7342   5.826   2.905   8.804  0.5193  0.6193  2.3403
   80SLPC     N 7343   2.106   5.970   6.095 -0.0892 -0.1214 -0.0241
   80SLPC   C13 7344   2.019   6.086   6.063 -0.2750 -0.5017  0.2127
   80SLPC  H13A 7345   2.065   6.184   6.071 -1.0920 -0.1062  0.1484
   80SLPC  H13B 7346   1.971   6.078   5.967  0.0494  2.1423 -0.2576
   80SLPC  H13C 7347   1.939   6.093   6.135 -0.8293 -1.5803 -0.2855
   80SLPC   C14 7348   2.192   5.950   5.968  0.0511  0.3838  0.3941
   80SLPC  H14A 7349   2.271   5.877   5.978 -1.3083 -0.7974  4.6303
   80SLPC  H14B 7350   2.120   5.925   5.892  0.0590  1.1792  0.1240
   80SLPC  H14C 7351   2.246   6.039   5.938  0.8137 -0.4560 -0.8053
   80SLPC   C15 7352   2.024   5.850   6.106 -0.1494 -0.4947  0.8429
   80SLPC  H15A 7353   1.932   5.865   6.161 -2.1989 -2.9835 -1.6232
   80SLPC  H15B 7354   1.986   5.825   6.008 -2.1091  2.4335  0.7044
   80SLPC  H15C 7355   2.078   5.762   6.137  1.4554 -0.2339 -1.0399
   80SLPC   C12 7356   2.186   5.990   6.222 -0.4725 -0.9604 -0.3410
   80SLPC  H12A 7357   2.238   6.085   6.220  1.7011 -1.9931  2.1501
   80SLPC  H12B 7358   2.255   5.907   6.218 -2.7328 -3.0023  0.4539
   80SLPC   C11 7359   2.110   5.984   6.363 -0.0555 -0.4083 -0.5108
   80SLPC  H11A 7360   2.184   6.021   6.437  0.5909 -0.3632 -1.1733
   80SLPC  H11B 7361   2.091   5.876   6.380  1.0062 -0.7017 -1.1041
   80SLPC     P 7362   1.849   6.029   6.400 -0.0155 -0.4193 -0.0062
   80SLPC   O13 7363   1.755   6.131   6.340 -0.1813 -0.0894 -0.0232
   80SLPC   O14 7364   1.834   5.887   6.352 -0.1638 -0.3721 -0.0112
   80SLPC   O12 7365   1.999   6.078   6.374 -0.3052 -0.4190 -0.1522
   80SLPC   O11 7366   1.839   6.029   6.555  0.5713 -0.7649 -0.8304
   80SLPC    C1 7367   1.841   6.157   6.625  0.0746 -0.4523 -0.5085
   80SLPC    HA 7368   1.798   6.241   6.567  3.1788  0.8092 -1.1690
   80SLPC    HB 7369   1.785   6.135   6.718  2.2185 -1.5612  0.6081
   80SLPC    C2 7370   1.988   6.202   6.659  0.2384  0.1447 -0.4536
   80SLPC    HS 7371   2.040   6.191   6.561 -2.6473 -1.7209 -1.9157
   80SLPC   O21 7372   2.045   6.114   6.755  0.4309 -0.0044  0.0320
   80SLPC   C21 7373   2.174   6.107   6.765  0.1131 -0.6533 -0.2822
   80SLPC   O22 7374   2.252   6.169   6.693  0.5675  0.2516 -0.3743
   80SLPC   C22 7375   2.209   6.006   6.869 -0.2731  0.4905  0.2232
   80SLPC   H2R 7376   2.206   5.901   6.833  1.1163  0.8291 -0.9605
   80SLPC   H2S 7377   2.315   6.019   6.899  0.0304 -0.1960 -0.5172
   80SLPC    C3 7378   1.998   6.349   6.716  0.2474 -0.1464  0.0446
   80SLPC    HX 7379   1.954   6.415   6.638 -0.7088 -0.3264  0.4180
   80SLPC    HY 7380   2.103   6.382   6.726  0.2339  0.2816 -1.0232
   80SLPC   O31 7381   1.928   6.358   6.839  0.3772  0.2361  0.0683
   80SLPC   C31 7382   1.795   6.394   6.837 -0.7617 -0.7787  0.2767
   80SLPC   O32 7383   1.743   6.444   6.737  0.0606 -0.3611 -0.0426
   80SLPC   C32 7384   1.722   6.362   6.962  0.0301  0.2553  0.2150
   80SLPC   H2X 7385   1.628   6.311   6.933 -0.9732  1.5719  1.0205
   80SLPC   H2Y 7386   1.692   6.459   7.007 -0.7685 -0.1030  0.4609
   80SLPC   C23 7387   2.138   6.003   7.007  0.6658 -0.5768  0.0892
   80SLPC   H3R 7388   2.173   5.908   7.052 -0.0995 -0.6120  0.6262
   80SLPC   H3S 7389   2.028   5.992   6.990  0.9901 -1.0116 -1.9836
   80SLPC   C24 7390   2.165   6.112   7.110 -0.3451  0.3283  0.7224
   80SLPC   H4R 7391   2.111   6.207   7.087  0.3695  0.6257  0.2244
   80SLPC   H4S 7392   2.275   6.130   7.120 -0.6180  2.9230 -0.1931
   80SLPC   C25 7393   2.115   6.055   7.233  0.2724 -0.4213 -1.6566
   80SLPC   H5R 7394   2.183   5.975   7.271 -1.5691 -1.1934  0.2384
   80SLPC   H5S 7395   2.015   6.008   7.220 -0.4251  0.7353 -0.6754
   80SLPC   C26 7396   2.097   6.165   7.344 -0.2785  0.4159  0.8131
   80SLPC   H6R 7397   2.044   6.246   7.287 -0.3527 -0.3312 -0.2141
   80SLPC   H6S 7398   2.199   6.192   7.379  1.1500 -3.6702  0.3109
   80SLPC   C27 7399   2.007   6.104   7.452 -0.2543 -0.2897  0.6737
   80SLPC   H7R 7400   2.060   6.018   7.500 -0.7945 -1.8935 -1.4697
   80SLPC   H7S 7401   1.920   6.063   7.398 -0.4636  2.9218 -1.7068
   80SLPC   C28 7402   1.977   6.201   7.564 -0.0128 -0.0229 -0.2803
   80SLPC   H8R 7403   1.893   6.162   7.626  1.5285  0.1333  2.0221
   80SLPC   H8S 7404   1.935   6.291   7.514 -2.3506 -1.0633 -0.3716
   80SLPC   C29 7405   2.091   6.254   7.657 -0.4596  1.1009 -0.1553
   80SLPC   H9R 7406   2.183   6.287   7.606  0.2123 -1.2324 -0.5696
   80SLPC  C210 7407   2.093   6.256   7.791  0.3028 -0.0488 -0.1945
   80SLPC  H10R 7408   2.173   6.315   7.840 -3.2390  3.7429  1.6813
   80SLPC  C211 7409   1.985   6.206   7.885  0.0755  0.8702 -0.4501
   80SLPC  H11R 7410   2.029   6.127   7.949 -0.0574  1.3805  0.2802
   80SLPC  H11S 7411   1.910   6.153   7.823 -1.6395  3.3289 -0.6355
   80SLPC  C212 7412   1.906   6.305   7.970 -0.1851  0.0500  0.4166
   80SLPC  H12R 7413   1.901   6.410   7.939 -3.5397  1.2033  4.1030
   80SLPC  C213 7414   1.850   6.279   8.089  0.3395  0.4565  0.1559
   80SLPC  H13R 7415   1.789   6.356   8.138  0.2932  0.0370  0.7639
   80SLPC  C214 7416   1.865   6.153   8.174  0.0156 -0.3364  0.3231
   80SLPC  H14R 7417   1.871   6.195   8.276 -0.2486 -0.8215  0.5421
   80SLPC  H14S 7418   1.957   6.094   8.153 -0.3742 -0.3152 -1.7015
   80SLPC  C215 7419   1.750   6.051   8.181  0.7736  0.2379  0.3204
   80SLPC  H15R 7420   1.790   5.948   8.188  0.8018  0.3550  2.6490
   80SLPC  H15S 7421   1.691   6.062   8.087  0.6172  0.4611  0.4422
   80SLPC  C216 7422   1.645   6.082   8.295  0.0596  0.6439  0.5645
   80SLPC  H16R 7423   1.544   6.062   8.254  0.5757 -2.6211  0.6231
   80SLPC  H16S 7424   1.644   6.191   8.316  0.4640  0.9035 -0.7060
   80SLPC  C217 7425   1.652   6.002   8.434 -0.3939  0.2884  0.4808
   80SLPC  H17R 7426   1.615   6.063   8.520  0.2024 -0.4121  1.2409
   80SLPC  H17S 7427   1.758   5.976   8.455 -0.0374  0.6057 -0.8471
   80SLPC  C218 7428   1.572   5.871   8.424 -0.3261 -0.2295  0.3425
   80SLPC  H18R 7429   1.615   5.801   8.349  1.9746  1.8727 -0.4449
   80SLPC  H18S 7430   1.468   5.887   8.388 -0.8692 -2.0376  0.9946
   80SLPC  H18T 7431   1.558   5.823   8.523 -2.2478  0.2058  0.3226
   80SLPC   C33 7432   1.818   6.288   7.064  0.7271  0.5178 -0.8466
   80SLPC   H3X 7433   1.909   6.350   7.083 -0.2977  1.9728 -0.4949
   80SLPC   H3Y 7434   1.839   6.194   7.009 -3.0124 -1.3347  0.5416
   80SLPC   C34 7435   1.745   6.238   7.195  0.5366 -0.2504 -0.5806
   80SLPC   H4X 7436   1.793   6.147   7.237 -3.5226 -1.4015  2.0766
   80SLPC   H4Y 7437   1.649   6.191   7.164  1.9545 -2.8110 -1.4113
   80SLPC   C35 7438   1.723   6.342   7.307 -0.6650 -0.2178 -0.4862
   80SLPC   H5X 7439   1.694   6.441   7.265  0.2050 -0.0661 -0.7407
   80SLPC   H5Y 7440   1.822   6.360   7.353 -0.6380 -0.7661 -0.3182
   80SLPC   C36 7441   1.636   6.277   7.411 -0.1969  0.1230 -0.1464
   80SLPC   H6X 7442   1.686   6.192   7.461  0.7380  0.0094 -1.2329
   80SLPC   H6Y 7443   1.543   6.229   7.373  0.5264 -2.1394  0.7813
   80SLPC   C37 7444   1.600   6.384   7.515  0.5858  0.4096 -0.1869
   80SLPC   H7X 7445   1.543   6.462   7.460 -0.9881 -0.7008 -0.2076
   80SLPC   H7Y 7446   1.691   6.428   7.561  0.5461 -1.0747  1.4166
   80SLPC   C38 7447   1.521   6.340   7.638  0.1711  0.8219  0.2403
   80SLPC   H8X 7448   1.425   6.294   7.604 -0.2796  3.9222 -3.2765
   80SLPC   H8Y 7449   1.496   6.434   7.691  1.2470  1.2340  0.0279
   80SLPC   C39 7450   1.591   6.249   7.738 -0.7668 -0.0352  0.2419
   80SLPC   H9X 7451   1.686   6.298   7.767 -1.4627  0.1355  2.3515
   80SLPC   H9Y 7452   1.616   6.150   7.694 -2.1816 -0.3150  0.0052
   80SLPC  C310 7453   1.509   6.233   7.869 -0.5075  0.3770  0.1652
   80SLPC  H10X 7454   1.551   6.155   7.936  1.9418  0.7373 -0.8474
   80SLPC  H10Y 7455   1.404   6.207   7.843 -0.9429  3.0245 -1.1079
   80SLPC  C311 7456   1.519   6.361   7.957  0.0667 -0.5846 -0.1517
   80SLPC  H11X 7457   1.456   6.438   7.907  0.3879 -1.1886 -1.5291
   80SLPC  H11Y 7458   1.626   6.389   7.974 -0.1630 -0.4712  1.2152
   80SLPC  C312 7459   1.448   6.345   8.090  0.4217  0.2370  0.5092
   80SLPC  H12X 7460   1.469   6.251   8.146  0.1769 -0.0878  0.0596
   80SLPC  H12Y 7461   1.339   6.325   8.075  0.7719 -1.4675  0.0199
   80SLPC  C313 7462   1.486   6.458   8.191  0.2106 -0.7725 -0.2584
   80SLPC  H13X 7463   1.468   6.558   8.146 -0.2902 -1.0113 -0.5967
   80SLPC  H13Y 7464   1.594   6.440   8.210 -0.0096 -1.2498  0.5873
   80SLPC  C314 7465   1.391   6.456   8.314 -1.3318 -0.0167  0.3219
   80SLPC  H14X 7466   1.384   6.355   8.360  1.3924 -0.1984  0.5008
   80SLPC  H14Y 7467   1.291   6.472   8.269 -1.4278  3.7564  1.5176
   80SLPC  C315 7468   1.417   6.562   8.427  0.1539  0.3525 -0.1925
   80SLPC  H15X 7469   1.337   6.548   8.503 -0.1000 -2.8760 -0.9046
   80SLPC  H15Y 7470   1.402   6.658   8.374 -0.7352 -1.2849 -3.1138
   80SLPC  C316 7471   1.563   6.553   8.481  0.0116 -0.0405 -0.5098
   80SLPC  H16X 7472   1.580   6.638   8.551 -2.6857 -0.8556  1.2734
   80SLPC  H16Y 7473   1.629   6.562   8.392  1.4259  2.3769  0.6609
   80SLPC  C317 7474   1.586   6.432   8.576 -0.2309  0.1190 -0.1221
   80SLPC  H17X 7475   1.688   6.431   8.619  0.6994  0.3052 -2.2122
   80SLPC  H17Y 7476   1.580   6.340   8.514  0.4301 -0.6588  0.9345
   80SLPC  C318 7477   1.485   6.418   8.690  1.0969  0.3999 -0.6164
   80SLPC  H18X 7478   1.504   6.322   8.742  0.3469  0.0371 -1.0043
   80SLPC  H18Y 7479   1.378   6.426   8.664  1.0782  2.1890 -0.1122
   80SLPC  H18Z 7480   1.513   6.498   8.761  0.4489  0.6728 -0.6696
   81SAPS     N 7481   5.672   0.265  10.936  0.6450  0.2367  0.0764
   81SAPS   HN1 7482   5.624   0.357  10.942 -0.9271 -0.5512 -0.0874
   81SAPS   HN2 7483   5.725   0.273  10.847 -0.3190 -2.7669 -0.8925
   81SAPS   HN3 7484   5.595   0.199  10.912  0.8086  0.9229 -2.7486
   81SAPS   C12 7485   5.744   0.237  11.061  0.2971  0.2467 -0.0849
   81SAPS  H12A 7486   5.672   0.245  11.142  0.1337 -1.5580 -0.0050
   81SAPS   C13 7487   5.803   0.092  11.065  1.1240 -0.4760  0.5002
   81SAPS  O13A 7488   5.838   0.033  10.961  1.1766  0.1744  0.0356
   81SAPS  O13B 7489   5.824   0.049  11.181 -0.4388 -0.2248 -0.1595
   81SAPS   C11 7490   5.848   0.337  11.088  0.3186 -0.1597  0.4423
   81SAPS  H11A 7491   5.925   0.333  11.008  0.6090 -0.0781  0.7091
   81SAPS  H11B 7492   5.895   0.305  11.184  1.1781 -1.5054 -0.3939
   81SAPS     P 7493   5.849   0.603  11.054 -0.1506 -0.7420 -0.4003
   81SAPS   O13 7494   5.740   0.704  11.066 -0.2279 -0.0472  0.5770
   81SAPS   O14 7495   5.979   0.650  11.110 -0.3342 -0.6327  0.4932
   81SAPS   O12 7496   5.801   0.464  11.121 -0.0877  0.0158  0.1581
   81SAPS   O11 7497   5.868   0.559  10.907 -0.2438 -0.2910 -0.0423
   81SAPS    C1 7498   5.898   0.657  10.807  0.3030  0.2550 -0.1241
   81SAPS    HA 7499   5.835   0.748  10.816 -0.1113  0.0128 -0.5078
   81SAPS    HB 7500   6.005   0.682  10.822  0.9334 -1.8320 -0.8064
   81SAPS    C2 7501   5.872   0.597  10.670 -0.7150 -0.0927  0.3843
   81SAPS    HS 7502   5.766   0.569  10.658 -0.6819  0.4772 -1.5823
   81SAPS   O21 7503   5.966   0.490  10.645  0.5996  0.0926  0.0699
   81SAPS   C21 7504   5.916   0.371  10.688  0.2139 -0.3849 -0.6324
   81SAPS   O22 7505   5.798   0.344  10.707 -0.2045 -0.2201 -0.3598
   81SAPS   C22 7506   6.027   0.278  10.703 -0.2352  0.0395 -0.4609
   81SAPS   H2R 7507   6.126   0.326  10.715 -0.3176  0.7578 -2.4216
   81SAPS   H2S 7508   6.006   0.225  10.799 -0.2203  0.3872 -0.2672
   81SAPS    C3 7509   5.882   0.710  10.559  0.3459  0.0923  0.4814
   81SAPS    HX 7510   5.974   0.767  10.584  0.1858  0.1870  0.8724
   81SAPS    HY 7511   5.797   0.776  10.588 -2.3630 -3.2400  0.8446
   81SAPS   O31 7512   5.866   0.662  10.423  0.1679  0.1901 -0.6746
   81SAPS   C31 7513   5.985   0.624  10.362 -0.3358  0.5739  0.6809
   81SAPS   O32 7514   6.098   0.644  10.404 -0.0161 -0.7805  0.0703
   81SAPS   C32 7515   5.956   0.539  10.244  0.0750 -0.3526  0.1992
   81SAPS   H2X 7516   5.847   0.528  10.229  0.0166 -0.8807  0.9585
   81SAPS   H2Y 7517   5.998   0.437  10.259 -0.2736 -0.4732  0.3544
   81SAPS   C23 7518   6.025   0.171  10.593 -0.3860  0.2515  0.4951
   81SAPS   H3R 7519   5.928   0.118  10.586 -1.0809  1.6198 -0.7348
   81SAPS   H3S 7520   6.099   0.094  10.624 -0.7270 -0.0245  0.6234
   81SAPS   C24 7521   6.072   0.220  10.456  0.2561 -0.5192  0.4432
   81SAPS   H4R 7522   6.166   0.276  10.475 -0.6211  0.9180  0.7289
   81SAPS   H4S 7523   5.994   0.288  10.415  2.5580  0.6976 -2.2648
   81SAPS   C25 7524   6.091   0.106  10.352 -0.1517 -0.2643  0.1742
   81SAPS   H5R 7525   6.190   0.062  10.332 -1.0020 -2.5458  0.6079
   81SAPS   C26 7526   5.987   0.043  10.283  0.3776 -0.9127 -0.3264
   81SAPS   H6R 7527   6.009  -0.050  10.229  2.1207 -0.6322 -0.1711
   81SAPS   C27 7528   5.844   0.086  10.289 -0.1992 -0.7286  0.1023
   81SAPS   H7R 7529   5.829   0.160  10.207  0.8930 -2.0790 -1.3974
   81SAPS   H7S 7530   5.812   0.147  10.376 -0.8286 -1.0491  0.1029
   81SAPS   C28 7531   5.743  -0.018  10.275 -0.3446 -0.5348 -0.0173
   81SAPS   H8R 7532   5.693  -0.048  10.368  1.0162 -0.3361  0.7955
   81SAPS   C29 7533   5.722  -0.083  10.159 -0.1515  0.0786  0.6564
   81SAPS   H9R 7534   5.668  -0.178  10.162  0.1233 -0.1664 -1.3133
   81SAPS  C210 7535   5.789  -0.057  10.031 -0.2292  1.2471  0.0683
   81SAPS  H10R 7536   5.878  -0.122  10.020 -0.8186  0.4144  0.1842
   81SAPS  H10S 7537   5.819   0.050  10.018 -0.5832  1.2094 -1.2405
   81SAPS  C211 7538   5.714  -0.077   9.899  0.2894  0.0858  0.2188
   81SAPS  H11R 7539   5.604  -0.074   9.898  0.2208 -1.5141  0.0042
   81SAPS  C212 7540   5.775  -0.084   9.778 -0.3810 -0.2613 -0.3515
   81SAPS  H12R 7541   5.716  -0.094   9.686  0.9467 -0.8064 -1.1640
   81SAPS  C213 7542   5.923  -0.070   9.744  0.2441  0.1902 -0.5581
   81SAPS  H13R 7543   5.961  -0.160   9.689  2.3107  0.4438  0.3470
   81SAPS  H13S 7544   5.974  -0.084   9.842 -1.7094 -4.5727  0.0791
   81SAPS  C214 7545   5.951   0.060   9.670 -1.1477 -0.0865  0.3624
   81SAPS  H14R 7546   5.951   0.147   9.736 -0.2502 -0.9206  1.5029
   81SAPS  C215 7547   5.953   0.087   9.542 -0.1036  0.1699 -0.7135
   81SAPS  H15R 7548   5.980   0.189   9.510 -0.5607  0.5403  0.0503
   81SAPS  C216 7549   5.931  -0.016   9.428 -0.4460 -0.0338 -0.1989
   81SAPS  H16R 7550   5.825   0.002   9.399 -0.6023  0.8454  0.8645
   81SAPS  H16S 7551   5.935  -0.124   9.453  0.8013 -0.0057 -0.2237
   81SAPS  C217 7552   6.019   0.009   9.308 -0.6873 -0.2704 -0.5522
   81SAPS  H17R 7553   6.128  -0.004   9.328 -0.1938  2.4465 -1.1716
   81SAPS  H17S 7554   6.004   0.115   9.279  0.3722  0.9106  2.7238
   81SAPS  C218 7555   5.994  -0.089   9.193 -0.1411  0.3186  0.1897
   81SAPS  H18R 7556   5.891  -0.068   9.159 -0.5772  0.8136  1.7071
   81SAPS  H18S 7557   5.981  -0.192   9.232 -1.8321  0.8484  1.1194
   81SAPS  C219 7558   6.093  -0.081   9.076  0.0845 -0.2231 -0.2187
   81SAPS  H19R 7559   6.198  -0.099   9.105  0.7213  0.4775 -1.9474
   81SAPS  H19S 7560   6.088   0.027   9.051  1.3563  0.4321  2.1185
   81SAPS  C220 7561   6.061  -0.158   8.947  0.3019  0.3065  0.4633
   81SAPS  H20R 7562   6.155  -0.152   8.888  0.4742 -0.1338  0.6831
   81SAPS  H20S 7563   5.979  -0.105   8.895  0.6493  0.4557  0.0648
   81SAPS  H20T 7564   6.044  -0.267   8.962  1.0918  0.1968  0.6148
   81SAPS   C33 7565   6.021   0.605  10.116 -0.0911  0.3226  0.6094
   81SAPS   H3X 7566   6.132   0.607  10.128 -0.0016  1.6203 -0.2996
   81SAPS   H3Y 7567   5.980   0.707  10.102  0.3886  0.7261  1.9414
   81SAPS   C34 7568   5.984   0.524   9.991 -0.6311  0.1039  0.0512
   81SAPS   H4X 7569   5.876   0.502   9.976 -0.8653  1.0742  0.2562
   81SAPS   H4Y 7570   6.033   0.425   9.978 -0.1862  0.3797 -0.4129
   81SAPS   C35 7571   6.026   0.602   9.860  0.1737  0.0860 -0.5501
   81SAPS   H5X 7572   6.136   0.590   9.870  0.2913 -1.3609 -2.8807
   81SAPS   H5Y 7573   5.979   0.702   9.867 -1.7816 -0.8981  1.5396
   81SAPS   C36 7574   5.964   0.532   9.736 -0.1760  0.2676 -0.0409
   81SAPS   H6X 7575   5.853   0.526   9.748 -0.1412 -1.2451 -0.2260
   81SAPS   H6Y 7576   6.011   0.432   9.725  0.8846  0.8191 -0.5966
   81SAPS   C37 7577   5.976   0.604   9.602  0.4353 -0.2093  0.0174
   81SAPS   H7X 7578   6.079   0.642   9.587 -0.2164  1.0661 -1.4639
   81SAPS   H7Y 7579   5.925   0.703   9.601 -1.5479 -1.1734  0.4468
   81SAPS   C38 7580   5.925   0.524   9.483  0.2143 -0.3551 -0.4831
   81SAPS   H8X 7581   5.814   0.529   9.480  0.2563  2.2552  0.0983
   81SAPS   H8Y 7582   5.954   0.417   9.494 -1.7566 -0.8514  0.2257
   81SAPS   C39 7583   5.986   0.575   9.352  0.0200 -0.2369  0.9320
   81SAPS   H9X 7584   6.095   0.572   9.368  0.1565  0.3446  0.1637
   81SAPS   H9Y 7585   5.958   0.680   9.329 -0.0295 -0.5204 -0.4096
   81SAPS  C310 7586   5.945   0.476   9.239  0.3053 -0.2914  0.2414
   81SAPS  H10X 7587   5.835   0.470   9.231  0.3527  0.5576 -2.1772
   81SAPS  H10Y 7588   5.979   0.376   9.271 -0.8042  0.2522  3.4563
   81SAPS  C311 7589   6.004   0.520   9.104 -0.8077 -0.0036 -0.3976
   81SAPS  H11X 7590   6.112   0.496   9.107 -0.4867  1.2478 -1.3140
   81SAPS  H11Y 7591   5.991   0.630   9.108 -2.6308 -0.0634 -2.4170
   81SAPS  C312 7592   5.930   0.460   8.986 -0.1517  0.3566  0.7557
   81SAPS  H12X 7593   5.830   0.507   8.976 -1.0036 -1.2846  1.1710
   81SAPS  H12Y 7594   5.903   0.354   9.007  0.8739  0.1603  1.1091
   81SAPS  C313 7595   6.006   0.480   8.853 -0.1830  0.4082 -0.0296
   81SAPS  H13X 7596   6.108   0.437   8.860  0.0521  1.1433  1.3349
   81SAPS  H13Y 7597   6.008   0.590   8.837  1.3898  0.4377  0.2706
   81SAPS  C314 7598   5.946   0.416   8.722  0.7865  0.9268  0.0294
   81SAPS  H14X 7599   5.840   0.446   8.711  0.8376  0.7428 -1.0171
   81SAPS  H14Y 7600   5.961   0.306   8.735  1.2775  1.0511  0.5723
   81SAPS  C315 7601   6.017   0.463   8.593  0.5860  0.2012  0.3306
   81SAPS  H15X 7602   6.127   0.474   8.604  0.3462  4.7854 -0.1457
   81SAPS  H15Y 7603   5.985   0.569   8.586  0.0027 -0.0285 -0.6355
   81SAPS  C316 7604   5.967   0.392   8.469 -0.0911  0.0249  0.1470
   81SAPS  H16X 7605   5.856   0.396   8.462 -0.0366  2.1038 -0.0112
   81SAPS  H16Y 7606   5.995   0.284   8.469  2.2490  0.5402 -1.9775
   81SAPS  C317 7607   6.007   0.467   8.350  0.0176  0.4105  0.6154
   81SAPS  H17X 7608   6.118   0.460   8.350 -0.0762 -3.2906  0.0274
   81SAPS  H17Y 7609   5.991   0.577   8.351  0.7135  0.5123  2.1171
   81SAPS  C318 7610   5.949   0.417   8.218  0.5213 -0.0726 -0.0243
   81SAPS  H18X 7611   5.840   0.440   8.210  0.6513  0.2214 -1.1402
   81SAPS  H18Y 7612   5.964   0.307   8.213 -0.1130 -0.2436  1.3785
   81SAPS  H18Z 7613   5.994   0.476   8.135  0.1668  0.1997 -0.0278
   82SAPS     N 7614   5.933   5.626  10.840  0.0220 -0.0304  0.0871
   82SAPS   HN1 7615   6.001   5.690  10.886  0.6026 -2.9994  3.8115
   82SAPS   HN2 7616   5.982   5.540  10.808 -2.9017 -1.5198 -0.7312
   82SAPS   HN3 7617   5.888   5.675  10.759  0.2353  2.3255  1.2890
   82SAPS   C12 7618   5.836   5.582  10.954 -0.4084 -0.6019 -0.3779
   82SAPS  H12A 7619   5.775   5.496  10.927 -0.6893 -0.1124 -1.3380
   82SAPS   C13 7620   5.909   5.532  11.082 -0.0232  0.4333  0.3924
   82SAPS  O13A 7621   6.038   5.521  11.074  0.4329 -0.2000  0.5760
   82SAPS  O13B 7622   5.852   5.538  11.196 -0.3997  0.2339  0.4224
   82SAPS   C11 7623   5.752   5.714  10.997 -0.8109  0.8536 -0.2455
   82SAPS  H11A 7624   5.830   5.777  11.045 -1.5971  1.0900  0.7588
   82SAPS  H11B 7625   5.683   5.678  11.076 -1.2528 -0.7322 -1.3127
   82SAPS     P 7626   5.521   5.779  10.899 -0.3142 -0.1228  0.2624
   82SAPS   O13 7627   5.480   5.635  10.879  0.2284  0.2154 -0.3430
   82SAPS   O14 7628   5.463   5.851  11.015 -0.2006  0.3906  0.2693
   82SAPS   O12 7629   5.681   5.786  10.895  0.6355 -0.4542 -0.1316
   82SAPS   O11 7630   5.472   5.858  10.771  0.0194 -0.0656 -0.0369
   82SAPS    C1 7631   5.556   5.836  10.655 -0.2197 -0.8145 -0.5679
   82SAPS    HA 7632   5.629   5.919  10.638 -1.0263 -0.2901 -1.6356
   82SAPS    HB 7633   5.622   5.747  10.652  1.7615  0.5700 -3.4631
   82SAPS    C2 7634   5.467   5.844  10.532 -0.5035 -0.9164 -1.0337
   82SAPS    HS 7635   5.420   5.746  10.509 -0.5998 -0.8051 -1.3087
   82SAPS   O21 7636   5.537   5.908  10.421 -0.0649 -0.5212 -0.1662
   82SAPS   C21 7637   5.603   5.812  10.356  0.7178 -0.9993  0.0463
   82SAPS   O22 7638   5.591   5.689  10.367  0.3169 -0.2362  0.5365
   82SAPS   C22 7639   5.705   5.880  10.268 -0.1051  0.3675 -0.1087
   82SAPS   H2R 7640   5.650   5.954  10.205 -0.7401  0.1950  0.2374
   82SAPS   H2S 7641   5.779   5.930  10.334 -0.0515  0.5508 -0.3042
   82SAPS    C3 7642   5.336   5.928  10.568 -0.0986  0.2612 -0.1658
   82SAPS    HX 7643   5.373   6.028  10.601 -0.2208  0.6322 -1.1061
   82SAPS    HY 7644   5.287   5.869  10.649 -0.4460 -0.3499 -0.8130
   82SAPS   O31 7645   5.239   5.943  10.459 -1.0340  0.0653 -0.0895
   82SAPS   C31 7646   5.140   6.032  10.487  0.0821  0.6695  0.0735
   82SAPS   O32 7647   5.129   6.100  10.584  0.4136  0.0170  0.1658
   82SAPS   C32 7648   5.042   6.030  10.373  0.0266 -0.6515 -0.5036
   82SAPS   H2X 7649   4.964   6.103  10.402  2.1280  1.1880  0.7981
   82SAPS   H2Y 7650   4.990   5.931  10.379 -3.2745  0.7467 -2.9863
   82SAPS   C23 7651   5.776   5.787  10.164  0.0167 -0.4660 -0.6269
   82SAPS   H3R 7652   5.708   5.706  10.130  0.8022 -1.5174  0.2219
   82SAPS   H3S 7653   5.854   5.723  10.212  1.9519  1.3155 -1.2012
   82SAPS   C24 7654   5.833   5.862  10.043 -0.2941 -0.2345 -0.2478
   82SAPS   H4R 7655   5.926   5.818  10.001 -0.2048 -2.6214  2.1516
   82SAPS   H4S 7656   5.867   5.959  10.084 -1.0407  0.1535 -0.5390
   82SAPS   C25 7657   5.726   5.883   9.935  0.5123  0.7355 -1.0378
   82SAPS   H5R 7658   5.630   5.916   9.978  0.4604  0.8998 -1.2792
   82SAPS   C26 7659   5.738   5.842   9.806  0.4149 -0.5119 -0.1813
   82SAPS   H6R 7660   5.650   5.856   9.742 -0.2072 -1.3807  0.4758
   82SAPS   C27 7661   5.855   5.790   9.729 -0.8059  0.3116 -0.1484
   82SAPS   H7R 7662   5.806   5.723   9.655  0.0413 -1.8993  1.1923
   82SAPS   H7S 7663   5.929   5.726   9.781 -1.5664 -0.7807 -0.3785
   82SAPS   C28 7664   5.905   5.906   9.644 -0.6319  0.2046  0.7042
   82SAPS   H8R 7665   5.946   5.987   9.706  0.3839  0.9573 -0.8830
   82SAPS   C29 7666   5.940   5.894   9.516  0.0321  0.3467  0.3234
   82SAPS   H9R 7667   5.974   5.984   9.464 -1.7360 -0.1874 -1.9394
   82SAPS  C210 7668   5.912   5.769   9.423  0.3138  0.2092 -0.5945
   82SAPS  H10R 7669   5.903   5.671   9.475  1.9351 -0.3401 -1.2747
   82SAPS  H10S 7670   6.010   5.755   9.373  2.2650  1.0150  2.7022
   82SAPS  C211 7671   5.796   5.807   9.337  0.3073  0.0933  0.0918
   82SAPS  H11R 7672   5.714   5.866   9.381  0.7494 -0.0176  1.0856
   82SAPS  C212 7673   5.787   5.788   9.203  0.5825 -0.1638 -0.7062
   82SAPS  H12R 7674   5.699   5.835   9.157  0.0049  1.2540  1.6805
   82SAPS  C213 7675   5.893   5.718   9.114  0.1783  0.6596 -0.1420
   82SAPS  H13R 7676   5.856   5.615   9.093  0.3178  0.7672 -0.9164
   82SAPS  H13S 7677   5.985   5.704   9.176  0.0144  1.2649  0.2476
   82SAPS  C214 7678   5.897   5.791   8.979  0.0272  0.6777 -0.1571
   82SAPS  H14R 7679   5.822   5.871   8.970  0.1157  1.0360  1.8690
   82SAPS  C215 7680   5.986   5.770   8.880 -0.4437 -0.1219  0.0015
   82SAPS  H15R 7681   5.962   5.812   8.781  0.2296 -0.2842 -0.2350
   82SAPS  C216 7682   6.102   5.670   8.884 -0.1459 -0.3078 -0.1825
   82SAPS  H16R 7683   6.087   5.604   8.972 -0.4621  1.5654  1.2066
   82SAPS  H16S 7684   6.198   5.723   8.899 -0.5099 -0.2570  2.3816
   82SAPS  C217 7685   6.104   5.584   8.759 -0.9544 -0.9978 -0.0367
   82SAPS  H17R 7686   6.194   5.519   8.758 -0.3549 -0.1672 -0.8266
   82SAPS  H17S 7687   6.114   5.649   8.670 -1.0072 -1.8607 -0.6935
   82SAPS  C218 7688   5.994   5.475   8.747  0.4694 -0.0702 -0.5453
   82SAPS  H18R 7689   5.900   5.534   8.742  1.1432  1.0472 -0.2842
   82SAPS  H18S 7690   5.992   5.413   8.839 -0.0858  1.3268  0.4003
   82SAPS  C219 7691   6.008   5.392   8.620  0.2382  0.5561 -0.3281
   82SAPS  H19R 7692   6.096   5.329   8.644 -2.0504 -2.9848 -0.4702
   82SAPS  H19S 7693   6.044   5.452   8.533  1.7743 -0.1082 -0.1937
   82SAPS  C220 7694   5.892   5.300   8.584 -0.3288  0.1087 -0.0305
   82SAPS  H20R 7695   5.936   5.233   8.507  1.0443  0.1502  0.6810
   82SAPS  H20S 7696   5.807   5.360   8.545 -1.1622 -1.5769 -0.9250
   82SAPS  H20T 7697   5.858   5.238   8.670  1.0778 -0.5427  0.0790
   82SAPS   C33 7698   5.100   6.055  10.230 -0.0896 -0.1117  0.4223
   82SAPS   H3X 7699   5.186   5.989  10.208  0.6919  0.4007  1.7854
   82SAPS   H3Y 7700   5.126   6.163  10.234  0.4403 -0.2761  2.2269
   82SAPS   C34 7701   4.998   6.031  10.120 -1.0927 -0.0394  0.3332
   82SAPS   H4X 7702   4.911   6.100  10.121 -0.4931  0.7287  0.5112
   82SAPS   H4Y 7703   4.965   5.925  10.125  1.8553 -1.0688  0.1341
   82SAPS   C35 7704   5.062   6.070   9.983 -0.5011  0.3576  0.1422
   82SAPS   H5X 7705   5.163   6.025   9.977 -1.2848 -1.2296 -2.2739
   82SAPS   H5Y 7706   5.073   6.180   9.967 -0.7882  0.2320 -0.9709
   82SAPS   C36 7707   4.982   6.027   9.863 -0.3875 -0.2319 -0.1613
   82SAPS   H6X 7708   4.887   6.083   9.852 -1.4964 -2.0133 -0.0959
   82SAPS   H6Y 7709   4.947   5.924   9.882 -0.5442 -0.6839 -2.6432
   82SAPS   C37 7710   5.053   6.024   9.730  0.4737  0.6587  0.4606
   82SAPS   H7X 7711   5.142   5.959   9.748  1.0559  1.7083  1.4294
   82SAPS   H7Y 7712   5.096   6.123   9.705  1.0946  0.2366 -0.2254
   82SAPS   C38 7713   4.967   5.968   9.613 -0.3054 -0.4651 -0.3879
   82SAPS   H8X 7714   4.870   6.021   9.605 -1.4939 -2.7122 -1.4512
   82SAPS   H8Y 7715   4.936   5.864   9.632  3.6445 -1.5939  0.9091
   82SAPS   C39 7716   5.029   5.986   9.474 -0.1725  0.4248 -0.3474
   82SAPS   H9X 7717   5.110   5.911   9.462  0.0828  0.8797 -1.6889
   82SAPS   H9Y 7718   5.068   6.089   9.462 -1.0891  0.9799  1.1769
   82SAPS  C310 7719   4.922   5.949   9.368  0.1577 -0.2446 -0.8042
   82SAPS  H10X 7720   4.843   6.027   9.364 -1.1027 -1.3417  1.1542
   82SAPS  H10Y 7721   4.883   5.852   9.405  1.1702 -0.0554  0.8460
   82SAPS  C311 7722   4.970   5.916   9.231 -0.3946 -0.2826  0.2745
   82SAPS  H11X 7723   4.893   5.853   9.180  1.4310 -2.4044 -0.0318
   82SAPS  H11Y 7724   5.058   5.848   9.240  1.3566  1.2840 -3.0960
   82SAPS  C312 7725   4.998   6.036   9.138 -0.3312 -0.5612 -0.2203
   82SAPS  H12X 7726   5.086   6.093   9.173 -1.2709  1.2854 -0.7325
   82SAPS  H12Y 7727   4.913   6.107   9.143  0.4267  0.4618 -1.3361
   82SAPS  C313 7728   5.016   6.001   8.992 -0.0658  0.0946  0.3301
   82SAPS  H13X 7729   4.916   5.973   8.952 -0.6492 -0.8908  2.3533
   82SAPS  H13Y 7730   5.086   5.915   8.987  2.2317  1.9058 -0.3256
   82SAPS  C314 7731   5.074   6.110   8.897  0.1110 -0.4866  0.1903
   82SAPS  H14X 7732   5.170   6.145   8.940 -0.3747  3.9458 -1.7603
   82SAPS  H14Y 7733   4.993   6.183   8.920  0.6315 -0.1871  1.1473
   82SAPS  C315 7734   5.090   6.059   8.751  0.6223  0.3005  0.2195
   82SAPS  H15X 7735   4.999   6.010   8.712  0.5633  0.4059  0.2225
   82SAPS  H15Y 7736   5.175   5.988   8.744  1.5381  1.4964 -4.1372
   82SAPS  C316 7737   5.139   6.166   8.661 -0.5243  0.2200 -0.0114
   82SAPS  H16X 7738   5.245   6.190   8.685 -0.7240  0.1751  0.9564
   82SAPS  H16Y 7739   5.073   6.256   8.658 -0.8479 -0.0428 -1.5798
   82SAPS  C317 7740   5.119   6.126   8.507  0.0862 -0.5469 -0.6753
   82SAPS  H17X 7741   5.012   6.113   8.481 -0.5064  0.7050  0.9862
   82SAPS  H17Y 7742   5.185   6.038   8.488 -0.5613 -0.8365 -1.6605
   82SAPS  C318 7743   5.175   6.243   8.426  0.1606  0.2218  0.0587
   82SAPS  H18X 7744   5.106   6.330   8.426  2.2637  2.0243  2.4756
   82SAPS  H18Y 7745   5.202   6.212   8.322 -2.7712 -0.1571 -0.6884
   82SAPS  H18Z 7746   5.272   6.252   8.479 -1.1246 -1.5205  2.9812
   83SAPS     N 7747   0.489   5.515  11.440  0.2751 -0.1644  0.1559
   83SAPS   HN1 7748   0.519   5.508  11.539  2.4420 -4.7547 -0.5467
   83SAPS   HN2 7749   0.546   5.437  11.402 -0.5963 -1.3031  1.1256
   83SAPS   HN3 7750   0.506   5.608  11.395 -2.1723  0.0950 -0.3453
   83SAPS   C12 7751   0.345   5.486  11.421  0.2487 -0.5103  0.3212
   83SAPS  H12A 7752   0.333   5.432  11.328 -0.0674 -0.8241  0.5383
   83SAPS   C13 7753   0.283   5.405  11.537  0.1912  0.6171  0.1689
   83SAPS  O13A 7754   0.353   5.362  11.629  0.0162  0.2542  0.3767
   83SAPS  O13B 7755   0.160   5.406  11.548 -0.0362  0.3034  0.1300
   83SAPS   C11 7756   0.264   5.622  11.403 -0.0021 -0.0332 -0.4444
   83SAPS  H11A 7757   0.255   5.663  11.506 -1.0879 -1.1233 -0.0830
   83SAPS  H11B 7758   0.164   5.595  11.363  0.3769 -2.3249  0.0261
   83SAPS     P 7759   0.278   5.844  11.260  0.5120  0.4257  0.1178
   83SAPS   O13 7760   0.152   5.876  11.335  0.0442 -0.8048  0.4139
   83SAPS   O14 7761   0.383   5.948  11.261 -0.2942 -0.4170  0.2328
   83SAPS   O12 7762   0.336   5.708  11.315 -0.1195  0.1688 -0.5621
   83SAPS   O11 7763   0.240   5.811  11.118  0.2155 -1.0075 -0.3877
   83SAPS    C1 7764   0.281   5.690  11.055  0.0005 -0.2139 -0.6548
   83SAPS    HA 7765   0.389   5.675  11.074  0.0015 -0.2480 -0.6857
   83SAPS    HB 7766   0.220   5.607  11.098 -0.9744 -0.3097 -2.1173
   83SAPS    C2 7767   0.252   5.697  10.894 -0.4418  0.7579 -0.0508
   83SAPS    HS 7768   0.251   5.590  10.866  1.8921 -0.4296  3.6045
   83SAPS   O21 7769   0.350   5.775  10.816 -0.3933 -0.1082 -0.4652
   83SAPS   C21 7770   0.345   5.741  10.687 -0.6139  0.4864 -0.3180
   83SAPS   O22 7771   0.286   5.642  10.638 -0.4196  0.2404  0.0005
   83SAPS   C22 7772   0.442   5.831  10.611 -0.0596 -0.2078 -0.1788
   83SAPS   H2R 7773   0.381   5.918  10.579  1.3685  0.1183 -2.1943
   83SAPS   H2S 7774   0.526   5.853  10.681 -0.3371 -3.1481  1.2241
   83SAPS    C3 7775   0.109   5.767  10.883 -0.0821 -0.7865  0.1382
   83SAPS    HX 7776   0.113   5.877  10.900 -3.7648 -0.6216  0.8117
   83SAPS    HY 7777   0.051   5.740  10.974 -1.3552 -0.6477 -0.5989
   83SAPS   O31 7778   0.028   5.738  10.771 -0.1464  0.6982  0.3116
   83SAPS   C31 7779   0.035   5.827  10.671 -0.9091  0.2024  0.3587
   83SAPS   O32 7780   0.101   5.929  10.669  0.3093 -0.7518 -0.2201
   83SAPS   C32 7781  -0.054   5.781  10.556  0.5104  0.0036  0.1756
   83SAPS   H2X 7782  -0.151   5.831  10.577  0.4888 -0.6540  1.8000
   83SAPS   H2Y 7783  -0.074   5.672  10.567 -0.0390  0.2096  1.4024
   83SAPS   C23 7784   0.505   5.764  10.483 -0.3687  0.2593  0.2295
   83SAPS   H3R 7785   0.432   5.732  10.405  1.6473 -2.9549 -0.5228
   83SAPS   H3S 7786   0.551   5.665  10.505  1.1052  0.5906 -1.1877
   83SAPS   C24 7787   0.617   5.845  10.422  0.1272 -0.1418  0.3366
   83SAPS   H4R 7788   0.665   5.797  10.334 -1.5524 -0.4624 -0.4336
   83SAPS   H4S 7789   0.698   5.845  10.499  0.1654 -0.9201  0.2997
   83SAPS   C25 7790   0.584   5.986  10.385 -0.4439 -0.6898  0.3491
   83SAPS   H5R 7791   0.539   6.055  10.459 -0.9259  1.1285 -1.5597
   83SAPS   C26 7792   0.593   6.045  10.260  0.3105  0.0791  0.5799
   83SAPS   H6R 7793   0.554   6.147  10.248 -2.4916 -1.0093 -0.3796
   83SAPS   C27 7794   0.641   5.983  10.131 -0.0132 -0.2086 -0.6236
   83SAPS   H7R 7795   0.722   5.909  10.145 -0.7970 -0.7535  1.4647
   83SAPS   H7S 7796   0.687   6.060  10.065  0.7777 -1.7042 -1.8701
   83SAPS   C28 7797   0.516   5.922  10.065  0.7928 -0.0624  0.0414
   83SAPS   H8R 7798   0.475   5.832  10.114 -0.6672  0.0240 -0.9465
   83SAPS   C29 7799   0.465   5.966   9.952 -0.3315 -0.3994 -0.2125
   83SAPS   H9R 7800   0.369   5.924   9.919 -0.7273 -0.8901  1.4663
   83SAPS  C210 7801   0.510   6.089   9.880 -0.0536  0.0801 -0.6835
   83SAPS  H10R 7802   0.619   6.108   9.872 -0.1076  1.2741  0.9657
   83SAPS  H10S 7803   0.481   6.180   9.936  1.9903  0.6953 -0.5386
   83SAPS  C211 7804   0.434   6.096   9.742 -0.6763  0.8790 -0.5943
   83SAPS  H11R 7805   0.325   6.112   9.751 -0.8520 -0.0311 -0.9791
   83SAPS  C212 7806   0.484   6.094   9.617  0.2748 -1.0550 -0.4269
   83SAPS  H12R 7807   0.415   6.087   9.532 -1.7412  1.8207  0.8376
   83SAPS  C213 7808   0.629   6.093   9.583 -0.1422  0.1810  0.0318
   83SAPS  H13R 7809   0.638   6.043   9.484 -0.2630  1.7833 -0.8297
   83SAPS  H13S 7810   0.697   6.039   9.652  1.0210  1.3705 -0.1354
   83SAPS  C214 7811   0.679   6.231   9.582 -0.1197  1.4525 -0.2890
   83SAPS  H14R 7812   0.671   6.287   9.677 -1.6253  2.4915 -0.9871
   83SAPS  C215 7813   0.741   6.295   9.482 -0.1400 -0.7736  0.2805
   83SAPS  H15R 7814   0.791   6.389   9.510  4.3176 -2.4099 -1.3394
   83SAPS  C216 7815   0.754   6.248   9.340 -0.4265 -0.8349  0.5707
   83SAPS  H16R 7816   0.716   6.144   9.329 -3.5650  0.4054 -2.1067
   83SAPS  H16S 7817   0.862   6.241   9.315 -1.0498 -1.5888 -2.2064
   83SAPS  C217 7818   0.690   6.329   9.217 -0.4681  0.0144 -0.2508
   83SAPS  H17R 7819   0.742   6.427   9.207  2.2812 -1.1422  1.4895
   83SAPS  H17S 7820   0.580   6.343   9.227 -0.6227  0.4633 -2.1333
   83SAPS  C218 7821   0.707   6.243   9.087 -0.0795 -0.2663  0.3605
   83SAPS  H18R 7822   0.658   6.144   9.093 -0.0206 -0.2399  1.6197
   83SAPS  H18S 7823   0.812   6.232   9.053 -0.1578 -0.9046  0.3172
   83SAPS  C219 7824   0.635   6.311   8.964  0.7946  0.3665 -0.5587
   83SAPS  H19R 7825   0.693   6.403   8.940 -1.0392  1.4698 -0.9837
   83SAPS  H19S 7826   0.532   6.333   8.999  1.3794 -0.0038  1.4845
   83SAPS  C220 7827   0.643   6.223   8.842  0.0878  0.8604 -0.0967
   83SAPS  H20R 7828   0.749   6.206   8.814 -0.3135 -0.2768 -1.0224
   83SAPS  H20S 7829   0.591   6.282   8.764  1.0818 -0.0083 -1.4625
   83SAPS  H20T 7830   0.591   6.125   8.851  0.6751  0.6279  1.0232
   83SAPS   C33 7831  -0.014   5.802  10.412 -0.1297 -0.2986  0.4837
   83SAPS   H3X 7832   0.034   5.901  10.393 -1.4923  0.4171  0.6534
   83SAPS   H3Y 7833  -0.105   5.779  10.353  0.5884  0.6084 -1.0778
   83SAPS   C34 7834   0.080   5.693  10.359  0.5076  1.1336 -0.1019
   83SAPS   H4X 7835   0.028   5.597  10.337  1.4311  0.4486  0.6283
   83SAPS   H4Y 7836   0.159   5.688  10.437 -1.5276 -0.3523  1.9983
   83SAPS   C35 7837   0.157   5.732  10.230  0.6250  0.6777 -0.7341
   83SAPS   H5X 7838   0.230   5.649  10.214  0.3211  0.6947 -2.3175
   83SAPS   H5Y 7839   0.205   5.828  10.258 -0.3292  1.3335 -1.3152
   83SAPS   C36 7840   0.066   5.739  10.112 -0.3763  0.2894 -0.1274
   83SAPS   H6X 7841  -0.016   5.813  10.123 -2.1273 -1.6317  0.1693
   83SAPS   H6Y 7842   0.020   5.640  10.091 -0.1725  0.1067  0.2714
   83SAPS   C37 7843   0.139   5.781   9.986 -0.4814 -0.0835  0.8375
   83SAPS   H7X 7844   0.242   5.738   9.992 -0.7469 -1.1370 -1.3601
   83SAPS   H7Y 7845   0.152   5.889  10.007 -1.4156 -0.2760  2.5875
   83SAPS   C38 7846   0.062   5.769   9.856  0.7597  0.2970  0.5298
   83SAPS   H8X 7847  -0.046   5.791   9.875  0.0872 -1.6458 -0.7967
   83SAPS   H8Y 7848   0.065   5.662   9.828 -1.8612  0.2957 -0.0400
   83SAPS   C39 7849   0.123   5.859   9.748 -0.5387 -0.7596  0.4588
   83SAPS   H9X 7850   0.231   5.836   9.737 -0.0952  0.4288  1.9450
   83SAPS   H9Y 7851   0.120   5.968   9.771 -2.6840 -0.8378  0.8270
   83SAPS  C310 7852   0.064   5.824   9.617 -1.1142 -0.1942  0.4316
   83SAPS  H10X 7853  -0.046   5.808   9.617 -1.1097 -0.2256  0.5920
   83SAPS  H10Y 7854   0.108   5.728   9.584 -0.5442  0.2654 -0.1934
   83SAPS  C311 7855   0.092   5.939   9.505 -0.4356  1.0461 -0.1374
   83SAPS  H11X 7856   0.201   5.937   9.483 -0.2236 -2.1411  0.7887
   83SAPS  H11Y 7857   0.070   6.035   9.556 -1.5051  0.8593 -0.2277
   83SAPS  C312 7858   0.008   5.926   9.372  0.3345 -0.6018  0.0121
   83SAPS  H12X 7859  -0.025   6.028   9.343  2.0156  0.0462  0.2437
   83SAPS  H12Y 7860  -0.090   5.877   9.389 -1.0850  2.5050  1.5363
   83SAPS  C313 7861   0.097   5.859   9.259 -0.2578 -0.2280  0.1055
   83SAPS  H13X 7862   0.138   5.762   9.295  1.9910  1.2729  1.9155
   83SAPS  H13Y 7863   0.188   5.923   9.252  0.1599 -0.8207  0.0077
   83SAPS  C314 7864   0.025   5.838   9.128 -0.3466  0.2343  0.1033
   83SAPS  H14X 7865  -0.048   5.921   9.119 -0.5631  0.0828  0.4076
   83SAPS  H14Y 7866  -0.041   5.748   9.134 -0.5979  0.3395 -1.0306
   83SAPS  C315 7867   0.116   5.812   9.010  0.5478  0.2290 -0.3189
   83SAPS  H15X 7868   0.166   5.713   9.017 -0.6498 -0.3579  0.0832
   83SAPS  H15Y 7869   0.195   5.890   9.016 -1.3386  2.3521 -1.5334
   83SAPS  C316 7870   0.062   5.837   8.864  0.0934 -0.0425 -0.3407
   83SAPS  H16X 7871   0.140   5.855   8.787 -1.2855  1.2975 -1.5013
   83SAPS  H16Y 7872  -0.010   5.921   8.865 -2.7350 -2.3031  1.2341
   83SAPS  C317 7873  -0.032   5.723   8.825  0.5808  0.3188 -0.1392
   83SAPS  H17X 7874  -0.100   5.691   8.907 -0.1613  0.8504 -0.5232
   83SAPS  H17Y 7875   0.028   5.633   8.802  1.4412  0.6399  0.8045
   83SAPS  C318 7876  -0.118   5.749   8.702  0.0161  0.0928 -0.4740
   83SAPS  H18X 7877  -0.163   5.660   8.653  2.5364 -0.9271 -1.1378
   83SAPS  H18Y 7878  -0.054   5.791   8.621  0.8263  0.9207  0.5637
   83SAPS  H18Z 7879  -0.187   5.834   8.717  1.3547  0.8503  1.8961
   84SAPS     N 7880   3.017   1.846  11.304 -0.1657  0.6480  0.0994
   84SAPS   HN1 7881   3.078   1.762  11.312  2.3275  2.4786  2.1923
   84SAPS   HN2 7882   2.975   1.870  11.396  1.4089  0.8700  0.7967
   84SAPS   HN3 7883   2.944   1.834  11.232 -0.0457 -0.7188  0.1736
   84SAPS   C12 7884   3.085   1.965  11.266  0.1321 -0.1974 -0.4726
   84SAPS  H12A 7885   3.020   2.048  11.247  2.0709  1.0164 -2.1574
   84SAPS   C13 7886   3.176   2.022  11.378  0.5160 -0.5479 -0.1703
   84SAPS  O13A 7887   3.198   1.951  11.479  0.0541 -0.4564 -0.0253
   84SAPS  O13B 7888   3.248   2.125  11.350  0.0268 -0.3734 -0.0649
   84SAPS   C11 7889   3.174   1.950  11.138  0.9253 -0.2258  0.4548
   84SAPS  H11A 7890   3.210   2.052  11.115 -1.2619  0.7424  1.0520
   84SAPS  H11B 7891   3.108   1.919  11.053 -0.5264  1.2668  0.9957
   84SAPS     P 7892   3.392   1.847  11.038 -0.2465  0.0934 -0.0943
   84SAPS   O13 7893   3.431   1.989  11.014  0.3647  0.2055  0.0258
   84SAPS   O14 7894   3.483   1.746  11.092 -1.3340 -0.5166 -0.4966
   84SAPS   O12 7895   3.285   1.861  11.146 -0.1638  0.4733 -0.5569
   84SAPS   O11 7896   3.310   1.784  10.914  0.3556  0.1454 -0.9442
   84SAPS    C1 7897   3.262   1.869  10.809 -0.6143 -0.2594  0.0025
   84SAPS    HA 7898   3.200   1.952  10.849 -1.4724 -0.5309 -0.7136
   84SAPS    HB 7899   3.348   1.916  10.756 -1.1597  0.1160 -0.5763
   84SAPS    C2 7900   3.164   1.795  10.712  1.0340 -0.3277 -0.4159
   84SAPS    HS 7901   3.110   1.728  10.782  1.7509  0.4083  0.8837
   84SAPS   O21 7902   3.253   1.722  10.633  0.2527 -1.1727  0.2733
   84SAPS   C21 7903   3.201   1.632  10.554 -0.0018 -0.6996 -0.0886
   84SAPS   O22 7904   3.087   1.591  10.550  0.1713  0.5007 -0.1736
   84SAPS   C22 7905   3.312   1.581  10.459  0.4123 -0.6671  0.0003
   84SAPS   H2R 7906   3.386   1.525  10.519 -1.4850 -1.1691  1.9851
   84SAPS   H2S 7907   3.272   1.507  10.386 -0.7660 -1.8093  1.7518
   84SAPS    C3 7908   3.069   1.886  10.631 -0.1906  0.4606  0.1088
   84SAPS    HX 7909   2.996   1.926  10.704  0.8591  0.6312  1.1083
   84SAPS    HY 7910   3.021   1.824  10.553  1.3158 -0.5614 -0.0567
   84SAPS   O31 7911   3.135   1.994  10.559  0.5305 -0.0215 -0.3949
   84SAPS   C31 7912   3.090   2.122  10.567 -1.4124  0.3110  0.3947
   84SAPS   O32 7913   2.983   2.159  10.602 -0.1723  0.0784 -0.0024
   84SAPS   C32 7914   3.210   2.215  10.546 -0.0033  0.5176 -0.0898
   84SAPS   H2X 7915   3.289   2.185  10.617  0.0811  3.8598  1.4234
   84SAPS   H2Y 7916   3.188   2.318  10.580  0.9291  0.7517 -0.1809
   84SAPS   C23 7917   3.382   1.694  10.386 -0.6021 -0.3685 -0.0278
   84SAPS   H3R 7918   3.473   1.641  10.349 -1.7516 -0.6760 -2.6638
   84SAPS   H3S 7919   3.405   1.769  10.465  1.0622  1.4671 -2.0991
   84SAPS   C24 7920   3.309   1.759  10.265  0.3900  0.0130  0.8794
   84SAPS   H4R 7921   3.225   1.808  10.318  1.0111  0.5469  1.3934
   84SAPS   H4S 7922   3.256   1.690  10.196 -1.0365  1.0046  0.9298
   84SAPS   C25 7923   3.395   1.863  10.206  0.5161 -0.3478  0.4021
   84SAPS   H5R 7924   3.406   1.948  10.275  1.0025 -0.9724  1.1081
   84SAPS   C26 7925   3.446   1.860  10.082  0.5192  0.0875  0.1573
   84SAPS   H6R 7926   3.510   1.944  10.051  2.3900 -1.2936  0.0947
   84SAPS   C27 7927   3.432   1.764   9.970  0.4090  0.0081 -0.4250
   84SAPS   H7R 7928   3.457   1.817   9.875  1.6820 -0.2448 -0.2582
   84SAPS   H7S 7929   3.326   1.734   9.963  0.3727 -0.0322  0.2452
   84SAPS   C28 7930   3.519   1.641   9.976 -0.2276  0.9287 -0.1551
   84SAPS   H8R 7931   3.516   1.585  10.071 -0.6981  0.4590 -0.4348
   84SAPS   C29 7932   3.603   1.579   9.886 -0.1846 -0.8848  0.6096
   84SAPS   H9R 7933   3.657   1.490   9.923 -0.4052 -0.8409  1.0501
   84SAPS  C210 7934   3.635   1.621   9.741 -0.0427 -0.0898  0.0640
   84SAPS  H10R 7935   3.739   1.590   9.717 -0.5974 -1.6845 -0.3786
   84SAPS  H10S 7936   3.626   1.730   9.720 -0.7935 -0.3779 -1.2781
   84SAPS  C211 7937   3.554   1.542   9.636 -1.0677 -0.1867 -0.1062
   84SAPS  H11R 7938   3.552   1.433   9.655 -0.2059 -0.2600 -0.3997
   84SAPS  C212 7939   3.491   1.584   9.524  0.6219 -0.1865  0.3170
   84SAPS  H12R 7940   3.442   1.501   9.470  1.7151 -2.1141  2.1206
   84SAPS  C213 7941   3.481   1.723   9.463  0.0626 -0.0497 -0.2056
   84SAPS  H13R 7942   3.545   1.801   9.510  1.8811 -1.7937  0.3380
   84SAPS  H13S 7943   3.377   1.759   9.475 -1.0512 -2.1871 -2.4997
   84SAPS  C214 7944   3.511   1.726   9.316 -0.3909 -0.0406  0.0147
   84SAPS  H14R 7945   3.617   1.729   9.289 -0.6357  1.0037 -0.8906
   84SAPS  C215 7946   3.419   1.721   9.218 -0.7897  0.6323 -0.0019
   84SAPS  H15R 7947   3.460   1.723   9.116 -0.2363  1.0554  0.2298
   84SAPS  C216 7948   3.272   1.696   9.234  0.0444  0.4626 -0.4063
   84SAPS  H16R 7949   3.252   1.685   9.342  1.8384  1.2949  0.0487
   84SAPS  H16S 7950   3.239   1.607   9.176 -4.3557  0.8152  1.1667
   84SAPS  C217 7951   3.179   1.808   9.181 -0.0992  0.0815 -0.0936
   84SAPS  H17R 7952   3.189   1.896   9.249 -0.0151 -0.7364  0.9729
   84SAPS  H17S 7953   3.072   1.784   9.197 -1.0308  3.2666 -0.7700
   84SAPS  C218 7954   3.199   1.853   9.036  0.0908  0.1476 -0.3794
   84SAPS  H18R 7955   3.175   1.759   8.982 -0.2474  0.8187 -1.4296
   84SAPS  H18S 7956   3.306   1.877   9.016  0.5683 -0.6392  1.1005
   84SAPS  C219 7957   3.091   1.953   8.986 -0.1073  1.2315  0.2452
   84SAPS  H19R 7958   3.106   2.055   9.027  0.9248  0.6295  1.4411
   84SAPS  H19S 7959   2.989   1.917   9.009  0.4197 -2.4249 -2.2966
   84SAPS  C220 7960   3.098   1.969   8.832  0.2239  0.3589 -0.1328
   84SAPS  H20R 7961   3.195   2.017   8.808 -0.3989  0.7705 -1.9465
   84SAPS  H20S 7962   3.022   2.041   8.795  0.1035  1.3968  1.9886
   84SAPS  H20T 7963   3.080   1.877   8.772 -2.2374  1.2464 -0.8737
   84SAPS   C33 7964   3.268   2.212  10.403  0.6312  0.5961  0.0164
   84SAPS   H3X 7965   3.256   2.113  10.353 -1.0442  1.5343 -1.6067
   84SAPS   H3Y 7966   3.375   2.243  10.407  0.6052  1.0777 -1.8256
   84SAPS   C34 7967   3.192   2.308  10.314  0.3515 -0.4819 -0.4725
   84SAPS   H4X 7968   3.185   2.410  10.357 -2.4288 -0.6973 -0.2364
   84SAPS   H4Y 7969   3.085   2.279  10.305 -0.8344  2.7779  1.3036
   84SAPS   C35 7970   3.242   2.329  10.170 -0.3730  0.8543  0.5389
   84SAPS   H5X 7971   3.319   2.409  10.166 -0.9954  1.5572  1.9585
   84SAPS   H5Y 7972   3.168   2.380  10.105 -1.8990  0.7229  2.1102
   84SAPS   C36 7973   3.293   2.213  10.081 -0.1533 -0.3750 -0.0662
   84SAPS   H6X 7974   3.227   2.124  10.074 -2.0816  0.6686  2.8306
   84SAPS   H6Y 7975   3.384   2.181  10.137  0.1240  0.9096  0.2561
   84SAPS   C37 7976   3.330   2.254   9.938 -0.2620  0.1505  0.1128
   84SAPS   H7X 7977   3.388   2.348   9.931  0.9402 -0.6639 -1.6767
   84SAPS   H7Y 7978   3.235   2.296   9.901  0.3748  2.1980  0.6939
   84SAPS   C38 7979   3.361   2.147   9.834 -0.5508 -1.0210 -0.1492
   84SAPS   H8X 7980   3.278   2.074   9.827 -0.9312 -0.5894 -0.1123
   84SAPS   H8Y 7981   3.456   2.092   9.853 -0.7971 -1.1501  0.7509
   84SAPS   C39 7982   3.398   2.205   9.693  0.2958  0.1936  0.8999
   84SAPS   H9X 7983   3.428   2.123   9.625  3.0970  0.2877  1.9108
   84SAPS   H9Y 7984   3.495   2.258   9.699 -0.2047  1.1765  0.6748
   84SAPS  C310 7985   3.289   2.288   9.616  0.3893 -0.4202  0.7631
   84SAPS  H10X 7986   3.296   2.391   9.658 -2.4482  1.5125 -2.9111
   84SAPS  H10Y 7987   3.182   2.265   9.637 -0.4550  0.4469 -2.1221
   84SAPS  C311 7988   3.301   2.300   9.464  0.5571 -0.1899 -0.2033
   84SAPS  H11X 7989   3.367   2.387   9.440  2.2046 -1.4623 -0.4728
   84SAPS  H11Y 7990   3.197   2.324   9.432  0.6762 -0.8371 -1.1060
   84SAPS  C312 7991   3.333   2.179   9.379  0.0684 -0.6032 -0.0576
   84SAPS  H12X 7992   3.265   2.096   9.406  0.0310 -1.0344 -1.3946
   84SAPS  H12Y 7993   3.430   2.132   9.403  0.8983  1.9341  2.0278
   84SAPS  C313 7994   3.312   2.205   9.230 -0.8607  0.0591  0.0026
   84SAPS  H13X 7995   3.252   2.298   9.220 -0.9252  0.2967  2.1629
   84SAPS  H13Y 7996   3.258   2.121   9.182 -1.1371  1.2612 -1.8729
   84SAPS  C314 7997   3.448   2.224   9.162  0.5656 -0.6899  0.8184
   84SAPS  H14X 7998   3.497   2.124   9.166  1.3177 -0.3212  0.8527
   84SAPS  H14Y 7999   3.502   2.296   9.227  1.5680 -0.9015  0.2351
   84SAPS  C315 8000   3.427   2.267   9.015 -0.0239  0.1924  0.4577
   84SAPS  H15X 8001   3.401   2.375   9.013  0.6933  0.4604 -3.9466
   84SAPS  H15Y 8002   3.336   2.220   8.972  1.6130 -1.5810 -1.2796
   84SAPS  C316 8003   3.544   2.239   8.924 -0.0907  0.1239 -0.1224
   84SAPS  H16X 8004   3.584   2.136   8.922  1.0845  0.5681 -0.8318
   84SAPS  H16Y 8005   3.631   2.303   8.950  0.8300 -1.2579  0.3000
   84SAPS  C317 8006   3.524   2.279   8.775 -0.6845 -0.3988  0.1718
   84SAPS  H17X 8007   3.501   2.386   8.756 -1.7011 -0.7873 -0.9187
   84SAPS  H17Y 8008   3.434   2.225   8.739 -0.7333  0.3510 -0.8697
   84SAPS  C318 8009   3.640   2.252   8.675 -0.4344 -0.3234  0.2006
   84SAPS  H18X 8010   3.719   2.327   8.695  2.1648 -2.1073 -2.4844
   84SAPS  H18Y 8011   3.612   2.285   8.573  0.1093  1.8404  0.7183
   84SAPS  H18Z 8012   3.668   2.144   8.675 -3.3696 -1.1963  0.4329
   85SAPS     N 8013   6.586   2.921  11.101  0.2728 -0.3611 -0.0006
   85SAPS   HN1 8014   6.537   2.859  11.035  1.0543 -1.0233  0.0209
   85SAPS   HN2 8015   6.530   3.008  11.116 -0.4053 -0.3082 -2.4290
   85SAPS   HN3 8016   6.677   2.955  11.063  1.2363  0.2820  2.6521
   85SAPS   C12 8017   6.632   2.841  11.213 -0.2692 -0.2403 -0.1668
   85SAPS  H12A 8018   6.735   2.863  11.235  0.0137 -1.3282 -0.3598
   85SAPS   C13 8019   6.558   2.863  11.339 -0.0655  0.2928 -0.2407
   85SAPS  O13A 8020   6.490   2.964  11.351  0.2948 -0.0665  0.1090
   85SAPS  O13B 8021   6.588   2.786  11.441 -0.0656  0.1020 -0.0810
   85SAPS   C11 8022   6.615   2.689  11.178  0.0860 -0.4876  0.7876
   85SAPS  H11A 8023   6.511   2.654  11.193 -0.1264  0.5122  1.7757
   85SAPS  H11B 8024   6.667   2.629  11.255 -1.1721 -2.6015  0.0599
   85SAPS     P 8025   6.829   2.656  11.024  0.2591  0.2522  0.2282
   85SAPS   O13 8026   6.900   2.722  11.133 -0.0687 -0.6905  0.4814
   85SAPS   O14 8027   6.864   2.512  10.995 -0.4251 -0.4223 -0.2031
   85SAPS   O12 8028   6.670   2.660  11.054 -0.1720 -0.0603 -0.4076
   85SAPS   O11 8029   6.845   2.740  10.895 -0.0941  0.1061  0.4095
   85SAPS    C1 8030   6.756   2.728  10.791  0.0508  0.0448  0.4690
   85SAPS    HA 8031   6.648   2.730  10.817 -0.1268  1.8707 -0.2761
   85SAPS    HB 8032   6.773   2.819  10.731  3.0529  0.4089  1.6958
   85SAPS    C2 8033   6.786   2.617  10.680  0.4210  0.2836 -0.0099
   85SAPS    HS 8034   6.794   2.521  10.735 -0.1244  0.9192  1.2261
   85SAPS   O21 8035   6.909   2.663  10.612  0.1119  0.8207 -0.4502
   85SAPS   C21 8036   6.987   2.562  10.568  0.9587  0.0569 -0.0936
   85SAPS   O22 8037   6.980   2.447  10.601 -0.3947  0.3412 -0.1722
   85SAPS   C22 8038   7.090   2.626  10.466 -0.9854 -0.5466  1.0454
   85SAPS   H2R 8039   7.055   2.730  10.445 -3.8251 -1.6663 -0.2623
   85SAPS   H2S 8040   7.186   2.636  10.522  0.0221  0.1820 -0.7196
   85SAPS    C3 8041   6.671   2.610  10.577  0.4765 -0.2856  0.5498
   85SAPS    HX 8042   6.668   2.706  10.521 -2.9694 -2.2226 -3.1464
   85SAPS    HY 8043   6.572   2.604  10.627  0.0344 -1.3127 -0.3935
   85SAPS   O31 8044   6.687   2.499  10.485  0.0769 -0.0311  0.3349
   85SAPS   C31 8045   6.608   2.503  10.380 -0.1876  0.2687 -0.2968
   85SAPS   O32 8046   6.522   2.588  10.360 -0.1382 -0.2951  0.0772
   85SAPS   C32 8047   6.638   2.386  10.288  0.1178 -0.2339 -0.4770
   85SAPS   H2X 8048   6.684   2.305  10.349 -2.5174 -1.2123  0.3244
   85SAPS   H2Y 8049   6.710   2.426  10.213 -0.4309  1.8090  0.0264
   85SAPS   C23 8050   7.103   2.535  10.340 -0.4116 -0.0449 -0.0455
   85SAPS   H3R 8051   7.139   2.438  10.378  2.4836  0.7148 -0.6194
   85SAPS   H3S 8052   7.182   2.584  10.279 -2.8479  0.4814 -3.0453
   85SAPS   C24 8053   6.965   2.527  10.269 -0.3327  0.4613  0.1189
   85SAPS   H4R 8054   6.893   2.491  10.346 -0.0882  0.9717  0.6001
   85SAPS   H4S 8055   6.964   2.450  10.189  1.7237  1.0823 -0.5800
   85SAPS   C25 8056   6.925   2.659  10.214  0.1843  0.1951 -0.2617
   85SAPS   H5R 8057   6.894   2.729  10.293  0.7240  1.8193 -1.4443
   85SAPS   C26 8058   6.938   2.713  10.091  0.7006 -0.0331  0.6572
   85SAPS   H6R 8059   6.914   2.820  10.081  1.9226  0.2970  1.0278
   85SAPS   C27 8060   6.993   2.639   9.971 -0.0233 -0.0372  0.4702
   85SAPS   H7R 8061   7.056   2.554  10.004 -0.3120 -0.4210  0.0490
   85SAPS   H7S 8062   7.057   2.708   9.913 -0.8558  1.5670  1.3847
   85SAPS   C28 8063   6.875   2.591   9.891 -0.0113 -0.1770  0.8332
   85SAPS   H8R 8064   6.827   2.502   9.935 -0.6788 -0.1731  0.1285
   85SAPS   C29 8065   6.820   2.641   9.776  0.3031  0.3815 -0.1345
   85SAPS   H9R 8066   6.732   2.597   9.728  0.4770 -0.4066  0.2574
   85SAPS  C210 8067   6.870   2.766   9.704 -0.1431  0.6059 -0.0405
   85SAPS  H10R 8068   6.943   2.727   9.629 -1.4574 -1.6050 -0.2695
   85SAPS  H10S 8069   6.934   2.822   9.775 -0.1483 -0.3684  0.7508
   85SAPS  C211 8070   6.760   2.848   9.646 -0.5809 -0.4022 -0.0820
   85SAPS  H11R 8071   6.715   2.809   9.553 -0.9363 -0.2784  0.0367
   85SAPS  C212 8072   6.710   2.960   9.694  0.5848  0.8777 -0.7633
   85SAPS  H12R 8073   6.612   2.993   9.657  0.4010 -1.6863 -2.8292
   85SAPS  C213 8074   6.754   3.040   9.816 -0.7490  0.4658 -0.1927
   85SAPS  H13R 8075   6.843   3.101   9.792 -0.9979  0.9432  0.0923
   85SAPS  H13S 8076   6.799   2.971   9.890  0.2612  3.3861  2.1239
   85SAPS  C214 8077   6.644   3.114   9.892  0.0544  0.0126  0.3710
   85SAPS  H14R 8078   6.654   3.224   9.897 -0.4866  0.1477 -1.0307
   85SAPS  C215 8079   6.556   3.052   9.971 -0.2792 -0.0168 -0.3817
   85SAPS  H15R 8080   6.478   3.111  10.022 -0.2160 -0.6084  0.4057
   85SAPS  C216 8081   6.545   2.902   9.995 -0.5310 -0.5349  0.9752
   85SAPS  H16R 8082   6.542   2.879  10.103 -1.9811  3.0581  1.8666
   85SAPS  H16S 8083   6.641   2.854   9.966  0.3478  1.4063  0.5171
   85SAPS  C217 8084   6.433   2.839   9.922 -0.6208  0.3177  0.1693
   85SAPS  H17R 8085   6.449   2.730   9.924  0.9670  0.5340  1.3437
   85SAPS  H17S 8086   6.438   2.860   9.813  0.9019  0.4494  0.2437
   85SAPS  C218 8087   6.285   2.874   9.958 -0.7674  0.1879  0.8649
   85SAPS  H18R 8088   6.227   2.826   9.876 -0.3643 -0.5628  1.0161
   85SAPS  H18S 8089   6.274   2.984   9.947 -2.6108 -0.0889 -0.7249
   85SAPS  C219 8090   6.244   2.844  10.104  0.4106 -0.2177  0.4156
   85SAPS  H19R 8091   6.145   2.894  10.112  0.9330  0.4957  3.6032
   85SAPS  H19S 8092   6.309   2.908  10.166  1.2454 -0.0461 -0.5960
   85SAPS  C220 8093   6.225   2.698  10.144  0.2543 -0.4111 -0.7257
   85SAPS  H20R 8094   6.146   2.649  10.083 -0.7671 -0.4137  0.5431
   85SAPS  H20S 8095   6.222   2.679  10.254 -0.0420  2.7659 -0.0913
   85SAPS  H20T 8096   6.317   2.645  10.111 -1.0714 -3.0363 -0.5270
   85SAPS   C33 8097   6.506   2.325  10.229  0.3791  1.0184  0.8763
   85SAPS   H3X 8098   6.427   2.327  10.307  0.7889  4.5376  1.3525
   85SAPS   H3Y 8099   6.527   2.219  10.200  1.8665  1.4677  0.2238
   85SAPS   C34 8100   6.470   2.394  10.097 -0.2284  0.3164  0.5549
   85SAPS   H4X 8101   6.491   2.503  10.105 -2.3206  0.6490  2.6807
   85SAPS   H4Y 8102   6.360   2.395  10.079  0.1684 -0.8070 -2.6521
   85SAPS   C35 8103   6.533   2.338   9.966 -0.3484  0.0136  0.0890
   85SAPS   H5X 8104   6.522   2.228   9.958  4.0858 -0.6670  0.7506
   85SAPS   H5Y 8105   6.642   2.356   9.971 -0.9639  4.4491  2.7089
   85SAPS   C36 8106   6.467   2.415   9.851 -0.0234 -0.3989 -0.2610
   85SAPS   H6X 8107   6.492   2.523   9.855 -0.4888 -0.3135  1.2719
   85SAPS   H6Y 8108   6.359   2.398   9.874  0.4414 -0.5820  2.0998
   85SAPS   C37 8109   6.480   2.356   9.714  0.1391  0.2714  0.0717
   85SAPS   H7X 8110   6.418   2.268   9.689  2.5856 -1.2947 -0.9287
   85SAPS   H7Y 8111   6.583   2.323   9.689  0.7260  1.1502  1.2302
   85SAPS   C38 8112   6.423   2.459   9.614  0.6879  0.5429 -0.4197
   85SAPS   H8X 8113   6.479   2.555   9.610 -1.9163  2.1843 -0.3411
   85SAPS   H8Y 8114   6.325   2.491   9.657  0.8510  1.3428 -0.6251
   85SAPS   C39 8115   6.393   2.400   9.478 -0.0228  0.5632  0.5022
   85SAPS   H9X 8116   6.334   2.306   9.469  1.9414 -0.6275 -0.8119
   85SAPS   H9Y 8117   6.494   2.360   9.456  0.1777  0.4006  1.6685
   85SAPS  C310 8118   6.330   2.498   9.381  0.6277 -0.4064  0.1889
   85SAPS  H10X 8119   6.385   2.594   9.385  1.8769 -1.1128  4.1226
   85SAPS  H10Y 8120   6.222   2.512   9.403 -0.3879 -1.4607 -3.3878
   85SAPS  C311 8121   6.328   2.440   9.241  0.0647 -0.4619 -0.4853
   85SAPS  H11X 8122   6.279   2.340   9.234  0.8086 -0.7847 -1.3655
   85SAPS  H11Y 8123   6.432   2.427   9.202  0.0326 -0.2167 -0.6516
   85SAPS  C312 8124   6.253   2.534   9.139 -0.4311  0.8312 -0.3201
   85SAPS  H12X 8125   6.317   2.623   9.124 -0.0747  0.1838 -3.4549
   85SAPS  H12Y 8126   6.164   2.566   9.198  0.4984  2.1847  0.3971
   85SAPS  C313 8127   6.220   2.476   8.999  0.1540  0.0361 -0.0991
   85SAPS  H13X 8128   6.170   2.564   8.954 -0.3576 -0.2661 -0.1284
   85SAPS  H13Y 8129   6.141   2.398   9.001 -1.9395  1.8757 -2.8638
   85SAPS  C314 8130   6.340   2.424   8.919 -0.9743 -0.4393 -0.4645
   85SAPS  H14X 8131   6.383   2.337   8.974  0.1309  2.0220  2.9406
   85SAPS  H14Y 8132   6.421   2.500   8.922 -0.6690 -0.7880  0.7375
   85SAPS  C315 8133   6.316   2.398   8.774 -0.6447 -0.5453  0.2980
   85SAPS  H15X 8134   6.238   2.461   8.725 -2.6205 -3.6650 -0.8963
   85SAPS  H15Y 8135   6.273   2.296   8.769  1.9821 -1.8748  2.4811
   85SAPS  C316 8136   6.441   2.392   8.681 -0.0959  0.0550 -0.3577
   85SAPS  H16X 8137   6.473   2.493   8.650 -1.9755  0.7378 -0.2125
   85SAPS  H16Y 8138   6.397   2.349   8.588 -2.3280  0.2892  0.5196
   85SAPS  C317 8139   6.544   2.297   8.734 -0.8238 -0.1928 -0.3393
   85SAPS  H17X 8140   6.505   2.200   8.771  0.6323 -0.2906  1.0563
   85SAPS  H17Y 8141   6.593   2.351   8.818 -0.5890 -0.8130 -0.0744
   85SAPS  C318 8142   6.649   2.267   8.635 -0.7818  0.0623 -0.3763
   85SAPS  H18X 8143   6.599   2.237   8.541 -0.7116 -0.4204 -0.2609
   85SAPS  H18Y 8144   6.706   2.178   8.670 -1.9095 -0.1623  0.9726
   85SAPS  H18Z 8145   6.716   2.354   8.615  0.2575 -0.5067  0.5346
   86SAPS     N 8146   2.845   1.347  11.312  0.0684  0.5870 -0.8483
   86SAPS   HN1 8147   2.850   1.399  11.222 -0.9038 -0.0938 -1.3131
   86SAPS   HN2 8148   2.843   1.423  11.382  0.8299 -0.4664  0.3679
   86SAPS   HN3 8149   2.934   1.293  11.312 -0.9831 -1.3430  1.2501
   86SAPS   C12 8150   2.710   1.277  11.306  0.2298  0.0149 -0.3258
   86SAPS  H12A 8151   2.686   1.234  11.403  1.4888 -2.0871 -0.8864
   86SAPS   C13 8152   2.588   1.372  11.263  0.7045  0.1186  0.5002
   86SAPS  O13A 8153   2.604   1.495  11.274  0.6406  0.0616 -0.0345
   86SAPS  O13B 8154   2.473   1.313  11.259  0.0768 -0.5764  0.2673
   86SAPS   C11 8155   2.713   1.164  11.199  0.7056 -0.0482  0.0313
   86SAPS  H11A 8156   2.714   1.200  11.094 -1.3066 -1.3440 -0.4941
   86SAPS  H11B 8157   2.614   1.114  11.207  0.9730 -0.3757  1.7927
   86SAPS     P 8158   2.827   0.938  11.150 -0.2658 -0.4968  0.4555
   86SAPS   O13 8159   2.951   0.866  11.180 -0.0473  0.5061  0.4435
   86SAPS   O14 8160   2.690   0.877  11.168  0.2946  0.0451 -0.2673
   86SAPS   O12 8161   2.812   1.071  11.233 -0.4721 -0.1573 -0.2183
   86SAPS   O11 8162   2.842   0.979  10.999  0.0409 -0.4601  0.3672
   86SAPS    C1 8163   2.925   1.091  10.951 -0.1994 -0.1259 -0.6617
   86SAPS    HA 8164   2.877   1.187  10.976  0.1463 -0.6128  2.2912
   86SAPS    HB 8165   3.020   1.098  11.008 -0.6864 -1.0653  0.2957
   86SAPS    C2 8166   2.948   1.079  10.797  0.0603  0.3932  0.2997
   86SAPS    HS 8167   3.005   1.164  10.755  1.1729 -0.8435 -0.7807
   86SAPS   O21 8168   2.818   1.074  10.724 -0.6255 -0.2513 -0.4009
   86SAPS   C21 8169   2.766   1.198  10.700  0.5242  0.1929 -0.1064
   86SAPS   O22 8170   2.830   1.304  10.722  0.6096  0.4499 -0.3363
   86SAPS   C22 8171   2.624   1.182  10.639 -0.6160  0.3103  0.3005
   86SAPS   H2R 8172   2.576   1.094  10.688  0.4284  0.2806  1.3229
   86SAPS   H2S 8173   2.564   1.269  10.671  0.0277  1.2889 -1.0800
   86SAPS    C3 8174   3.032   0.953  10.773  0.9514  0.7747 -0.0357
   86SAPS    HX 8175   2.985   0.880  10.842  0.1436  0.7957 -0.5532
   86SAPS    HY 8176   3.137   0.965  10.806  1.8517 -1.8586 -1.6424
   86SAPS   O31 8177   3.030   0.911  10.636  0.4635 -0.6007  0.2944
   86SAPS   C31 8178   2.948   0.813  10.598 -0.1847  0.2926  0.0797
   86SAPS   O32 8179   2.873   0.748  10.665  0.3304 -0.2754 -0.2032
   86SAPS   C32 8180   2.966   0.790  10.448 -0.0556  0.0787  0.6839
   86SAPS   H2X 8181   3.062   0.734  10.443 -0.9482 -1.4474  0.0283
   86SAPS   H2Y 8182   2.983   0.893  10.410 -0.1541  0.0439  0.5464
   86SAPS   C23 8183   2.617   1.166  10.480  0.5739 -0.2346  0.2258
   86SAPS   H3R 8184   2.514   1.149  10.443  1.2330  1.4452 -2.7210
   86SAPS   H3S 8185   2.680   1.083  10.440  1.0231 -0.6619  1.7616
   86SAPS   C24 8186   2.658   1.296  10.405  0.0232 -0.3927  0.4130
   86SAPS   H4R 8187   2.655   1.265  10.299 -0.4011 -0.8341  0.5453
   86SAPS   H4S 8188   2.764   1.313  10.435 -0.0662 -0.0126  0.5179
   86SAPS   C25 8189   2.560   1.403  10.436 -0.4905  0.7215 -0.1113
   86SAPS   H5R 8190   2.599   1.481  10.502 -0.6028  1.3439 -0.7646
   86SAPS   C26 8191   2.439   1.421  10.379 -0.2798 -0.5337 -0.1235
   86SAPS   H6R 8192   2.374   1.502  10.415 -1.1126  0.0212 -2.6783
   86SAPS   C27 8193   2.377   1.339  10.271  0.0237 -0.0979  1.0281
   86SAPS   H7R 8194   2.430   1.243  10.251 -1.1657 -0.0142 -3.7320
   86SAPS   H7S 8195   2.388   1.407  10.184  2.4334 -1.1196  0.4475
   86SAPS   C28 8196   2.236   1.312  10.301  0.3957  0.0125  0.1399
   86SAPS   H8R 8197   2.209   1.286  10.404  0.5538 -1.2445 -0.1195
   86SAPS   C29 8198   2.131   1.315  10.217  0.2695  0.9443 -0.4319
   86SAPS   H9R 8199   2.031   1.278  10.243 -0.1972  1.7594 -1.0578
   86SAPS  C210 8200   2.135   1.351  10.069 -0.2616 -0.2321 -0.2482
   86SAPS  H10R 8201   2.061   1.288  10.014  0.4610 -0.7652 -0.6255
   86SAPS  H10S 8202   2.234   1.318  10.030  0.1258  0.0996  0.4553
   86SAPS  C211 8203   2.121   1.495  10.028  0.4579  0.4548 -0.9018
   86SAPS  H11R 8204   2.124   1.570  10.109  1.2489 -1.0319  0.5050
   86SAPS  C212 8205   2.116   1.537   9.898 -0.3663  0.7652 -0.3352
   86SAPS  H12R 8206   2.113   1.645   9.875 -1.4621  0.9428  0.5203
   86SAPS  C213 8207   2.124   1.455   9.777 -0.2797 -0.2774 -0.1689
   86SAPS  H13R 8208   2.052   1.505   9.708 -0.4207 -0.9919 -0.5512
   86SAPS  H13S 8209   2.086   1.352   9.796  0.2629 -0.7188 -1.3517
   86SAPS  C214 8210   2.259   1.446   9.716 -0.1062  0.0515 -0.6043
   86SAPS  H14R 8211   2.335   1.473   9.791 -0.9195  0.3484  0.1262
   86SAPS  C215 8212   2.296   1.400   9.597  0.3318 -0.6259  0.9362
   86SAPS  H15R 8213   2.401   1.372   9.580  0.0680 -1.2043  0.2170
   86SAPS  C216 8214   2.203   1.351   9.489 -0.2583  0.8529 -0.5111
   86SAPS  H16R 8215   2.095   1.374   9.505 -1.2249 -2.4837 -1.3814
   86SAPS  H16S 8216   2.221   1.241   9.494  2.7723  1.2905  4.0071
   86SAPS  C217 8217   2.237   1.389   9.344 -0.2081  0.0556 -0.4847
   86SAPS  H17R 8218   2.327   1.328   9.320  1.2273  1.4503  0.9919
   86SAPS  H17S 8219   2.281   1.490   9.328  0.8024 -0.5392 -1.5868
   86SAPS  C218 8220   2.132   1.348   9.237  0.1381  0.2421 -0.6342
   86SAPS  H18R 8221   2.032   1.389   9.263  1.9557  3.3253  2.2210
   86SAPS  H18S 8222   2.123   1.237   9.229 -1.4882  0.3575 -0.8273
   86SAPS  C219 8223   2.176   1.408   9.098 -0.2122 -0.0157  0.1611
   86SAPS  H19R 8224   2.285   1.389   9.087 -0.0865  0.2399  0.9087
   86SAPS  H19S 8225   2.170   1.519   9.107  2.2867  0.3158 -1.2874
   86SAPS  C220 8226   2.088   1.351   8.994  0.4531 -0.5989  0.6913
   86SAPS  H20R 8227   1.993   1.407   8.990  0.1445 -1.0569  1.3957
   86SAPS  H20S 8228   2.086   1.240   8.998 -0.7968 -0.5703  1.3730
   86SAPS  H20T 8229   2.121   1.357   8.888 -0.1994  0.7386  0.5469
   86SAPS   C33 8230   2.853   0.715  10.376 -0.1196  0.1011  0.1488
   86SAPS   H3X 8231   2.760   0.775  10.386 -1.7086 -2.2549  0.4230
   86SAPS   H3Y 8232   2.831   0.622  10.434  0.3576 -0.4031 -0.4660
   86SAPS   C34 8233   2.881   0.689  10.226  0.2825  0.1307 -0.2589
   86SAPS   H4X 8234   2.791   0.638  10.186  0.2551 -1.5284  1.7439
   86SAPS   H4Y 8235   2.972   0.625  10.217  0.4992  0.4969 -0.7086
   86SAPS   C35 8236   2.894   0.813  10.139  0.2591 -0.3513 -0.1212
   86SAPS   H5X 8237   2.986   0.871  10.163 -0.8520  2.6535 -2.4746
   86SAPS   H5Y 8238   2.817   0.887  10.170 -0.3222 -0.7592 -0.5733
   86SAPS   C36 8239   2.880   0.775   9.989  0.3348 -0.4018 -0.3792
   86SAPS   H6X 8240   2.771   0.764   9.974 -0.1746  1.7847  1.1871
   86SAPS   H6Y 8241   2.933   0.681   9.964  2.1421 -0.0691  1.8697
   86SAPS   C37 8242   2.907   0.879   9.880 -0.2419  0.5570  0.2435
   86SAPS   H7X 8243   3.014   0.909   9.889 -0.6685  1.7463  1.7149
   86SAPS   H7Y 8244   2.840   0.964   9.903 -0.4827  0.5998 -0.5770
   86SAPS   C38 8245   2.872   0.831   9.734  0.0604  1.0204  0.2491
   86SAPS   H8X 8246   2.766   0.799   9.725 -0.4648  3.1217 -2.4502
   86SAPS   H8Y 8247   2.937   0.744   9.710  0.4476  1.7518 -1.4716
   86SAPS   C39 8248   2.886   0.935   9.623 -0.2723 -0.0146 -0.6975
   86SAPS   H9X 8249   2.994   0.960   9.622 -0.0226 -0.7562  1.6900
   86SAPS   H9Y 8250   2.815   1.015   9.650 -1.6136 -1.3472 -0.1262
   86SAPS  C310 8251   2.840   0.882   9.486  0.5800 -0.3586  0.0801
   86SAPS  H10X 8252   2.732   0.856   9.495  0.9672 -2.3879 -0.6785
   86SAPS  H10Y 8253   2.895   0.789   9.458 -0.4363 -1.4787  1.6412
   86SAPS  C311 8254   2.864   0.968   9.363 -0.7953  0.0541 -0.2556
   86SAPS  H11X 8255   2.969   0.968   9.329  0.0302  2.5760  1.9502
   86SAPS  H11Y 8256   2.839   1.076   9.373  0.9211  0.3649  1.1334
   86SAPS  C312 8257   2.780   0.906   9.252 -0.4214 -0.1329 -0.6250
   86SAPS  H12X 8258   2.674   0.923   9.281  0.2882  2.8897  0.5630
   86SAPS  H12Y 8259   2.800   0.797   9.262  4.6696  0.6292  0.1750
   86SAPS  C313 8260   2.817   0.953   9.115  0.3722 -0.4116  0.0874
   86SAPS  H13X 8261   2.761   0.890   9.042 -2.7022  1.2953  0.8186
   86SAPS  H13Y 8262   2.927   0.942   9.107  1.1688  2.7903  3.6189
   86SAPS  C314 8263   2.782   1.101   9.095 -0.3140 -0.0934 -0.2698
   86SAPS  H14X 8264   2.847   1.138   9.013 -0.5506  2.7516  0.7059
   86SAPS  H14Y 8265   2.821   1.152   9.186 -1.8886 -1.5399  1.2909
   86SAPS  C315 8266   2.635   1.136   9.071  0.1882 -0.2371 -0.0821
   86SAPS  H15X 8267   2.611   1.238   9.106 -2.8389 -1.3404  1.4278
   86SAPS  H15Y 8268   2.562   1.080   9.134 -2.7575  2.3193 -0.9789
   86SAPS  C316 8269   2.615   1.129   8.916 -0.7147  0.1270 -0.3483
   86SAPS  H16X 8270   2.617   1.019   8.899  1.9721 -0.3175  2.0579
   86SAPS  H16Y 8271   2.702   1.160   8.853 -1.7699 -0.8489 -2.4029
   86SAPS  C317 8272   2.494   1.208   8.868  0.1645 -0.1966 -0.3623
   86SAPS  H17X 8273   2.502   1.319   8.872 -1.6279  0.1563 -3.3024
   86SAPS  H17Y 8274   2.414   1.176   8.938 -0.0773 -0.7981 -0.9026
   86SAPS  C318 8275   2.464   1.167   8.723 -0.1211  0.1449  0.3417
   86SAPS  H18X 8276   2.437   1.059   8.713  2.7651 -0.5551 -0.9286
   86SAPS  H18Y 8277   2.550   1.193   8.658  0.0870 -1.1900  0.0398
   86SAPS  H18Z 8278   2.384   1.231   8.680  0.3601  0.4002 -0.1979
   87SAPS     N 8279   1.550   4.366  11.136 -0.7618 -0.2884  0.5967
   87SAPS   HN1 8280   1.480   4.388  11.062  0.3662 -1.8601 -1.0268
   87SAPS   HN2 8281   1.489   4.381  11.219  0.0441  0.1274  1.1200
   87SAPS   HN3 8282   1.624   4.439  11.141  0.2238 -1.2830  0.7281
   87SAPS   C12 8283   1.608   4.233  11.122 -0.3307 -0.1290 -0.6496
   87SAPS  H12A 8284   1.689   4.225  11.193  0.2381 -0.0354 -1.2768
   87SAPS   C13 8285   1.504   4.128  11.172 -0.0323  0.6979  0.3325
   87SAPS  O13A 8286   1.381   4.156  11.182 -0.4980  0.3933 -0.4140
   87SAPS  O13B 8287   1.549   4.013  11.202  0.5981 -0.0220  0.1234
   87SAPS   C11 8288   1.667   4.211  10.978  0.4066  0.0600 -0.2150
   87SAPS  H11A 8289   1.597   4.251  10.902 -0.6063 -1.0545  0.1027
   87SAPS  H11B 8290   1.681   4.104  10.953 -0.8364  0.0738 -1.0532
   87SAPS     P 8291   1.858   4.375  10.882  0.4348 -0.2872  0.0571
   87SAPS   O13 8292   1.801   4.507  10.924 -0.1318  0.1202 -0.5894
   87SAPS   O14 8293   2.007   4.362  10.879  0.4206  0.1521 -0.1475
   87SAPS   O12 8294   1.803   4.262  10.970  0.3443 -0.1887 -0.2173
   87SAPS   O11 8295   1.799   4.339  10.738  0.1493  0.0555 -0.1259
   87SAPS    C1 8296   1.797   4.211  10.677 -0.5476  0.2182 -0.5620
   87SAPS    HA 8297   1.758   4.129  10.741 -0.8235  0.1452 -0.8212
   87SAPS    HB 8298   1.719   4.222  10.599 -2.4996  2.1244  1.5084
   87SAPS    C2 8299   1.928   4.172  10.605  0.5454  0.2944 -0.5309
   87SAPS    HS 8300   2.003   4.145  10.683  0.3006  1.1329  0.0121
   87SAPS   O21 8301   1.969   4.276  10.519 -0.1395 -0.0873  0.5955
   87SAPS   C21 8302   2.098   4.298  10.505  0.3845  0.1578 -0.1606
   87SAPS   O22 8303   2.189   4.242  10.567  0.4974 -0.6089  0.5575
   87SAPS   C22 8304   2.115   4.393  10.383  0.0569 -0.4004  0.5658
   87SAPS   H2R 8305   2.115   4.322  10.297  1.5224  0.6637 -0.3523
   87SAPS   H2S 8306   2.029   4.464  10.376  0.0277 -0.6014 -2.3300
   87SAPS    C3 8307   1.894   4.045  10.525  0.1311 -0.1167 -0.4686
   87SAPS    HX 8308   1.813   4.091  10.463 -0.7365 -0.5726  0.3080
   87SAPS    HY 8309   1.857   3.957  10.581  0.3494 -0.5789 -1.0366
   87SAPS   O31 8310   2.004   4.004  10.444 -0.3635  0.1593  0.2102
   87SAPS   C31 8311   2.081   3.907  10.513  0.2316 -0.1208  0.7400
   87SAPS   O32 8312   2.074   3.875  10.630  0.7232 -0.3500 -0.3384
   87SAPS   C32 8313   2.171   3.838  10.417  0.1132  0.8824  0.5828
   87SAPS   H2X 8314   2.270   3.889  10.413  2.0578 -2.4017  2.3482
   87SAPS   H2Y 8315   2.127   3.857  10.317 -2.2258 -0.2251  1.3221
   87SAPS   C23 8316   2.250   4.472  10.374  0.2202  0.9787 -0.5416
   87SAPS   H3R 8317   2.330   4.399  10.348 -2.3884 -2.6646  0.9092
   87SAPS   H3S 8318   2.280   4.524  10.467  0.5319 -0.4505  0.1923
   87SAPS   C24 8319   2.232   4.589  10.275 -0.5067 -0.5789  0.8505
   87SAPS   H4R 8320   2.326   4.635  10.237 -0.9748 -0.1203  0.2089
   87SAPS   H4S 8321   2.182   4.673  10.328 -0.2131  0.8524 -1.0305
   87SAPS   C25 8322   2.145   4.568  10.149 -0.0290 -0.1187 -0.1258
   87SAPS   H5R 8323   2.037   4.572  10.167 -0.4284  0.5124 -2.3462
   87SAPS   C26 8324   2.182   4.539  10.025 -0.0361  0.9969 -0.3153
   87SAPS   H6R 8325   2.106   4.518   9.948 -2.5516 -0.9127  2.4745
   87SAPS   C27 8326   2.322   4.538   9.982  0.0212  0.7312 -0.0828
   87SAPS   H7R 8327   2.339   4.466   9.899  0.7531  2.2617 -1.3159
   87SAPS   H7S 8328   2.388   4.491  10.058 -0.2522  0.8284  0.2165
   87SAPS   C28 8329   2.375   4.675   9.931 -0.2284 -0.0877  0.5912
   87SAPS   H8R 8330   2.411   4.730  10.018  2.2394  2.6899 -1.9715
   87SAPS   C29 8331   2.393   4.731   9.805  0.5096  0.5211  0.1258
   87SAPS   H9R 8332   2.422   4.836   9.793 -0.3335  0.6886 -0.5590
   87SAPS  C210 8333   2.361   4.656   9.676 -0.7830  0.1508  0.1313
   87SAPS  H10R 8334   2.370   4.546   9.683  1.1756  0.1237 -1.8764
   87SAPS  H10S 8335   2.439   4.682   9.601 -1.6077 -1.0497 -1.1832
   87SAPS  C211 8336   2.213   4.676   9.634 -0.5969 -0.8119 -0.1858
   87SAPS  H11R 8337   2.141   4.636   9.708 -0.1127  0.0069  0.7563
   87SAPS  C212 8338   2.156   4.741   9.527  0.4381  0.0695 -0.1312
   87SAPS  H12R 8339   2.051   4.717   9.506  0.6583 -1.8259  0.7523
   87SAPS  C213 8340   2.212   4.813   9.405 -0.3511  0.4797  0.0916
   87SAPS  H13R 8341   2.295   4.877   9.445 -0.9503  1.1141  0.3500
   87SAPS  H13S 8342   2.145   4.895   9.372 -1.8276 -0.0492  1.6605
   87SAPS  C214 8343   2.261   4.712   9.307  0.2695 -0.0135 -0.7518
   87SAPS  H14R 8344   2.294   4.617   9.352 -0.1178  0.1413 -0.1248
   87SAPS  C215 8345   2.240   4.705   9.178  0.1215  0.5740 -0.0874
   87SAPS  H15R 8346   2.276   4.620   9.117 -3.0554 -1.0221  0.0235
   87SAPS  C216 8347   2.176   4.809   9.093  0.7460  0.3002  0.9856
   87SAPS  H16R 8348   2.098   4.864   9.150  0.7761  1.3659  0.0224
   87SAPS  H16S 8349   2.123   4.747   9.018  1.7177  1.0338 -0.3374
   87SAPS  C217 8350   2.278   4.898   9.018  0.2704  0.0875 -0.5060
   87SAPS  H17R 8351   2.365   4.837   8.987  1.5241  0.3401  2.2512
   87SAPS  H17S 8352   2.315   4.980   9.083 -2.8198  0.6438  0.7649
   87SAPS  C218 8353   2.212   4.968   8.897 -0.3441  0.3984  0.2777
   87SAPS  H18R 8354   2.178   4.898   8.818  2.4627 -1.2506  0.4062
   87SAPS  H18S 8355   2.298   5.024   8.855 -1.4944  1.7489 -0.3665
   87SAPS  C219 8356   2.101   5.067   8.924  0.2824 -0.0520  0.1521
   87SAPS  H19R 8357   2.140   5.143   8.995  2.0190 -0.0600 -0.7447
   87SAPS  H19S 8358   2.019   5.010   8.971  1.3747 -1.4119  0.4778
   87SAPS  C220 8359   2.047   5.127   8.795 -0.4937 -0.3544  0.0961
   87SAPS  H20R 8360   2.038   5.041   8.725 -1.1473 -0.6464  0.5216
   87SAPS  H20S 8361   2.131   5.187   8.754  0.7448 -0.0453  2.8460
   87SAPS  H20T 8362   1.948   5.176   8.810 -0.5776 -0.1822 -0.9511
   87SAPS   C33 8363   2.195   3.686  10.441  0.6043 -0.6093 -0.5590
   87SAPS   H3X 8364   2.112   3.625  10.398 -0.8203 -0.3201  1.6496
   87SAPS   H3Y 8365   2.192   3.659  10.549 -0.0436 -1.1213 -0.6963
   87SAPS   C34 8366   2.330   3.634  10.387  0.8824 -0.3536  0.3404
   87SAPS   H4X 8367   2.347   3.529  10.422 -1.5248 -0.7716  0.4439
   87SAPS   H4Y 8368   2.415   3.694  10.424  1.8008 -1.6396  0.3836
   87SAPS   C35 8369   2.328   3.638  10.234 -0.0344 -0.1904  0.3631
   87SAPS   H5X 8370   2.428   3.613  10.193  0.1023  0.0751  0.5330
   87SAPS   H5Y 8371   2.301   3.741  10.201 -0.7647 -0.7078 -0.7267
   87SAPS   C36 8372   2.239   3.542  10.155  0.0654 -0.1485 -0.3479
   87SAPS   H6X 8373   2.140   3.576  10.190 -0.3673 -0.2129 -1.4636
   87SAPS   H6Y 8374   2.251   3.435  10.184 -3.4234 -1.2943 -2.5278
   87SAPS   C37 8375   2.267   3.553  10.006 -0.2605  0.0345  0.0426
   87SAPS   H7X 8376   2.226   3.460   9.962  0.6799 -1.3564  1.9627
   87SAPS   H7Y 8377   2.372   3.556   9.970  0.6572 -0.4897  2.4636
   87SAPS   C38 8378   2.217   3.684   9.947 -0.7007  0.4065  0.5873
   87SAPS   H8X 8379   2.297   3.761   9.940 -2.0759  1.7197 -2.8737
   87SAPS   H8Y 8380   2.140   3.732  10.012 -1.2364  1.1915 -0.5934
   87SAPS   C39 8381   2.171   3.659   9.801 -0.4557 -0.3503 -0.4881
   87SAPS   H9X 8382   2.084   3.590   9.805 -0.9683  0.3444  2.2866
   87SAPS   H9Y 8383   2.253   3.613   9.741  0.0751 -0.3733  0.2274
   87SAPS  C310 8384   2.126   3.785   9.730  0.6815  1.0477 -0.2150
   87SAPS  H10X 8385   2.200   3.868   9.727  1.9522 -0.0908 -2.5757
   87SAPS  H10Y 8386   2.037   3.829   9.780 -0.4606 -0.4898 -0.8215
   87SAPS  C311 8387   2.085   3.763   9.583  0.5502 -0.0431  0.1808
   87SAPS  H11X 8388   2.024   3.849   9.547  0.4972  0.2921  1.0333
   87SAPS  H11Y 8389   2.015   3.677   9.589 -1.3733  1.4860  0.7172
   87SAPS  C312 8390   2.207   3.743   9.494 -0.1563  1.0176 -0.8945
   87SAPS  H12X 8391   2.261   3.659   9.543  0.5332  1.2679 -1.2078
   87SAPS  H12Y 8392   2.279   3.828   9.499 -0.1622  1.0007 -0.4931
   87SAPS  C313 8393   2.185   3.690   9.355  0.4120 -0.1774  0.6550
   87SAPS  H13X 8394   2.091   3.631   9.351 -0.8938  1.8513  0.0364
   87SAPS  H13Y 8395   2.270   3.626   9.321  0.7339  0.7510 -0.3505
   87SAPS  C314 8396   2.169   3.800   9.247  0.8178 -0.5359  0.7693
   87SAPS  H14X 8397   2.257   3.867   9.247  1.8065 -1.6752 -2.0630
   87SAPS  H14Y 8398   2.080   3.860   9.278 -0.7307 -2.6667  0.6312
   87SAPS  C315 8399   2.139   3.745   9.102  0.2681  0.3545 -0.2047
   87SAPS  H15X 8400   2.108   3.832   9.040  0.0542  1.5120  1.4821
   87SAPS  H15Y 8401   2.059   3.668   9.104  0.8385 -0.2592 -0.4762
   87SAPS  C316 8402   2.256   3.669   9.032 -1.0006 -0.0778 -0.2655
   87SAPS  H16X 8403   2.238   3.665   8.923  1.6975  1.7535 -0.8889
   87SAPS  H16Y 8404   2.278   3.566   9.069 -0.2566 -0.0463 -0.5946
   87SAPS  C317 8405   2.396   3.725   9.035  0.2496  0.2207 -0.9562
   87SAPS  H17X 8406   2.421   3.720   9.143 -0.1230 -3.1761 -0.9131
   87SAPS  H17Y 8407   2.401   3.830   9.000 -2.4059  0.6808 -0.1310
   87SAPS  C318 8408   2.498   3.647   8.956  0.2101  0.1826 -0.4449
   87SAPS  H18X 8409   2.505   3.541   8.986 -1.5617 -0.1555 -1.1525
   87SAPS  H18Y 8410   2.597   3.684   8.992 -0.5019 -0.6842  2.6618
   87SAPS  H18Z 8411   2.477   3.660   8.848  1.4615 -3.1206 -1.1900
   88SAPS     N 8412   5.467   3.276  10.857 -0.2153 -0.4446 -0.4835
   88SAPS   HN1 8413   5.366   3.277  10.834  0.3369 -0.4307 -3.2840
   88SAPS   HN2 8414   5.521   3.205  10.804  3.6428  2.3350 -0.6784
   88SAPS   HN3 8415   5.472   3.260  10.960 -0.3647 -0.4599 -0.4786
   88SAPS   C12 8416   5.546   3.396  10.823 -0.1651 -0.7716  0.0349
   88SAPS  H12A 8417   5.512   3.425  10.724 -2.1595  2.4681  1.4767
   88SAPS   C13 8418   5.538   3.528  10.915  0.5554 -0.0346 -0.2768
   88SAPS  O13A 8419   5.480   3.504  11.024 -0.0962 -0.8583 -0.7939
   88SAPS  O13B 8420   5.591   3.636  10.881 -0.1658  0.2712 -0.3192
   88SAPS   C11 8421   5.698   3.349  10.828 -0.4343  0.0824 -0.8214
   88SAPS  H11A 8422   5.718   3.340  10.937 -1.1452 -1.5667 -0.8039
   88SAPS  H11B 8423   5.758   3.431  10.783 -0.0544  0.4196  0.2728
   88SAPS     P 8424   5.846   3.161  10.739 -0.1871  0.6210 -0.0291
   88SAPS   O13 8425   5.906   3.140  10.874  0.2770  0.2826  0.2446
   88SAPS   O14 8426   5.837   3.043  10.649  0.4118 -0.2070 -0.5729
   88SAPS   O12 8427   5.706   3.224  10.764 -0.4875  0.4732 -0.4658
   88SAPS   O11 8428   5.922   3.269  10.662 -0.1820 -0.4035 -0.5077
   88SAPS    C1 8429   5.878   3.334  10.541  0.4469 -0.6871 -0.1800
   88SAPS    HA 8430   5.768   3.347  10.544  0.6215  0.9179  1.3411
   88SAPS    HB 8431   5.918   3.437  10.555  1.1214 -1.0926  1.0225
   88SAPS    C2 8432   5.933   3.273  10.410  0.0791 -0.1269  0.1003
   88SAPS    HS 8433   5.894   3.169  10.412  0.1348 -0.1891 -1.1402
   88SAPS   O21 8434   6.074   3.285  10.396  0.0142 -0.0537 -0.0496
   88SAPS   C21 8435   6.133   3.180  10.337  0.0605 -0.5090 -0.2988
   88SAPS   O22 8436   6.082   3.079  10.303  0.2600  0.6859  0.0340
   88SAPS   C22 8437   6.281   3.221  10.316  0.5161 -0.2745  0.7154
   88SAPS   H2R 8438   6.318   3.286  10.398  1.1916  1.0106 -0.5628
   88SAPS   H2S 8439   6.328   3.121  10.328  1.2392  0.1169  1.1548
   88SAPS    C3 8440   5.856   3.335  10.290  0.3574 -0.4858  0.1690
   88SAPS    HX 8441   5.862   3.446  10.297  0.7116 -0.4719 -0.3060
   88SAPS    HY 8442   5.749   3.316  10.310  0.1426 -0.4065 -0.8672
   88SAPS   O31 8443   5.910   3.292  10.165 -0.1344  0.2678 -0.3181
   88SAPS   C31 8444   5.854   3.185  10.117 -0.2888 -0.6506 -0.1842
   88SAPS   O32 8445   5.745   3.145  10.140  0.1796  0.1191 -0.0080
   88SAPS   C32 8446   5.945   3.126  10.012 -0.0586  0.5330 -0.6184
   88SAPS   H2X 8447   6.027   3.073  10.065 -1.2741  0.8716  1.7549
   88SAPS   H2Y 8448   5.985   3.207   9.948 -0.5464  0.3241 -1.1955
   88SAPS   C23 8449   6.313   3.272  10.181  0.0450 -0.1248 -1.0908
   88SAPS   H3R 8450   6.236   3.243  10.107 -1.1078  1.1120 -0.4041
   88SAPS   H3S 8451   6.411   3.229  10.151 -0.2590 -0.9118 -0.9783
   88SAPS   C24 8452   6.332   3.421  10.174 -0.3828 -0.1796 -0.2870
   88SAPS   H4R 8453   6.379   3.463  10.083 -0.4311  1.1522  0.2754
   88SAPS   H4S 8454   6.408   3.458  10.247  1.2245  1.7590 -2.7775
   88SAPS   C25 8455   6.202   3.495  10.203  0.3743  0.6736 -0.7284
   88SAPS   H5R 8456   6.178   3.499  10.311  0.4543 -0.8000 -0.6306
   88SAPS   C26 8457   6.121   3.562  10.117  0.0219 -0.0628  0.2664
   88SAPS   H6R 8458   6.024   3.610  10.138  0.1232  0.8640 -1.2604
   88SAPS   C27 8459   6.155   3.561   9.968 -0.2148  0.5119  0.0032
   88SAPS   H7R 8460   6.263   3.539   9.955 -0.4865  0.8857 -4.6593
   88SAPS   H7S 8461   6.156   3.661   9.921  1.4770 -0.0676 -1.3111
   88SAPS   C28 8462   6.065   3.458   9.899  0.5682 -0.7555  0.4981
   88SAPS   H8R 8463   5.963   3.469   9.938  1.1492  2.1343  1.4029
   88SAPS   C29 8464   6.096   3.372   9.805 -0.0796 -0.2453  0.3843
   88SAPS   H9R 8465   6.016   3.317   9.754  0.2992 -0.9459  0.5291
   88SAPS  C210 8466   6.232   3.354   9.737 -0.2494 -0.2071 -0.4510
   88SAPS  H10R 8467   6.299   3.437   9.768 -2.5448  1.0650  1.4694
   88SAPS  H10S 8468   6.205   3.359   9.629 -1.8882 -1.1393 -0.1230
   88SAPS  C211 8469   6.306   3.222   9.761  0.1218 -0.3904  0.4686
   88SAPS  H11R 8470   6.398   3.239   9.819 -0.0501  1.3215  0.2839
   88SAPS  C212 8471   6.279   3.100   9.711 -0.3659 -0.7152  0.3611
   88SAPS  H12R 8472   6.352   3.018   9.725  1.2723  0.9882  2.4251
   88SAPS  C213 8473   6.165   3.070   9.619 -0.2589 -0.4071 -0.0325
   88SAPS  H13R 8474   6.158   3.143   9.535 -1.7136 -1.4506 -0.8713
   88SAPS  H13S 8475   6.067   3.072   9.670 -1.0605  2.2516 -1.4688
   88SAPS  C214 8476   6.175   2.934   9.552 -0.4354 -0.6023 -0.1655
   88SAPS  H14R 8477   6.112   2.858   9.600 -0.2947  0.9528  2.7253
   88SAPS  C215 8478   6.257   2.888   9.450  0.9889 -0.0828 -0.2134
   88SAPS  H15R 8479   6.239   2.782   9.426 -1.1169 -0.3020  1.9330
   88SAPS  C216 8480   6.360   2.968   9.372 -0.4567  0.2089 -0.0884
   88SAPS  H16R 8481   6.459   2.919   9.369  0.4846  1.8871  1.4948
   88SAPS  H16S 8482   6.392   3.062   9.423 -0.7548 -0.4678  1.4184
   88SAPS  C217 8483   6.305   2.994   9.233 -0.0978  0.0643 -0.8989
   88SAPS  H17R 8484   6.215   3.057   9.243  1.0345  1.4464  1.3017
   88SAPS  H17S 8485   6.280   2.895   9.191  0.6557 -1.1445  1.3354
   88SAPS  C218 8486   6.417   3.052   9.141  0.6215  0.3788 -0.1826
   88SAPS  H18R 8487   6.479   2.963   9.115  1.0033  1.2284 -2.3740
   88SAPS  H18S 8488   6.484   3.121   9.198  0.9807 -0.1754  0.0861
   88SAPS  C219 8489   6.369   3.099   9.007  0.5087 -0.3949  0.4186
   88SAPS  H19R 8490   6.455   3.144   8.953 -0.2013  0.4935 -0.0006
   88SAPS  H19S 8491   6.301   3.186   9.025 -0.6103 -1.4325  1.4103
   88SAPS  C220 8492   6.296   3.002   8.917  0.7700  0.0770  0.2593
   88SAPS  H20R 8493   6.354   2.914   8.881  0.8547  0.4693 -0.5876
   88SAPS  H20S 8494   6.248   3.061   8.836  0.2854  0.4941  0.8418
   88SAPS  H20T 8495   6.210   2.956   8.970  1.2622 -1.3237 -0.0959
   88SAPS   C33 8496   5.862   3.023   9.931  0.1624 -0.0011 -0.9849
   88SAPS   H3X 8497   5.793   2.967   9.997  1.9105  0.2491  1.1876
   88SAPS   H3Y 8498   5.923   2.954   9.869 -0.6158 -0.6171 -1.0811
   88SAPS   C34 8499   5.774   3.092   9.825  0.4447  0.6106 -0.0628
   88SAPS   H4X 8500   5.832   3.154   9.753 -3.2078  2.2624 -1.8667
   88SAPS   H4Y 8501   5.702   3.161   9.874 -1.1741 -1.7739  1.1031
   88SAPS   C35 8502   5.687   2.995   9.739  0.1300 -0.5444 -0.8861
   88SAPS   H5X 8503   5.624   2.929   9.801  1.9640 -1.1795  0.3736
   88SAPS   H5Y 8504   5.756   2.924   9.688  2.9232  0.8699  0.6949
   88SAPS   C36 8505   5.595   3.066   9.642 -0.1318  0.8163 -0.1515
   88SAPS   H6X 8506   5.517   3.113   9.706 -2.4663 -0.8929 -1.5897
   88SAPS   H6Y 8507   5.541   2.985   9.589 -0.3734 -0.1294  1.4775
   88SAPS   C37 8508   5.655   3.160   9.540 -0.0283 -0.5569  0.2864
   88SAPS   H7X 8509   5.686   3.251   9.595  1.7666 -0.3913 -0.9342
   88SAPS   H7Y 8510   5.574   3.173   9.465 -0.1154  2.8867  0.8145
   88SAPS   C38 8511   5.780   3.111   9.458  0.1409  0.1784 -0.0175
   88SAPS   H8X 8512   5.740   3.028   9.396  0.5554  0.5453 -0.7871
   88SAPS   H8Y 8513   5.856   3.076   9.531  0.8700  0.5950 -0.5621
   88SAPS   C39 8514   5.836   3.213   9.349  0.1818  0.3975 -0.5948
   88SAPS   H9X 8515   5.881   3.297   9.405  0.7570  0.7331 -1.5467
   88SAPS   H9Y 8516   5.745   3.237   9.290  0.2698 -0.9242 -1.3118
   88SAPS  C310 8517   5.944   3.156   9.262  0.1335 -0.8124 -0.4912
   88SAPS  H10X 8518   5.893   3.080   9.199  2.3191 -1.3918 -1.6861
   88SAPS  H10Y 8519   6.026   3.113   9.324 -0.9223 -1.0687  0.7754
   88SAPS  C311 8520   6.016   3.253   9.175  0.5399 -0.2318 -0.0106
   88SAPS  H11X 8521   6.112   3.216   9.134  0.6319  0.1266 -0.1247
   88SAPS  H11Y 8522   6.029   3.343   9.239 -1.8774  0.0879  0.1488
   88SAPS  C312 8523   5.927   3.281   9.056  0.2267 -0.1384 -0.4919
   88SAPS  H12X 8524   5.821   3.272   9.091  0.6195  0.9400  1.0685
   88SAPS  H12Y 8525   5.943   3.205   8.976  1.4406  0.6249 -0.9974
   88SAPS  C313 8526   5.957   3.417   9.001  0.6990  0.4730  0.5658
   88SAPS  H13X 8527   6.068   3.424   9.006  0.5990  2.9355  4.7684
   88SAPS  H13Y 8528   5.911   3.500   9.060 -2.6850 -1.3289  0.6818
   88SAPS  C314 8529   5.904   3.440   8.863 -0.0649  0.2114 -0.0220
   88SAPS  H14X 8530   5.800   3.401   8.873 -0.4355  1.1075 -0.3427
   88SAPS  H14Y 8531   5.960   3.381   8.787 -3.7487  0.8036 -3.4941
   88SAPS  C315 8532   5.905   3.585   8.814  0.0380  0.0753  0.1071
   88SAPS  H15X 8533   5.993   3.645   8.846 -0.2024 -0.1818  1.3330
   88SAPS  H15Y 8534   5.825   3.634   8.873  0.7145 -0.1387  1.2539
   88SAPS  C316 8535   5.899   3.613   8.658  0.1116 -0.1390  0.3972
   88SAPS  H16X 8536   5.819   3.556   8.605 -0.1424  0.4174  0.1678
   88SAPS  H16Y 8537   5.994   3.579   8.612 -0.2141 -1.7723  0.8754
   88SAPS  C317 8538   5.875   3.768   8.624 -0.6626  0.6798 -0.3748
   88SAPS  H17X 8539   5.867   3.783   8.514 -0.8512 -0.2971 -0.5039
   88SAPS  H17Y 8540   5.971   3.819   8.648 -0.5220 -1.2071  4.1560
   88SAPS  C318 8541   5.747   3.820   8.681  0.4356 -1.1520  0.2952
   88SAPS  H18X 8542   5.668   3.743   8.667 -0.2446 -0.2254 -1.3705
   88SAPS  H18Y 8543   5.703   3.897   8.614  0.0661 -0.2595  1.5268
   88SAPS  H18Z 8544   5.760   3.850   8.787  0.9472 -0.0191 -0.0767
   89SAPS     N 8545   2.243   5.639  11.334 -0.7330 -0.1867  0.7791
   89SAPS   HN1 8546   2.282   5.626  11.430  0.7172 -0.4606  0.1887
   89SAPS   HN2 8547   2.248   5.739  11.305  0.9931 -0.9863 -2.1461
   89SAPS   HN3 8548   2.143   5.612  11.341 -0.9714  0.6867  0.8671
   89SAPS   C12 8549   2.332   5.554  11.249 -0.3988 -0.1262  0.0881
   89SAPS  H12A 8550   2.434   5.570  11.280  0.0424  0.2475 -1.4952
   89SAPS   C13 8551   2.305   5.402  11.277 -0.0321  0.7567  0.2099
   89SAPS  O13A 8552   2.218   5.370  11.363 -0.1127 -0.3998  0.6684
   89SAPS  O13B 8553   2.358   5.310  11.198  0.5239 -0.3023 -0.3354
   89SAPS   C11 8554   2.327   5.590  11.101 -0.2627  0.2005  0.0037
   89SAPS  H11A 8555   2.227   5.564  11.061 -1.8258  1.7407  2.6231
   89SAPS  H11B 8556   2.393   5.520  11.045  1.8128  1.4664  0.7247
   89SAPS     P 8557   2.447   5.771  10.957  0.0543  0.4847 -0.2734
   89SAPS   O13 8558   2.428   5.915  10.947 -0.0475  0.1796  0.3811
   89SAPS   O14 8559   2.586   5.719  10.980  0.1047 -0.1907 -0.5265
   89SAPS   O12 8560   2.361   5.726  11.080 -0.7095  0.0690 -0.7103
   89SAPS   O11 8561   2.394   5.693  10.829  0.1655 -0.4834  0.5991
   89SAPS    C1 8562   2.424   5.725  10.698  0.4387 -0.9342 -0.0762
   89SAPS    HA 8563   2.431   5.833  10.675  2.4074 -1.2885 -1.3678
   89SAPS    HB 8564   2.526   5.692  10.668  0.7245 -2.1752  2.0335
   89SAPS    C2 8565   2.313   5.667  10.604  0.7963  0.2632  1.0696
   89SAPS    HS 8566   2.312   5.556  10.614 -0.5889  0.2549  1.0267
   89SAPS   O21 8567   2.348   5.708  10.469  0.3049 -0.5344  0.5567
   89SAPS   C21 8568   2.385   5.615  10.387  0.1831  0.7472 -0.0925
   89SAPS   O22 8569   2.368   5.495  10.391 -0.3944 -0.1133  0.4154
   89SAPS   C22 8570   2.419   5.695  10.256  0.4642  0.3671  0.0928
   89SAPS   H2R 8571   2.333   5.763  10.238  0.9070  2.0866  3.6221
   89SAPS   H2S 8572   2.497   5.771  10.275  1.6895 -0.2457 -2.0903
   89SAPS    C3 8573   2.177   5.717  10.645  0.3319  0.3043 -0.6564
   89SAPS    HX 8574   2.198   5.826  10.649  0.8594  0.2245 -1.0500
   89SAPS    HY 8575   2.158   5.685  10.750  1.2842 -1.1463 -0.8895
   89SAPS   O31 8576   2.070   5.673  10.556 -0.0196 -0.2934  0.3560
   89SAPS   C31 8577   1.980   5.766  10.518 -0.5584  0.8074  0.1961
   89SAPS   O32 8578   1.955   5.870  10.570 -0.1471 -0.4141  0.1718
   89SAPS   C32 8579   1.916   5.721  10.391  0.0007 -0.4416  0.3236
   89SAPS   H2X 8580   1.884   5.811  10.334  2.2813  0.1102 -0.1772
   89SAPS   H2Y 8581   1.832   5.654  10.421 -0.0123 -1.0869 -1.0622
   89SAPS   C23 8582   2.460   5.612  10.137  0.7297  0.1515 -1.1095
   89SAPS   H3R 8583   2.376   5.541  10.119  0.6080  0.2348 -0.8691
   89SAPS   H3S 8584   2.545   5.550  10.171  0.6513  0.4837 -0.2939
   89SAPS   C24 8585   2.511   5.689  10.015 -0.2110  0.0454  0.3897
   89SAPS   H4R 8586   2.558   5.614   9.946  0.3300  1.3097 -0.6542
   89SAPS   H4S 8587   2.592   5.763  10.028 -0.2186  0.1904 -0.3278
   89SAPS   C25 8588   2.398   5.757   9.940 -0.0395 -0.2767 -0.3706
   89SAPS   H5R 8589   2.338   5.819  10.008 -0.0176  0.4524 -1.0073
   89SAPS   C26 8590   2.367   5.725   9.814  0.2342 -0.3309  0.3776
   89SAPS   H6R 8591   2.285   5.769   9.755 -0.2559 -2.4932 -0.6600
   89SAPS   C27 8592   2.436   5.620   9.727  0.5813 -0.4238  0.8365
   89SAPS   H7R 8593   2.422   5.520   9.773 -0.0357 -1.1400 -0.8740
   89SAPS   H7S 8594   2.547   5.618   9.732  0.7131 -0.9659 -1.3082
   89SAPS   C28 8595   2.388   5.612   9.584 -0.0363  0.6181  0.3012
   89SAPS   H8R 8596   2.317   5.530   9.566  1.4264 -0.9349  1.2902
   89SAPS   C29 8597   2.431   5.684   9.480  0.2260  0.1949  0.1523
   89SAPS   H9R 8598   2.382   5.659   9.385  0.1071 -1.1292  0.5376
   89SAPS  C210 8599   2.538   5.789   9.486  0.0772  0.3744  0.5008
   89SAPS  H10R 8600   2.525   5.848   9.580  2.5512  0.7222  0.6767
   89SAPS  H10S 8601   2.526   5.859   9.401  2.6038  1.0900  0.6520
   89SAPS  C211 8602   2.680   5.741   9.493 -0.5077 -0.4121  0.9093
   89SAPS  H11R 8603   2.723   5.736   9.594  1.2037  0.8553  0.2976
   89SAPS  C212 8604   2.758   5.713   9.387  0.4904 -0.5429 -0.0323
   89SAPS  H12R 8605   2.860   5.674   9.403  1.3395  1.2376 -0.8858
   89SAPS  C213 8606   2.716   5.740   9.246  0.0290 -0.2653  0.5796
   89SAPS  H13R 8607   2.607   5.725   9.231 -0.3008  3.7306 -3.1340
   89SAPS  H13S 8608   2.756   5.666   9.172  0.2732 -0.3229  0.7689
   89SAPS  C214 8609   2.748   5.883   9.208 -0.3671  1.4727  0.1721
   89SAPS  H14R 8610   2.696   5.960   9.268 -1.8925  0.0539  0.7337
   89SAPS  C215 8611   2.838   5.928   9.122 -0.2125  0.2959  0.0957
   89SAPS  H15R 8612   2.853   6.037   9.117  1.8707  0.0262 -0.4758
   89SAPS  C216 8613   2.931   5.838   9.054 -0.0823  0.3382  0.7220
   89SAPS  H16R 8614   2.944   5.740   9.106  1.5167  1.1547  1.9611
   89SAPS  H16S 8615   3.033   5.875   9.080  0.7388 -1.3872  0.1458
   89SAPS  C217 8616   2.923   5.822   8.901 -0.0252 -0.7627  0.1626
   89SAPS  H17R 8617   3.012   5.769   8.859 -0.9115 -1.1645 -1.2813
   89SAPS  H17S 8618   2.930   5.922   8.852 -0.7445 -1.8817 -2.4004
   89SAPS  C218 8619   2.806   5.741   8.850 -0.4191 -0.7445  0.5657
   89SAPS  H18R 8620   2.714   5.772   8.906 -0.9677 -0.1363 -0.6343
   89SAPS  H18S 8621   2.827   5.637   8.881 -0.8744 -0.4845  1.7983
   89SAPS  C219 8622   2.794   5.731   8.692 -0.0539 -0.1336 -0.3021
   89SAPS  H19R 8623   2.719   5.649   8.686 -0.5913  0.1406  1.7726
   89SAPS  H19S 8624   2.892   5.716   8.642 -0.9976  1.2754 -2.7277
   89SAPS  C220 8625   2.729   5.850   8.624 -0.2156 -0.0963 -0.1173
   89SAPS  H20R 8626   2.659   5.913   8.683 -4.3960 -1.7918 -2.7451
   89SAPS  H20S 8627   2.654   5.823   8.546 -0.9136  2.0302 -0.2463
   89SAPS  H20T 8628   2.802   5.922   8.582  0.7805 -0.2674  1.2700
   89SAPS   C33 8629   1.991   5.635  10.281 -0.9575 -0.1458  0.0742
   89SAPS   H3X 8630   2.039   5.552  10.338  3.1576  0.6261 -1.8490
   89SAPS   H3Y 8631   2.071   5.698  10.236 -0.2384 -0.9972  0.1399
   89SAPS   C34 8632   1.904   5.577  10.164  0.4664  0.0670 -0.0790
   89SAPS   H4X 8633   1.823   5.647  10.136  0.2493  0.4367  1.3894
   89SAPS   H4Y 8634   1.868   5.488  10.219 -0.8371  0.7029  0.1316
   89SAPS   C35 8635   1.986   5.544  10.036 -0.0156 -0.7901  0.4128
   89SAPS   H5X 8636   2.092   5.519  10.058  0.6749  1.0469 -0.6353
   89SAPS   H5Y 8637   1.988   5.639   9.979 -3.6804 -0.6103  0.3692
   89SAPS   C36 8638   1.930   5.426   9.960 -0.4083 -0.2167 -0.4094
   89SAPS   H6X 8639   1.916   5.336  10.024 -1.8297 -0.0822 -0.4925
   89SAPS   H6Y 8640   2.006   5.393   9.886  2.0208 -0.3406  1.9874
   89SAPS   C37 8641   1.800   5.473   9.894 -0.3136 -0.0818 -0.4547
   89SAPS   H7X 8642   1.823   5.562   9.831 -2.4564  0.6725 -0.2635
   89SAPS   H7Y 8643   1.727   5.506   9.971 -0.1948 -2.0846  0.5826
   89SAPS   C38 8644   1.733   5.365   9.812 -0.3842 -0.1217  0.1419
   89SAPS   H8X 8645   1.680   5.295   9.881 -1.4711  0.5101 -0.0386
   89SAPS   H8Y 8646   1.821   5.320   9.761  0.1341  0.1296  0.8027
   89SAPS   C39 8647   1.639   5.419   9.697 -0.7929 -0.4329  0.0175
   89SAPS   H9X 8648   1.686   5.513   9.662 -1.8550  1.1823  2.6281
   89SAPS   H9Y 8649   1.547   5.462   9.743 -0.7643  0.2718 -0.5600
   89SAPS  C310 8650   1.625   5.327   9.568  0.7585  0.5321 -0.6570
   89SAPS  H10X 8651   1.588   5.226   9.595  1.9039  0.8193  2.3832
   89SAPS  H10Y 8652   1.732   5.312   9.544  1.7085  2.6815  1.7316
   89SAPS  C311 8653   1.538   5.390   9.459  0.1567  0.5411  0.7696
   89SAPS  H11X 8654   1.587   5.487   9.435  0.6402 -0.0363 -0.6381
   89SAPS  H11Y 8655   1.441   5.423   9.504 -1.3461 -0.4436 -1.5384
   89SAPS  C312 8656   1.526   5.311   9.332  0.2794  0.1746  0.5993
   89SAPS  H12X 8657   1.464   5.219   9.342  1.2798 -0.8959 -2.0846
   89SAPS  H12Y 8658   1.623   5.276   9.291 -1.1933 -0.6263 -2.5307
   89SAPS  C313 8659   1.465   5.393   9.215 -0.7651 -0.3836 -0.3436
   89SAPS  H13X 8660   1.532   5.477   9.187 -0.3912 -0.4826  0.2276
   89SAPS  H13Y 8661   1.373   5.444   9.247 -0.5223 -0.7606  1.0142
   89SAPS  C314 8662   1.437   5.301   9.098 -0.1889 -0.6183  0.9922
   89SAPS  H14X 8663   1.340   5.251   9.123  0.2193 -1.1275  1.5893
   89SAPS  H14Y 8664   1.527   5.236   9.091 -0.8378 -1.4628  0.1862
   89SAPS  C315 8665   1.437   5.374   8.964 -0.3607 -0.4184  0.4541
   89SAPS  H15X 8666   1.438   5.293   8.887  0.1440  0.6796 -0.7318
   89SAPS  H15Y 8667   1.526   5.434   8.937  0.5780 -1.3386  1.3660
   89SAPS  C316 8668   1.315   5.448   8.929  0.7217 -0.3441  0.5975
   89SAPS  H16X 8669   1.278   5.495   9.023 -0.3146 -0.6789  0.3712
   89SAPS  H16Y 8670   1.225   5.390   8.898  0.3044  1.1657 -1.1630
   89SAPS  C317 8671   1.330   5.561   8.826 -0.9049  0.0689 -0.2229
   89SAPS  H17X 8672   1.409   5.628   8.865 -0.9391  0.0100 -0.0490
   89SAPS  H17Y 8673   1.233   5.615   8.820 -2.5540 -2.7644 -2.1207
   89SAPS  C318 8674   1.356   5.501   8.690 -0.5837  0.3049  0.1458
   89SAPS  H18X 8675   1.356   5.575   8.606 -1.6539  0.6625  0.4430
   89SAPS  H18Y 8676   1.288   5.417   8.665  0.7895 -0.9826  0.6281
   89SAPS  H18Z 8677   1.458   5.459   8.684 -0.7155 -0.1654  1.0980
   90SAPS     N 8678   1.210   5.046  10.687 -0.9871  0.4112  0.0867
   90SAPS   HN1 8679   1.213   5.118  10.612 -1.3148  1.8879  1.4189
   90SAPS   HN2 8680   1.307   5.009  10.690 -0.7212  0.9670 -1.1931
   90SAPS   HN3 8681   1.157   4.964  10.652 -2.4744  0.8693  1.1598
   90SAPS   C12 8682   1.159   5.097  10.811 -0.8022 -0.5621 -0.5404
   90SAPS  H12A 8683   1.182   5.032  10.894  1.8554  1.6696  0.6483
   90SAPS   C13 8684   1.207   5.237  10.853 -0.9797  0.6384  0.5419
   90SAPS  O13A 8685   1.278   5.305  10.776 -0.5102  0.6613  0.0650
   90SAPS  O13B 8686   1.152   5.286  10.953  0.5162  0.1091  0.1386
   90SAPS   C11 8687   1.005   5.102  10.787  0.1392  0.2567 -0.4202
   90SAPS  H11A 8688   0.973   5.175  10.710  0.0925 -0.9646 -1.5960
   90SAPS  H11B 8689   0.955   5.130  10.882 -0.5882 -1.7949 -0.1620
   90SAPS     P 8690   0.802   4.944  10.754  0.0484 -0.3942  0.0906
   90SAPS   O13 8691   0.776   4.799  10.729  0.0142 -0.6600  0.2785
   90SAPS   O14 8692   0.732   4.998  10.875 -0.4521 -0.8516  0.4408
   90SAPS   O12 8693   0.956   4.970  10.758 -0.3017  0.7031  0.6542
   90SAPS   O11 8694   0.760   5.030  10.627 -0.4310  0.1322  0.3475
   90SAPS    C1 8695   0.776   4.973  10.494 -0.4441 -0.1882  0.6021
   90SAPS    HA 8696   0.820   4.871  10.488  0.4416  0.2278 -0.5237
   90SAPS    HB 8697   0.681   4.972  10.437 -0.4703 -2.6715  0.5994
   90SAPS    C2 8698   0.882   5.055  10.405 -0.1526 -0.2558 -0.4188
   90SAPS    HS 8699   0.978   5.054  10.462 -0.3110 -0.5854 -0.1530
   90SAPS   O21 8700   0.836   5.190  10.397  0.7339  0.7556 -0.1646
   90SAPS   C21 8701   0.924   5.279  10.367  0.0245  0.3961  0.1076
   90SAPS   O22 8702   1.039   5.262  10.324 -0.0628 -0.3136 -0.1027
   90SAPS   C22 8703   0.875   5.413  10.407 -0.0487 -0.3938  1.1557
   90SAPS   H2R 8704   0.821   5.458  10.321  1.2037  1.2596  1.1821
   90SAPS   H2S 8705   0.802   5.406  10.491 -1.1168  1.3579  0.4399
   90SAPS    C3 8706   0.916   4.986  10.281 -0.3187 -0.0039  0.1318
   90SAPS    HX 8707   0.963   4.890  10.308  2.3011  1.2907  0.4958
   90SAPS    HY 8708   1.003   5.037  10.235 -3.0002  0.6554 -5.0219
   90SAPS   O31 8709   0.800   4.988  10.195  0.7350  0.5391 -0.3618
   90SAPS   C31 8710   0.830   4.975  10.067 -0.1614 -0.0437  0.2972
   90SAPS   O32 8711   0.940   4.966  10.022  0.2078  0.0003  0.1980
   90SAPS   C32 8712   0.696   4.982   9.986 -0.6193 -0.2450  0.2821
   90SAPS   H2X 8713   0.626   5.038  10.053 -0.0141  0.5425  0.2781
   90SAPS   H2Y 8714   0.661   4.880   9.961 -0.3987 -0.0459 -0.8863
   90SAPS   C23 8715   0.981   5.530  10.440 -0.3212 -0.0096  0.1328
   90SAPS   H3R 8716   1.047   5.499  10.524 -0.0702  4.8441  2.1246
   90SAPS   H3S 8717   0.929   5.621  10.480  2.1249  1.6132 -0.1317
   90SAPS   C24 8718   1.077   5.583  10.332  0.2584 -1.0526  0.4570
   90SAPS   H4R 8719   1.140   5.501  10.292  0.0172 -1.2305  0.4375
   90SAPS   H4S 8720   1.140   5.670  10.358  0.1955 -0.9291  0.1936
   90SAPS   C25 8721   1.005   5.651  10.211  0.0295 -0.3136 -0.3262
   90SAPS   H5R 8722   0.927   5.724  10.239  0.1224  0.1568 -1.2524
   90SAPS   C26 8723   1.015   5.630  10.080 -0.7289 -0.2072  0.0452
   90SAPS   H6R 8724   0.937   5.674  10.016 -1.1411  1.7896  1.8067
   90SAPS   C27 8725   1.109   5.540  10.009 -0.4029 -0.1221  0.6310
   90SAPS   H7R 8726   1.166   5.483  10.086 -0.3993  0.6166  1.1857
   90SAPS   H7S 8727   1.181   5.595   9.944  0.4257 -2.2143 -0.3019
   90SAPS   C28 8728   1.028   5.429   9.938 -0.2113  0.3907 -0.1891
   90SAPS   H8R 8729   0.957   5.377  10.003 -0.7662 -0.0258 -1.1102
   90SAPS   C29 8730   1.061   5.383   9.812 -0.3978 -0.4962 -0.3648
   90SAPS   H9R 8731   0.989   5.310   9.772 -0.2486 -0.8143 -0.0593
   90SAPS  C210 8732   1.167   5.432   9.721  0.0804  0.0607  0.2657
   90SAPS  H10R 8733   1.264   5.442   9.774  0.4826 -1.2778 -0.1651
   90SAPS  H10S 8734   1.133   5.535   9.697 -0.1383 -0.1628 -0.4042
   90SAPS  C211 8735   1.198   5.351   9.591 -0.4680 -0.0427 -0.2920
   90SAPS  H11R 8736   1.280   5.280   9.605  0.4705  0.5378 -2.4130
   90SAPS  C212 8737   1.131   5.359   9.476 -0.1273 -0.3709  0.1559
   90SAPS  H12R 8738   1.161   5.288   9.397  0.6069  1.2474 -1.0681
   90SAPS  C213 8739   1.013   5.444   9.444  0.3723 -0.1443 -0.1021
   90SAPS  H13R 8740   0.957   5.483   9.531 -4.1019 -2.4357 -1.6632
   90SAPS  H13S 8741   0.937   5.378   9.397 -0.3420 -1.0320  2.1684
   90SAPS  C214 8742   1.055   5.556   9.353 -0.0848 -0.1093 -0.6625
   90SAPS  H14R 8743   1.080   5.649   9.405 -0.0344 -1.3118  1.5517
   90SAPS  C215 8744   1.066   5.549   9.219  0.3062  0.2843  0.9984
   90SAPS  H15R 8745   1.101   5.637   9.164 -0.1243  0.5634  1.1615
   90SAPS  C216 8746   1.032   5.435   9.123 -0.1217  0.3613  0.6811
   90SAPS  H16R 8747   0.966   5.364   9.177  1.0979  0.1254  1.9120
   90SAPS  H16S 8748   1.130   5.385   9.107  1.3802  3.4233 -0.4941
   90SAPS  C217 8749   0.964   5.480   8.991 -0.0326  1.0114 -0.3595
   90SAPS  H17R 8750   1.015   5.562   8.936 -0.5434  0.1756 -2.1721
   90SAPS  H17S 8751   0.863   5.516   9.020 -0.9295 -2.8803  2.0981
   90SAPS  C218 8752   0.945   5.358   8.892 -0.6247 -0.3961 -0.4683
   90SAPS  H18R 8753   0.879   5.288   8.947 -0.3422  0.6741  1.3174
   90SAPS  H18S 8754   1.041   5.311   8.861 -1.0646 -1.0308 -0.8824
   90SAPS  C219 8755   0.865   5.386   8.756 -0.2281  0.1977 -0.1965
   90SAPS  H19R 8756   0.916   5.459   8.690 -0.3281 -0.1831 -0.6986
   90SAPS  H19S 8757   0.768   5.436   8.776  0.1632  0.7335  0.4451
   90SAPS  C220 8758   0.843   5.256   8.677  0.6254  0.4114 -0.1200
   90SAPS  H20R 8759   0.940   5.230   8.630 -0.0473  0.1177 -1.3994
   90SAPS  H20S 8760   0.769   5.265   8.595 -0.3321 -1.4384  0.4858
   90SAPS  H20T 8761   0.810   5.172   8.742  2.0600 -1.2632 -1.4399
   90SAPS   C33 8762   0.721   5.060   9.856 -0.1047  0.4977  0.3650
   90SAPS   H3X 8763   0.802   5.016   9.793 -0.5655  1.2009 -0.7508
   90SAPS   H3Y 8764   0.744   5.165   9.882  0.8426 -0.3899  3.5136
   90SAPS   C34 8765   0.601   5.051   9.762 -0.4101  0.6470 -0.5722
   90SAPS   H4X 8766   0.527   5.128   9.795  0.7865  1.0051  1.4684
   90SAPS   H4Y 8767   0.552   4.953   9.747 -1.8869  1.1312  0.7147
   90SAPS   C35 8768   0.643   5.089   9.623 -0.5463 -0.0633  0.0051
   90SAPS   H5X 8769   0.717   5.170   9.637 -2.0340  1.1233  1.4948
   90SAPS   H5Y 8770   0.556   5.131   9.568  0.7875  1.4833 -1.0141
   90SAPS   C36 8771   0.694   4.977   9.542 -0.2983  0.1253  0.6365
   90SAPS   H6X 8772   0.601   4.925   9.509  0.4327  0.3517 -2.0417
   90SAPS   H6Y 8773   0.774   4.909   9.579 -0.0149 -0.6363 -1.2386
   90SAPS   C37 8774   0.759   5.020   9.407  0.1389 -0.0807 -0.0514
   90SAPS   H7X 8775   0.797   4.931   9.352 -0.9167 -0.0006 -0.9596
   90SAPS   H7Y 8776   0.851   5.079   9.426 -0.1492  0.3036  0.1705
   90SAPS   C38 8777   0.678   5.117   9.314 -0.0200  0.8970 -0.6536
   90SAPS   H8X 8778   0.658   5.212   9.369  0.1622  1.3925 -1.4341
   90SAPS   H8Y 8779   0.578   5.076   9.289  0.1215  0.6193 -0.7749
   90SAPS   C39 8780   0.755   5.151   9.186  0.1321  0.0373  0.2130
   90SAPS   H9X 8781   0.862   5.123   9.198 -0.0484 -1.6340 -1.5228
   90SAPS   H9Y 8782   0.728   5.257   9.167 -0.6397 -0.2656 -0.4941
   90SAPS  C310 8783   0.694   5.082   9.070  0.1563 -0.1208 -0.2045
   90SAPS  H10X 8784   0.736   5.121   8.975  0.4441 -1.1657 -0.5202
   90SAPS  H10Y 8785   0.590   5.115   9.051 -0.1434 -1.0248 -0.2022
   90SAPS  C311 8786   0.722   4.927   9.049 -0.4453 -0.2459 -0.8442
   90SAPS  H11X 8787   0.675   4.856   9.122 -0.7582 -2.2336 -2.8544
   90SAPS  H11Y 8788   0.830   4.921   9.072 -0.6010  2.6697  1.2178
   90SAPS  C312 8789   0.705   4.863   8.911  0.0447 -0.6970  0.6071
   90SAPS  H12X 8790   0.748   4.767   8.944 -1.3045 -0.5484  3.0298
   90SAPS  H12Y 8791   0.770   4.918   8.839  0.0498  1.1730  1.9561
   90SAPS  C313 8792   0.562   4.842   8.870 -0.2416 -1.0737  0.1033
   90SAPS  H13X 8793   0.498   4.916   8.922 -0.6548 -1.4759  0.1750
   90SAPS  H13Y 8794   0.519   4.743   8.896 -3.0845  0.4427  1.5531
   90SAPS  C314 8795   0.554   4.857   8.718  0.5121 -0.4536  0.1859
   90SAPS  H14X 8796   0.612   4.948   8.691  1.4201 -0.7749  1.0072
   90SAPS  H14Y 8797   0.446   4.876   8.696  0.4400 -0.4926  0.5088
   90SAPS  C315 8798   0.612   4.739   8.640 -0.2742 -0.2812  0.0959
   90SAPS  H15X 8799   0.534   4.669   8.602  0.4499 -1.5379  0.8797
   90SAPS  H15Y 8800   0.671   4.680   8.713 -3.8658 -2.0275  1.8509
   90SAPS  C316 8801   0.708   4.769   8.517 -0.7885 -0.9322  0.3404
   90SAPS  H16X 8802   0.728   4.671   8.469  0.3227 -0.2510 -0.6287
   90SAPS  H16Y 8803   0.798   4.802   8.572 -0.0548 -0.2716 -1.2018
   90SAPS  C317 8804   0.654   4.871   8.413 -0.3908  0.0950 -0.3849
   90SAPS  H17X 8805   0.623   4.966   8.460 -1.1407  0.2019 -1.0677
   90SAPS  H17Y 8806   0.563   4.821   8.373  0.2090 -0.8399 -0.6126
   90SAPS  C318 8807   0.758   4.889   8.303  0.8884  1.1160 -0.0398
   90SAPS  H18X 8808   0.849   4.918   8.360  0.8176 -0.0169  0.6692
   90SAPS  H18Y 8809   0.736   4.968   8.228  0.3443 -0.9853 -2.2071
   90SAPS  H18Z 8810   0.778   4.796   8.247  0.4918  0.2469  1.2155
   91SAPS     N 8811   5.667   3.221   5.720 -0.1187  0.1348 -0.1602
   91SAPS   HN1 8812   5.756   3.234   5.668 -1.4578 -0.2604 -2.7061
   91SAPS   HN2 8813   5.643   3.120   5.723  0.2150 -0.0516 -2.3663
   91SAPS   HN3 8814   5.597   3.269   5.660 -1.1012 -1.6427 -0.5058
   91SAPS   C12 8815   5.657   3.293   5.849  0.8081  0.1616 -0.2945
   91SAPS  H12A 8816   5.716   3.241   5.924 -0.2686  2.8619  2.6738
   91SAPS   C13 8817   5.717   3.436   5.855 -0.1555 -0.9615  0.2163
   91SAPS  O13A 8818   5.788   3.487   5.762 -0.3061  0.8213 -0.1470
   91SAPS  O13B 8819   5.717   3.490   5.971 -0.3825  0.1493  0.4045
   91SAPS   C11 8820   5.507   3.297   5.894 -0.4437  0.2309 -0.2356
   91SAPS  H11A 8821   5.447   3.356   5.821  0.4066  0.7741 -0.5059
   91SAPS  H11B 8822   5.510   3.342   5.996 -2.0733 -1.4883  0.6268
   91SAPS     P 8823   5.307   3.138   5.983  0.1119 -0.0739  0.0016
   91SAPS   O13 8824   5.205   3.227   5.916  0.1679  0.3878  0.4709
   91SAPS   O14 8825   5.281   2.994   5.985 -0.1985  0.0369 -0.3854
   91SAPS   O12 8826   5.451   3.163   5.911  0.3053  0.7476  0.4726
   91SAPS   O11 8827   5.343   3.193   6.126  0.0500 -0.1428  0.6443
   91SAPS    C1 8828   5.254   3.193   6.240 -0.7117 -0.1143 -0.3702
   91SAPS    HA 8829   5.148   3.171   6.217 -0.8121 -0.2547  0.1997
   91SAPS    HB 8830   5.271   3.103   6.303 -0.4497 -0.9906 -1.6671
   91SAPS    C2 8831   5.267   3.334   6.305  0.0068  0.6031 -0.4104
   91SAPS    HS 8832   5.270   3.402   6.218 -0.4573  0.1875 -0.7566
   91SAPS   O21 8833   5.391   3.339   6.369  0.2220  0.1742 -0.0394
   91SAPS   C21 8834   5.448   3.459   6.393 -0.1457  0.5443 -0.4567
   91SAPS   O22 8835   5.416   3.563   6.343  0.4636  0.2131  0.5887
   91SAPS   C22 8836   5.564   3.445   6.490  0.3593  0.3619  0.5151
   91SAPS   H2R 8837   5.569   3.341   6.531 -0.7829  0.0084 -0.1729
   91SAPS   H2S 8838   5.662   3.469   6.444  0.8647 -0.8107  0.9306
   91SAPS    C3 8839   5.145   3.351   6.398 -0.0556 -0.2414  0.1980
   91SAPS    HX 8840   5.147   3.270   6.474  1.1557 -2.1559 -1.7466
   91SAPS    HY 8841   5.066   3.331   6.322  0.1526 -2.0064  0.4081
   91SAPS   O31 8842   5.121   3.480   6.466 -0.3142  0.9044  0.3468
   91SAPS   C31 8843   4.996   3.501   6.503 -0.2742  0.2644 -0.2067
   91SAPS   O32 8844   4.907   3.420   6.490  0.5205  0.5522  0.4067
   91SAPS   C32 8845   4.987   3.635   6.584 -0.5372  0.2536  0.0657
   91SAPS   H2X 8846   4.932   3.705   6.518  0.2586  2.4779  1.6400
   91SAPS   H2Y 8847   5.088   3.678   6.603 -1.0035  1.2674  0.3074
   91SAPS   C23 8848   5.542   3.553   6.600  0.4457  0.3313 -0.4564
   91SAPS   H3R 8849   5.564   3.647   6.546  0.1088  0.5786 -0.1651
   91SAPS   H3S 8850   5.618   3.548   6.681  1.1449 -4.3905 -1.1337
   91SAPS   C24 8851   5.396   3.565   6.662  0.5266 -0.3409 -0.1832
   91SAPS   H4R 8852   5.326   3.617   6.593 -1.3103 -0.3252  1.5853
   91SAPS   H4S 8853   5.421   3.623   6.754  1.8989 -1.7757  0.3869
   91SAPS   C25 8854   5.346   3.425   6.695 -0.2875  0.3568 -0.0837
   91SAPS   H5R 8855   5.340   3.358   6.608 -0.9215 -1.4314  1.2751
   91SAPS   C26 8856   5.306   3.390   6.817  0.1248 -0.0678  0.1780
   91SAPS   H6R 8857   5.276   3.285   6.831  1.2063 -0.3419  0.4818
   91SAPS   C27 8858   5.305   3.469   6.945  0.0765 -0.2771  0.3069
   91SAPS   H7R 8859   5.289   3.576   6.920 -0.2133 -0.4191 -0.1336
   91SAPS   H7S 8860   5.400   3.447   6.997 -0.3957 -2.0772  0.4771
   91SAPS   C28 8861   5.192   3.425   7.033  0.5751  0.3583 -0.4923
   91SAPS   H8R 8862   5.091   3.422   6.991 -0.9938 -0.6775  3.0382
   91SAPS   C29 8863   5.193   3.399   7.165  0.4891 -0.4189  0.0912
   91SAPS   H9R 8864   5.105   3.371   7.225  0.9049 -1.3707  0.2671
   91SAPS  C210 8865   5.319   3.407   7.248 -0.5539  0.0299 -0.1535
   91SAPS  H10R 8866   5.384   3.494   7.225 -0.4938 -0.2856 -1.2413
   91SAPS  H10S 8867   5.387   3.321   7.231 -1.9028 -0.7906 -1.6729
   91SAPS  C211 8868   5.303   3.413   7.398  0.7848 -0.0292  0.5906
   91SAPS  H11R 8869   5.278   3.512   7.437  2.1499  0.7564 -0.4231
   91SAPS  C212 8870   5.313   3.313   7.491  0.1837 -0.4592  0.1952
   91SAPS  H12R 8871   5.298   3.342   7.596 -2.2282 -0.5352 -0.0753
   91SAPS  C213 8872   5.356   3.172   7.475 -0.1449  0.4859 -0.2263
   91SAPS  H13R 8873   5.366   3.154   7.366  0.2644  1.9382 -0.4474
   91SAPS  H13S 8874   5.269   3.111   7.510  1.4535 -1.4752  0.5746
   91SAPS  C214 8875   5.484   3.142   7.550  0.7059 -0.2432 -0.0302
   91SAPS  H14R 8876   5.579   3.151   7.495  0.1890  0.3319 -0.8645
   91SAPS  C215 8877   5.491   3.102   7.674  0.7591  0.4765 -1.2203
   91SAPS  H15R 8878   5.586   3.059   7.711  1.0575 -1.4637 -3.9180
   91SAPS  C216 8879   5.373   3.087   7.770  0.5715 -0.1850  0.7294
   91SAPS  H16R 8880   5.347   2.980   7.755  0.2407 -0.2151  1.4610
   91SAPS  H16S 8881   5.289   3.151   7.735  2.9791  2.3371 -0.8413
   91SAPS  C217 8882   5.394   3.122   7.920 -0.1953 -0.4717 -0.1459
   91SAPS  H17R 8883   5.420   3.230   7.918 -1.3552 -0.1727  0.4016
   91SAPS  H17S 8884   5.480   3.063   7.958  0.8759  1.0721 -0.0453
   91SAPS  C218 8885   5.274   3.091   8.012 -0.6777  0.1110 -0.2649
   91SAPS  H18R 8886   5.214   3.004   7.976  0.0928  0.6137 -2.9870
   91SAPS  H18S 8887   5.202   3.175   8.010 -0.5608  0.2028 -1.0086
   91SAPS  C219 8888   5.317   3.062   8.154 -0.0064  0.3402  0.3302
   91SAPS  H19R 8889   5.354   2.960   8.176 -1.7102 -1.0288 -2.5855
   91SAPS  H19S 8890   5.224   3.050   8.213 -0.3632 -2.0431 -0.6247
   91SAPS  C220 8891   5.402   3.172   8.221  0.3133  0.1297 -0.7141
   91SAPS  H20R 8892   5.344   3.266   8.215 -3.3935 -1.9408 -0.4948
   91SAPS  H20S 8893   5.504   3.201   8.189  0.8097 -0.1532  0.5395
   91SAPS  H20T 8894   5.415   3.141   8.327 -0.4311  3.1573  0.3455
   91SAPS   C33 8895   4.904   3.622   6.717  0.3570  0.1298  0.5919
   91SAPS   H3X 8896   4.978   3.569   6.782  0.5144 -0.6818 -0.2218
   91SAPS   H3Y 8897   4.815   3.557   6.706  0.4093 -0.1134  1.5270
   91SAPS   C34 8898   4.868   3.760   6.784 -0.4411  0.0132  0.0625
   91SAPS   H4X 8899   4.825   3.731   6.883  2.0566 -1.0014  0.9330
   91SAPS   H4Y 8900   4.783   3.803   6.726 -0.7526  0.5349  0.8838
   91SAPS   C35 8901   4.977   3.869   6.810 -1.1072 -0.2121  0.0696
   91SAPS   H5X 8902   4.928   3.960   6.851 -1.0224  0.7012 -1.7442
   91SAPS   H5Y 8903   5.033   3.900   6.719  0.2140  1.5464  1.4070
   91SAPS   C36 8904   5.079   3.834   6.919 -0.1197 -0.2502  0.1277
   91SAPS   H6X 8905   5.166   3.903   6.905 -1.9086  1.8952 -1.0468
   91SAPS   H6Y 8906   5.123   3.732   6.910  0.4696 -0.0103  0.2074
   91SAPS   C37 8907   5.013   3.850   7.059  0.4929 -0.0508  0.1998
   91SAPS   H7X 8908   4.928   3.778   7.060  0.4965 -0.0943 -1.2697
   91SAPS   H7Y 8909   4.972   3.952   7.074 -0.3957 -0.4412  0.5159
   91SAPS   C38 8910   5.100   3.822   7.175 -0.1966  0.4759 -0.6230
   91SAPS   H8X 8911   5.187   3.890   7.162 -1.2777  1.8785 -0.7617
   91SAPS   H8Y 8912   5.126   3.714   7.178  0.5217  0.6587  0.0592
   91SAPS   C39 8913   5.037   3.837   7.314  0.7448  0.2042 -0.0935
   91SAPS   H9X 8914   4.955   3.762   7.326  1.1993 -0.2168  0.4118
   91SAPS   H9Y 8915   5.004   3.942   7.328  0.9328  0.1922  0.4349
   91SAPS  C310 8916   5.133   3.790   7.420  0.4228 -0.7781  0.9420
   91SAPS  H10X 8917   5.224   3.852   7.406 -1.2720  1.8725  1.0817
   91SAPS  H10Y 8918   5.143   3.681   7.396 -2.2454 -0.8280 -0.2269
   91SAPS  C311 8919   5.069   3.796   7.556  0.3062  0.3664 -0.2857
   91SAPS  H11X 8920   4.962   3.768   7.547 -0.5764  2.9383  1.2010
   91SAPS  H11Y 8921   5.072   3.899   7.597  0.1400  1.8007 -3.5400
   91SAPS  C312 8922   5.151   3.699   7.639  0.3959  0.0392 -0.4065
   91SAPS  H12X 8923   5.249   3.749   7.656 -0.0141  0.4236  0.9851
   91SAPS  H12Y 8924   5.161   3.604   7.582  3.2077  1.1140 -1.9220
   91SAPS  C313 8925   5.089   3.692   7.777  0.6526  0.1355  0.2446
   91SAPS  H13X 8926   4.984   3.663   7.758  0.7508  0.0081 -0.1165
   91SAPS  H13Y 8927   5.094   3.797   7.813  0.2933  1.0758 -2.2228
   91SAPS  C314 8928   5.162   3.612   7.884 -0.3640 -0.2652 -0.0660
   91SAPS  H14X 8929   5.267   3.650   7.886  0.0265 -0.9987 -2.7424
   91SAPS  H14Y 8930   5.156   3.504   7.857  2.5569 -0.2793 -1.0333
   91SAPS  C315 8931   5.095   3.629   8.025  0.8400 -0.2112  0.1329
   91SAPS  H15X 8932   4.988   3.610   8.004  0.7030  0.4927  0.1507
   91SAPS  H15Y 8933   5.108   3.732   8.066 -2.4148  1.1914 -1.9704
   91SAPS  C316 8934   5.157   3.523   8.115  0.0578 -0.0889 -0.1615
   91SAPS  H16X 8935   5.268   3.512   8.106 -0.1890 -1.9531 -1.7075
   91SAPS  H16Y 8936   5.121   3.422   8.085 -1.0567 -0.2788  1.6856
   91SAPS  C317 8937   5.106   3.553   8.261  0.1075 -0.1789  0.3652
   91SAPS  H17X 8938   4.996   3.558   8.271  0.1958 -1.5358  2.7558
   91SAPS  H17Y 8939   5.147   3.654   8.282  1.5022 -0.6236 -0.1005
   91SAPS  C318 8940   5.166   3.450   8.366 -0.0903  1.1021 -0.4035
   91SAPS  H18X 8941   5.269   3.482   8.393  0.7391 -1.6106 -0.1015
   91SAPS  H18Y 8942   5.167   3.358   8.305  0.7454 -1.2210  2.8252
   91SAPS  H18Z 8943   5.096   3.439   8.452 -2.9204  0.7198 -2.6179
   92SAPS     N 8944   5.983   0.987   6.340 -0.0942 -0.3086 -0.1405
   92SAPS   HN1 8945   5.986   1.047   6.425  1.5808 -0.1491 -0.2750
   92SAPS   HN2 8946   6.048   0.908   6.358 -1.1789 -1.0157  0.8208
   92SAPS   HN3 8947   6.035   1.051   6.276  0.9137  0.1305  1.0788
   92SAPS   C12 8948   5.856   0.945   6.278  0.1856 -0.1469 -0.2518
   92SAPS  H12A 8949   5.800   1.034   6.250  1.3218  0.4781 -0.6169
   92SAPS   C13 8950   5.879   0.856   6.149  0.0447  0.1711  0.6313
   92SAPS  O13A 8951   5.993   0.828   6.110 -0.1599 -0.3735 -0.2224
   92SAPS  O13B 8952   5.775   0.841   6.076 -0.5616 -0.2501  0.1106
   92SAPS   C11 8953   5.771   0.859   6.379  0.2030  0.1023  0.3475
   92SAPS  H11A 8954   5.832   0.768   6.398  0.8912  0.6307  0.7242
   92SAPS  H11B 8955   5.678   0.823   6.331 -0.1957  0.6643  0.6805
   92SAPS     P 8956   5.721   0.873   6.635  0.3872  0.0993  0.4467
   92SAPS   O13 8957   5.606   0.936   6.700 -0.3887  1.1421 -0.0444
   92SAPS   O14 8958   5.717   0.725   6.622 -0.4378  0.0190  0.0132
   92SAPS   O12 8959   5.726   0.935   6.491  0.2197  0.3861  0.3386
   92SAPS   O11 8960   5.851   0.920   6.702 -0.7225  0.3675 -0.5405
   92SAPS    C1 8961   5.962   0.840   6.730 -0.4960 -0.6479  0.4489
   92SAPS    HA 8962   5.981   0.755   6.662  1.0955  0.8508 -1.1064
   92SAPS    HB 8963   6.051   0.906   6.722 -1.4155  0.5573 -0.1808
   92SAPS    C2 8964   5.952   0.776   6.869  0.5530 -0.4303  1.0066
   92SAPS    HS 8965   5.889   0.686   6.853  0.1806 -0.0596  0.3368
   92SAPS   O21 8966   5.898   0.873   6.961  0.0180  0.2027 -0.4602
   92SAPS   C21 8967   5.793   0.834   7.027  0.2171 -0.3880  0.0660
   92SAPS   O22 8968   5.748   0.719   7.021 -0.2790 -0.0071 -0.1529
   92SAPS   C22 8969   5.742   0.944   7.114 -0.3203 -0.8059 -0.9022
   92SAPS   H2R 8970   5.828   1.011   7.138 -0.2626 -1.2191  0.0955
   92SAPS   H2S 8971   5.655   0.994   7.067 -0.3569 -0.6235 -0.6439
   92SAPS    C3 8972   6.100   0.747   6.904  0.8260 -0.1954 -0.6193
   92SAPS    HX 8973   6.147   0.848   6.907 -1.9657  1.1851 -0.2001
   92SAPS    HY 8974   6.147   0.681   6.828  0.1607 -1.8397  0.3365
   92SAPS   O31 8975   6.105   0.685   7.032  0.0810  0.6454 -0.5762
   92SAPS   C31 8976   6.082   0.559   7.037 -0.1188  0.3617 -1.2572
   92SAPS   O32 8977   6.098   0.479   6.944 -0.0273  0.4162  0.0156
   92SAPS   C32 8978   6.047   0.527   7.185  0.1589  1.0408  0.1270
   92SAPS   H2X 8979   5.941   0.559   7.195 -0.6103  0.5318 -4.3031
   92SAPS   H2Y 8980   6.111   0.591   7.249 -0.9778  0.7826  1.5542
   92SAPS   C23 8981   5.696   0.906   7.250  0.6500  0.2946 -0.3335
   92SAPS   H3R 8982   5.631   0.820   7.226 -0.8758  1.3365 -0.0572
   92SAPS   H3S 8983   5.641   0.987   7.304  0.1729 -1.2321  1.6005
   92SAPS   C24 8984   5.800   0.837   7.350  0.6434 -0.5219  0.2487
   92SAPS   H4R 8985   5.863   0.924   7.381 -2.2683  1.0046  2.3253
   92SAPS   H4S 8986   5.853   0.753   7.299  1.2161 -0.0629  0.0717
   92SAPS   C25 8987   5.708   0.799   7.466  0.2307  0.0515 -0.1329
   92SAPS   H5R 8988   5.631   0.869   7.500  0.8916  0.6777  0.1207
   92SAPS   C26 8989   5.712   0.673   7.514  0.0600  0.4401 -0.4944
   92SAPS   H6R 8990   5.633   0.640   7.584 -0.0294 -0.2392 -0.9051
   92SAPS   C27 8991   5.807   0.565   7.482  0.3348  0.9506 -0.4313
   92SAPS   H7R 8992   5.813   0.557   7.371  2.6626 -1.8122 -0.2083
   92SAPS   H7S 8993   5.766   0.470   7.522  1.0186  1.4945  1.7055
   92SAPS   C28 8994   5.951   0.579   7.536  0.7338  0.1575 -0.4138
   92SAPS   H8R 8995   5.998   0.675   7.512  0.6874  0.3544  0.2586
   92SAPS   C29 8996   6.023   0.490   7.609 -0.2965  0.7298  0.1570
   92SAPS   H9R 8997   6.129   0.512   7.626 -0.6791  3.4479 -0.4297
   92SAPS  C210 8998   5.969   0.351   7.648 -0.0546  0.0453 -0.4336
   92SAPS  H10R 8999   6.007   0.274   7.576  1.4179 -0.5288  0.8831
   92SAPS  H10S 9000   5.859   0.341   7.652  0.0638 -1.2012  0.6587
   92SAPS  C211 9001   6.012   0.329   7.798  0.2591  0.7492 -0.0790
   92SAPS  H11R 9002   6.109   0.374   7.827 -0.3723  0.9201  1.9203
   92SAPS  C212 9003   5.938   0.262   7.885  0.6945  0.6912  0.2638
   92SAPS  H12R 9004   5.975   0.265   7.988 -0.9622 -2.2524  1.0551
   92SAPS  C213 9005   5.799   0.196   7.869 -0.5575  0.3516 -0.1983
   92SAPS  H13R 9006   5.767   0.204   7.763 -1.0865  0.2002 -0.0544
   92SAPS  H13S 9007   5.721   0.249   7.927 -0.8140 -0.4835  0.2421
   92SAPS  C214 9008   5.808   0.055   7.922  0.1239 -0.6408  0.4074
   92SAPS  H14R 9009   5.838  -0.019   7.846  2.1820 -1.1859  1.6802
   92SAPS  C215 9010   5.800   0.010   8.045 -0.3231  0.4254  0.2066
   92SAPS  H15R 9011   5.804  -0.098   8.063  1.3649  0.3211 -0.6508
   92SAPS  C216 9012   5.769   0.092   8.169  0.4128 -0.0145 -0.1693
   92SAPS  H16R 9013   5.666   0.083   8.211  0.9114  0.1715  1.1198
   92SAPS  H16S 9014   5.777   0.200   8.146  0.2795 -0.0288 -0.2864
   92SAPS  C217 9015   5.878   0.051   8.272 -1.1467  0.9687 -0.3446
   92SAPS  H17R 9016   5.880   0.113   8.364 -0.4906 -1.2301  1.2342
   92SAPS  H17S 9017   5.978   0.061   8.224 -0.8248 -1.5366 -0.3680
   92SAPS  C218 9018   5.848  -0.084   8.352 -0.2258  0.1106 -0.3453
   92SAPS  H18R 9019   5.827  -0.172   8.287 -2.6045  0.2180  0.1937
   92SAPS  H18S 9020   5.757  -0.063   8.411 -0.2541 -2.2580  0.5883
   92SAPS  C219 9021   5.961  -0.127   8.455 -0.6187 -0.4406 -0.4383
   92SAPS  H19R 9022   5.977  -0.046   8.529  0.5502  0.2807 -1.4508
   92SAPS  H19S 9023   6.052  -0.144   8.394 -0.1522  1.7500 -0.4209
   92SAPS  C220 9024   5.922  -0.254   8.527 -0.7496  0.2330  0.5777
   92SAPS  H20R 9025   5.912  -0.345   8.465  0.3130 -3.0711  4.7545
   92SAPS  H20S 9026   5.834  -0.240   8.594 -0.3930  0.8133  0.9325
   92SAPS  H20T 9027   6.006  -0.287   8.592  0.2315  0.8779 -0.3398
   92SAPS   C33 9028   6.055   0.380   7.229  0.3669  0.1813 -0.3502
   92SAPS   H3X 9029   6.000   0.314   7.159 -0.6817  1.0948 -0.4225
   92SAPS   H3Y 9030   6.014   0.379   7.332  3.8856 -1.3631  1.2027
   92SAPS   C34 9031   6.203   0.339   7.249  0.6172 -0.7386  0.5174
   92SAPS   H4X 9032   6.246   0.416   7.316 -0.2656 -2.3636  3.0919
   92SAPS   H4Y 9033   6.245   0.345   7.146 -0.8984 -0.3871 -0.1137
   92SAPS   C35 9034   6.229   0.207   7.324 -0.0952  0.8248 -0.1613
   92SAPS   H5X 9035   6.197   0.224   7.429  1.0806  2.0516  0.0285
   92SAPS   H5Y 9036   6.336   0.178   7.331 -0.2098  0.2068 -0.8841
   92SAPS   C36 9037   6.152   0.090   7.257  0.3764  0.2532 -0.3829
   92SAPS   H6X 9038   6.200   0.047   7.167  0.5748  0.9347 -0.6074
   92SAPS   H6Y 9039   6.048   0.116   7.227 -0.8463 -4.1801 -0.6833
   92SAPS   C37 9040   6.135  -0.025   7.356  0.1029  0.0427 -0.2599
   92SAPS   H7X 9041   6.066   0.014   7.433  0.2858 -0.4379  0.1534
   92SAPS   H7Y 9042   6.227  -0.065   7.403 -1.0866  0.6360  2.7763
   92SAPS   C38 9043   6.083  -0.152   7.289 -0.9455  0.0928 -0.0055
   92SAPS   H8X 9044   6.153  -0.184   7.210  0.1984 -0.0922  1.0487
   92SAPS   H8Y 9045   5.985  -0.121   7.246 -1.3815  0.4453  1.1834
   92SAPS   C39 9046   6.052  -0.268   7.379 -0.3570 -0.1557 -0.6170
   92SAPS   H9X 9047   6.147  -0.316   7.411 -1.9229 -1.9834  1.6225
   92SAPS   H9Y 9048   5.988  -0.344   7.329  2.4815 -1.2551 -2.8629
   92SAPS  C310 9049   5.977  -0.229   7.511  0.3197  0.1345 -0.3451
   92SAPS  H10X 9050   5.888  -0.163   7.499  0.0328  0.2748  2.0982
   92SAPS  H10Y 9051   6.044  -0.163   7.570 -0.0857  2.2336 -2.0872
   92SAPS  C311 9052   5.942  -0.347   7.606 -0.6297 -0.4028 -0.0795
   92SAPS  H11X 9053   6.032  -0.405   7.633 -0.8489 -1.1151 -0.8328
   92SAPS  H11Y 9054   5.877  -0.413   7.544  0.0325  1.1285 -2.5678
   92SAPS  C312 9055   5.882  -0.285   7.732 -0.0026  1.2189 -0.3813
   92SAPS  H12X 9056   5.788  -0.232   7.707 -0.8590 -0.0527  0.0334
   92SAPS  H12Y 9057   5.954  -0.222   7.789  0.2650 -0.4485  1.2220
   92SAPS  C313 9058   5.847  -0.407   7.823 -0.2942 -0.0520 -0.1151
   92SAPS  H13X 9059   5.936  -0.474   7.819 -1.6252 -1.8759 -1.3213
   92SAPS  H13Y 9060   5.757  -0.455   7.777 -0.4232 -2.1653  2.1728
   92SAPS  C314 9061   5.813  -0.376   7.972 -0.4158  0.0493  0.2065
   92SAPS  H14X 9062   5.726  -0.308   7.962  0.8620  1.4986 -2.0335
   92SAPS  H14Y 9063   5.887  -0.311   8.025 -1.8977  1.5133  0.5490
   92SAPS  C315 9064   5.773  -0.495   8.050  0.1267 -0.3011  0.4686
   92SAPS  H15X 9065   5.867  -0.555   8.051  0.6081  0.3855 -0.9145
   92SAPS  H15Y 9066   5.693  -0.548   7.994 -0.8177 -2.3330  3.5158
   92SAPS  C316 9067   5.705  -0.457   8.188 -0.5748  0.3392  0.2676
   92SAPS  H16X 9068   5.770  -0.409   8.264 -1.6172  1.2064  0.6409
   92SAPS  H16Y 9069   5.664  -0.551   8.230  1.4813 -0.5294  0.4487
   92SAPS  C317 9070   5.570  -0.379   8.186  1.0120  0.3327 -0.1556
   92SAPS  H17X 9071   5.499  -0.452   8.141 -0.3705 -0.3714  2.9225
   92SAPS  H17Y 9072   5.570  -0.281   8.134  2.3608 -0.2321 -1.3007
   92SAPS  C318 9073   5.520  -0.350   8.328  0.4663 -1.1215 -0.2122
   92SAPS  H18X 9074   5.425  -0.294   8.322  0.7046 -0.8053 -1.1948
   92SAPS  H18Y 9075   5.594  -0.281   8.373 -0.8289  1.0689 -1.3032
   92SAPS  H18Z 9076   5.516  -0.448   8.381 -0.8206 -0.4314  1.0119
   93SAPS     N 9077   0.078   1.090   6.266  0.4756  0.5815 -0.0903
   93SAPS   HN1 9078   0.032   0.999   6.244  1.2007 -0.3437  1.9273
   93SAPS   HN2 9079   0.138   1.071   6.349 -0.3800 -1.9838  0.0236
   93SAPS   HN3 9080   0.009   1.164   6.292 -1.9764 -0.7893 -2.1620
   93SAPS   C12 9081   0.159   1.146   6.148  0.1166  0.2196  0.0681
   93SAPS  H12A 9082   0.147   1.077   6.066 -4.0685 -0.2824  0.8656
   93SAPS   C13 9083   0.094   1.277   6.092 -0.5510  0.1029  0.0969
   93SAPS  O13A 9084  -0.004   1.331   6.140 -0.3756 -0.1424  0.0080
   93SAPS  O13B 9085   0.137   1.306   5.977  0.1291 -0.8598  0.5988
   93SAPS   C11 9086   0.305   1.180   6.196  0.1927  0.2290  0.2680
   93SAPS  H11A 9087   0.296   1.250   6.282 -1.5390 -1.4045  1.5094
   93SAPS  H11B 9088   0.361   1.240   6.122 -0.0918  0.7694  0.4787
   93SAPS     P 9089   0.388   1.017   6.384 -0.0403  0.3118  0.1800
   93SAPS   O13 9090   0.254   1.033   6.446 -0.1313 -0.5491 -0.1753
   93SAPS   O14 9091   0.446   0.883   6.395  0.4365  0.5221 -0.6351
   93SAPS   O12 9092   0.372   1.057   6.233 -0.3197  0.1210  0.3135
   93SAPS   O11 9093   0.486   1.129   6.442 -0.4102 -0.0553  0.2223
   93SAPS    C1 9094   0.633   1.121   6.429  0.1609 -0.3415 -0.6658
   93SAPS    HA 9095   0.661   1.060   6.341 -0.8411 -0.0256 -1.2160
   93SAPS    HB 9096   0.678   1.223   6.429 -1.4516  0.4901  1.9565
   93SAPS    C2 9097   0.689   1.049   6.552 -0.4146  0.6696  0.3699
   93SAPS    HS 9098   0.671   0.939   6.547  0.1639  0.6157 -1.4549
   93SAPS   O21 9099   0.645   1.115   6.671 -0.3687 -0.0184  0.4141
   93SAPS   C21 9100   0.641   1.049   6.777  0.5193  0.6538  0.4174
   93SAPS   O22 9101   0.633   0.925   6.775  0.5398  0.3277 -0.0378
   93SAPS   C22 9102   0.633   1.137   6.913  0.3559 -0.0100  0.3195
   93SAPS   H2R 9103   0.736   1.176   6.928  0.4598 -0.8018  1.8780
   93SAPS   H2S 9104   0.565   1.220   6.883  0.8230 -0.3410 -1.7821
   93SAPS    C3 9105   0.843   1.064   6.541  0.3615  0.4728  0.5299
   93SAPS    HX 9106   0.875   1.170   6.551  0.1901  0.8999 -2.5783
   93SAPS    HY 9107   0.870   1.045   6.435  1.2436 -0.3555  0.8984
   93SAPS   O31 9108   0.916   0.972   6.623 -0.2708  0.2316 -0.2855
   93SAPS   C31 9109   0.956   1.022   6.741 -0.1135  0.6351 -0.2559
   93SAPS   O32 9110   0.930   1.136   6.783 -0.3999  0.6040 -0.1153
   93SAPS   C32 9111   1.038   0.917   6.816 -0.4857  0.1093  0.8309
   93SAPS   H2X 9112   1.136   0.924   6.763 -1.7228 -0.0134 -1.6554
   93SAPS   H2Y 9113   1.008   0.812   6.794 -0.5945  0.5432 -1.3836
   93SAPS   C23 9114   0.585   1.051   7.031 -0.2435  0.0983  0.2114
   93SAPS   H3R 9115   0.659   0.971   7.050  0.8738  1.4631  1.9521
   93SAPS   H3S 9116   0.485   1.007   7.011 -2.0156  3.4242  0.8916
   93SAPS   C24 9117   0.559   1.135   7.158  0.4480 -0.5620  0.6754
   93SAPS   H4R 9118   0.492   1.218   7.127 -0.2394 -0.1960  2.9561
   93SAPS   H4S 9119   0.648   1.193   7.193  0.3584  1.1466 -1.6312
   93SAPS   C25 9120   0.486   1.062   7.267 -0.8482 -0.1730  0.4059
   93SAPS   H5R 9121   0.395   1.015   7.226 -0.1105 -1.0811 -0.2441
   93SAPS   C26 9122   0.519   1.037   7.398 -0.3690 -0.0568  0.3413
   93SAPS   H6R 9123   0.451   0.978   7.463  2.8853 -3.1651  1.2497
   93SAPS   C27 9124   0.643   1.091   7.473  0.1303  0.1304  0.1356
   93SAPS   H7R 9125   0.605   1.177   7.532 -1.5218 -1.3864  1.3731
   93SAPS   H7S 9126   0.716   1.128   7.398  0.5658  0.2666  0.6158
   93SAPS   C28 9127   0.715   1.000   7.561 -0.2580  0.2900  0.2663
   93SAPS   H8R 9128   0.797   0.946   7.513 -0.3333 -0.2707  0.7513
   93SAPS   C29 9129   0.700   0.990   7.693  0.3150 -0.3867  0.1301
   93SAPS   H9R 9130   0.750   0.914   7.756 -0.1216 -1.2456 -0.5444
   93SAPS  C210 9131   0.598   1.074   7.770 -0.6875  0.7783  0.4092
   93SAPS  H10R 9132   0.576   1.174   7.726  0.6651  1.1184  0.4560
   93SAPS  H10S 9133   0.643   1.097   7.869 -0.8574 -1.4681  1.0581
   93SAPS  C211 9134   0.474   0.985   7.780  0.3146 -0.1981  0.3330
   93SAPS  H11R 9135   0.441   0.958   7.679  2.6382  0.6288 -0.7362
   93SAPS  C212 9136   0.436   0.931   7.893  0.3449 -0.7956 -0.3481
   93SAPS  H12R 9137   0.353   0.860   7.903 -0.5159  0.2454  0.0469
   93SAPS  C213 9138   0.496   0.962   8.033 -0.1686 -0.5083  0.4045
   93SAPS  H13R 9139   0.601   0.998   8.029 -0.4597  0.3372 -3.8324
   93SAPS  H13S 9140   0.506   0.869   8.093  0.3985  0.6647  2.1990
   93SAPS  C214 9141   0.414   1.070   8.108 -0.1415 -0.0700 -0.7445
   93SAPS  H14R 9142   0.398   1.165   8.054  0.9171 -0.7191 -2.2724
   93SAPS  C215 9143   0.369   1.068   8.236 -0.7466 -0.4247 -0.8084
   93SAPS  H15R 9144   0.307   1.151   8.274  0.7209  0.9150 -1.2564
   93SAPS  C216 9145   0.392   0.954   8.333  0.4154  0.5672  0.9291
   93SAPS  H16R 9146   0.475   0.889   8.298 -0.9426 -1.7957  1.8949
   93SAPS  H16S 9147   0.294   0.901   8.337  1.1578 -0.7854  2.1554
   93SAPS  C217 9148   0.429   1.011   8.471 -0.3445 -0.1620  0.1631
   93SAPS  H17R 9149   0.504   1.090   8.454  0.2713 -0.9400 -0.8690
   93SAPS  H17S 9150   0.487   0.940   8.535 -1.0549  0.8733  2.0252
   93SAPS  C218 9151   0.310   1.073   8.556 -1.1807  0.1401  0.3103
   93SAPS  H18R 9152   0.274   0.988   8.617  2.3200 -0.0792  2.2953
   93SAPS  H18S 9153   0.235   1.124   8.491 -1.4462  0.5778  0.9530
   93SAPS  C219 9154   0.367   1.157   8.678  0.5503 -0.2389 -0.0071
   93SAPS  H19R 9155   0.433   1.238   8.642  1.4098  0.1755  2.2818
   93SAPS  H19S 9156   0.420   1.087   8.747 -1.1688 -0.3133  1.3022
   93SAPS  C220 9157   0.255   1.222   8.748 -0.0927  0.1885 -0.8940
   93SAPS  H20R 9158   0.295   1.259   8.844 -0.1947 -1.6911 -0.0832
   93SAPS  H20S 9159   0.164   1.161   8.764  0.2252 -0.0656  0.0154
   93SAPS  H20T 9160   0.216   1.314   8.699 -1.4484 -0.3764 -0.9253
   93SAPS   C33 9161   1.064   0.950   6.968 -0.6391 -0.8422  0.6165
   93SAPS   H3X 9162   1.059   1.058   6.993  0.6689 -0.7901  0.7614
   93SAPS   H3Y 9163   1.167   0.913   6.986  0.1313  0.9440  0.1258
   93SAPS   C34 9164   0.964   0.874   7.060 -0.3069  0.0228 -0.5124
   93SAPS   H4X 9165   0.975   0.763   7.053 -2.4318 -0.2102 -0.9246
   93SAPS   H4Y 9166   0.861   0.895   7.026  0.3598  0.8746 -2.1354
   93SAPS   C35 9167   0.980   0.913   7.213 -0.0531 -0.4365  0.5468
   93SAPS   H5X 9168   0.923   0.840   7.274 -0.9144  1.7580  2.4931
   93SAPS   H5Y 9169   0.922   1.004   7.238 -0.8077 -0.9804  0.7952
   93SAPS   C36 9170   1.125   0.918   7.261  0.5522  0.6878  0.7191
   93SAPS   H6X 9171   1.170   1.008   7.213  0.8411  1.2614  2.0427
   93SAPS   H6Y 9172   1.182   0.827   7.233 -1.0678  0.1274 -1.0181
   93SAPS   C37 9173   1.139   0.934   7.417 -0.4364  0.0259  0.6556
   93SAPS   H7X 9174   1.069   1.013   7.452  1.3205  2.9519 -1.9932
   93SAPS   H7Y 9175   1.243   0.961   7.444  0.3765 -0.3467 -1.8694
   93SAPS   C38 9176   1.115   0.808   7.498 -0.1547  0.5475  0.3238
   93SAPS   H8X 9177   1.179   0.727   7.458 -0.4778  2.2516 -4.2072
   93SAPS   H8Y 9178   1.014   0.769   7.475 -0.3404  0.6125  0.9878
   93SAPS   C39 9179   1.119   0.832   7.647 -0.5651 -0.2503 -0.1264
   93SAPS   H9X 9180   1.045   0.914   7.663 -0.7438 -0.0605 -1.7715
   93SAPS   H9Y 9181   1.217   0.866   7.685  0.4533 -0.2766 -2.5260
   93SAPS  C310 9182   1.074   0.700   7.718 -0.6279 -0.0384 -0.5274
   93SAPS  H10X 9183   1.129   0.612   7.678 -0.4685 -0.7329  1.1400
   93SAPS  H10Y 9184   0.964   0.685   7.709 -0.7994 -0.1554  1.2901
   93SAPS  C311 9185   1.102   0.688   7.866  0.8536  0.1028 -0.2938
   93SAPS  H11X 9186   1.208   0.715   7.886  0.1898  1.5988  1.6561
   93SAPS  H11Y 9187   1.076   0.587   7.904  2.0042 -0.2281 -0.3752
   93SAPS  C312 9188   1.006   0.779   7.956 -0.4567  0.6315  0.0701
   93SAPS  H12X 9189   0.906   0.804   7.914 -0.1005  0.8171 -0.6876
   93SAPS  H12Y 9190   1.053   0.878   7.974  1.4252 -0.5097  1.8587
   93SAPS  C313 9191   0.990   0.744   8.108  0.4136 -0.3000 -0.2717
   93SAPS  H13X 9192   0.900   0.678   8.114 -0.0745  0.3190 -0.7222
   93SAPS  H13Y 9193   0.973   0.829   8.177  0.8042 -0.0527 -0.4804
   93SAPS  C314 9194   1.109   0.670   8.177 -0.3272 -0.4295  0.4849
   93SAPS  H14X 9195   1.201   0.722   8.143 -0.9214  2.6733  3.0303
   93SAPS  H14Y 9196   1.111   0.561   8.159 -0.2631 -0.6173  1.5494
   93SAPS  C315 9197   1.119   0.695   8.330 -0.2929  0.0236  0.1896
   93SAPS  H15X 9198   1.027   0.650   8.373 -0.9030  1.0587  0.0038
   93SAPS  H15Y 9199   1.104   0.804   8.347  0.2732  0.0129  0.8281
   93SAPS  C316 9200   1.255   0.642   8.378  0.5393  0.4416 -0.7436
   93SAPS  H16X 9201   1.330   0.712   8.335  0.7156  0.3622 -0.5714
   93SAPS  H16Y 9202   1.273   0.540   8.337  0.2034  0.3339 -0.6223
   93SAPS  C317 9203   1.264   0.632   8.533  1.1188  0.4355 -0.3694
   93SAPS  H17X 9204   1.373   0.629   8.558  1.6048 -0.9363 -2.4357
   93SAPS  H17Y 9205   1.227   0.532   8.562  1.9149  0.3777  0.4967
   93SAPS  C318 9206   1.185   0.743   8.610 -0.4068 -0.3402  0.6059
   93SAPS  H18X 9207   1.185   0.727   8.720  0.4897  0.1316  0.6891
   93SAPS  H18Y 9208   1.080   0.745   8.574 -1.0064  0.9580  2.3025
   93SAPS  H18Z 9209   1.231   0.838   8.573 -1.1172  0.5254  1.8782
   94SAPS     N 9210   0.124   3.611   5.983  0.0975 -0.2802 -0.0075
   94SAPS   HN1 9211   0.088   3.534   6.043  0.8851 -1.0350 -0.4787
   94SAPS   HN2 9212   0.186   3.580   5.906 -0.7670  0.3692 -1.0012
   94SAPS   HN3 9213   0.180   3.667   6.051 -1.2393  1.1013  0.0230
   94SAPS   C12 9214   0.008   3.686   5.918  0.0086 -0.4966  0.4452
   94SAPS  H12A 9215  -0.037   3.750   5.993 -0.3754  1.9797 -1.7576
   94SAPS   C13 9216   0.052   3.777   5.795 -0.6750 -0.7648 -0.4751
   94SAPS  O13A 9217   0.174   3.789   5.756  0.4818 -0.1826 -0.1191
   94SAPS  O13B 9218  -0.036   3.842   5.739  0.2919 -0.4446  0.3385
   94SAPS   C11 9219  -0.111   3.583   5.874 -0.4377  0.4972 -0.0936
   94SAPS  H11A 9220  -0.069   3.506   5.806  1.4642 -0.9910  2.5541
   94SAPS  H11B 9221  -0.191   3.642   5.825 -0.5939  0.9298  0.6618
   94SAPS     P 9222  -0.290   3.527   6.063 -0.3460  0.2942  0.1460
   94SAPS   O13 9223  -0.385   3.617   5.990  0.4610  0.9066 -0.1059
   94SAPS   O14 9224  -0.336   3.391   6.087 -0.0178 -0.0207 -0.6748
   94SAPS   O12 9225  -0.154   3.520   5.987 -0.1349  0.5200  0.6672
   94SAPS   O11 9226  -0.253   3.592   6.201  0.1057  0.1511 -0.7857
   94SAPS    C1 9227  -0.151   3.532   6.282 -0.0667 -0.5492  0.5182
   94SAPS    HA 9228  -0.140   3.425   6.252  1.3070 -0.3065  0.0795
   94SAPS    HB 9229  -0.047   3.569   6.269 -0.1871 -0.7315 -1.2308
   94SAPS    C2 9230  -0.185   3.535   6.428 -0.1308 -0.3139  0.0267
   94SAPS    HS 9231  -0.278   3.476   6.446  0.0743  0.2557  3.8292
   94SAPS   O21 9232  -0.198   3.675   6.466 -0.3784 -0.4083  0.2862
   94SAPS   C21 9233  -0.287   3.708   6.544  0.3191  0.0589 -0.1811
   94SAPS   O22 9234  -0.388   3.643   6.573  0.1460  0.2069  0.1970
   94SAPS   C22 9235  -0.254   3.838   6.621 -0.7792 -0.4677 -0.8907
   94SAPS   H2R 9236  -0.186   3.816   6.706  1.0464 -2.3017 -2.7343
   94SAPS   H2S 9237  -0.193   3.901   6.552  0.8196 -2.0014 -0.9604
   94SAPS    C3 9238  -0.089   3.473   6.530 -0.3704  0.5580 -0.2780
   94SAPS    HX 9239   0.007   3.528   6.526 -0.9657  1.6006 -0.5587
   94SAPS    HY 9240  -0.062   3.367   6.509 -2.8765  0.2598 -2.5060
   94SAPS   O31 9241  -0.133   3.481   6.666 -0.6524 -0.4953 -0.1797
   94SAPS   C31 9242  -0.229   3.396   6.695 -0.6731 -0.3346  0.1479
   94SAPS   O32 9243  -0.268   3.315   6.612 -0.1562 -0.0012 -0.6654
   94SAPS   C32 9244  -0.292   3.402   6.837  0.9648  0.0801 -0.4125
   94SAPS   H2X 9245  -0.397   3.415   6.803  0.8493  0.9156  0.2345
   94SAPS   H2Y 9246  -0.261   3.498   6.884 -1.3666  1.2984 -1.2334
   94SAPS   C23 9247  -0.374   3.908   6.692  0.0209 -0.2913  0.1405
   94SAPS   H3R 9248  -0.453   3.833   6.712 -0.5056  0.4461  0.8655
   94SAPS   H3S 9249  -0.426   3.987   6.634 -2.8374 -0.1250  2.7012
   94SAPS   C24 9250  -0.334   3.962   6.834 -0.4805  0.7891 -0.0901
   94SAPS   H4R 9251  -0.313   3.872   6.896 -0.7138  0.3969 -0.5699
   94SAPS   H4S 9252  -0.424   4.011   6.878 -0.6820  0.9500 -0.6685
   94SAPS   C25 9253  -0.222   4.064   6.831 -0.3799  0.3136  0.3733
   94SAPS   H5R 9254  -0.202   4.120   6.738  0.5466  0.3346  0.5757
   94SAPS   C26 9255  -0.157   4.113   6.939 -0.1912  0.0971 -0.9274
   94SAPS   H6R 9256  -0.076   4.187   6.928  0.1460  0.2382  1.7136
   94SAPS   C27 9257  -0.186   4.076   7.090  0.0838 -0.1340  0.3021
   94SAPS   H7R 9258  -0.150   3.971   7.098 -0.7871 -0.7520 -2.5248
   94SAPS   H7S 9259  -0.295   4.064   7.106 -0.0550 -1.5114 -1.3460
   94SAPS   C28 9260  -0.110   4.183   7.176  0.7445 -0.0872  0.7334
   94SAPS   H8R 9261  -0.131   4.289   7.152  0.5746 -0.3394 -0.3124
   94SAPS   C29 9262  -0.017   4.154   7.263 -0.5463  0.2750 -0.4039
   94SAPS   H9R 9263   0.026   4.232   7.326  1.8970 -2.1650  1.1710
   94SAPS  C210 9264   0.045   4.017   7.287  0.5693 -0.1660 -0.6446
   94SAPS  H10R 9265   0.106   3.982   7.201  0.9055 -1.5933  0.1414
   94SAPS  H10S 9266  -0.033   3.938   7.292 -1.3609  1.6458 -0.6067
   94SAPS  C211 9267   0.119   4.012   7.421  0.5775 -0.0280 -0.3946
   94SAPS  H11R 9268   0.228   4.023   7.423  0.5274  0.6925 -1.0415
   94SAPS  C212 9269   0.053   3.993   7.537  0.5920  0.8208  0.3587
   94SAPS  H12R 9270   0.112   3.978   7.629 -0.3874 -0.4500  0.7987
   94SAPS  C213 9271  -0.100   3.969   7.551  0.1377 -0.8137 -0.5745
   94SAPS  H13R 9272  -0.113   3.872   7.605  0.7709  0.5192  2.1590
   94SAPS  H13S 9273  -0.162   3.983   7.460  0.4804 -0.6480 -0.7828
   94SAPS  C214 9274  -0.159   4.079   7.633 -0.3899 -0.0458  0.2797
   94SAPS  H14R 9275  -0.168   4.170   7.573 -0.6025  0.5934  1.2607
   94SAPS  C215 9276  -0.206   4.074   7.758 -0.0808  0.2045  0.2322
   94SAPS  H15R 9277  -0.233   4.172   7.797 -1.7106 -0.6066  1.2380
   94SAPS  C216 9278  -0.207   3.951   7.840  0.3275 -0.2070  0.0535
   94SAPS  H16R 9279  -0.230   3.863   7.777 -0.6718  0.1978 -0.1728
   94SAPS  H16S 9280  -0.292   3.947   7.912  0.6050 -2.0035  0.3141
   94SAPS  C217 9281  -0.077   3.921   7.919  0.1666  0.3256 -0.0944
   94SAPS  H17R 9282  -0.063   4.001   7.996 -0.4893  0.9226 -0.5834
   94SAPS  H17S 9283   0.014   3.920   7.856  1.4115 -0.4514  1.6298
   94SAPS  C218 9284  -0.072   3.782   8.000  0.2256  0.0253  1.3146
   94SAPS  H18R 9285  -0.081   3.700   7.926  1.8754 -0.4702  1.6320
   94SAPS  H18S 9286  -0.151   3.773   8.078 -1.3306 -1.1203 -0.3251
   94SAPS  C219 9287   0.059   3.767   8.076 -0.4005 -0.2258  0.3070
   94SAPS  H19R 9288   0.088   3.852   8.141  1.8438 -0.7573  0.0904
   94SAPS  H19S 9289   0.141   3.775   8.001  0.5526  0.8921  1.4330
   94SAPS  C220 9290   0.051   3.644   8.162 -0.1198 -0.0219 -0.4840
   94SAPS  H20R 9291  -0.048   3.630   8.210  1.1601 -2.7515  1.6579
   94SAPS  H20S 9292   0.124   3.624   8.244  1.2280  2.4683 -0.9799
   94SAPS  H20T 9293   0.070   3.551   8.104  1.8303 -1.9526  2.8989
   94SAPS   C33 9294  -0.283   3.272   6.914 -0.0012  0.0571 -0.8603
   94SAPS   H3X 9295  -0.179   3.234   6.920 -0.7883 -2.0108  1.2445
   94SAPS   H3Y 9296  -0.331   3.191   6.855 -0.8909 -0.7740  0.9158
   94SAPS   C34 9297  -0.348   3.290   7.055 -0.7924  0.2229  0.4110
   94SAPS   H4X 9298  -0.447   3.339   7.044  0.2414  2.0584 -1.3594
   94SAPS   H4Y 9299  -0.284   3.370   7.100  0.9994 -1.3901  0.8507
   94SAPS   C35 9300  -0.357   3.165   7.147  0.0270  0.0802  0.6963
   94SAPS   H5X 9301  -0.259   3.118   7.170 -0.0618 -0.0620  0.7821
   94SAPS   H5Y 9302  -0.411   3.084   7.094 -1.0023  2.2760 -1.8239
   94SAPS   C36 9303  -0.431   3.188   7.280  0.3150 -0.4072 -0.0385
   94SAPS   H6X 9304  -0.538   3.172   7.252 -1.1213  2.2149  3.2941
   94SAPS   H6Y 9305  -0.419   3.297   7.300  0.7434  0.0117 -2.3009
   94SAPS   C37 9306  -0.383   3.103   7.393 -0.5667 -0.3219  0.1358
   94SAPS   H7X 9307  -0.279   3.120   7.427 -0.7893 -0.8986  1.1456
   94SAPS   H7Y 9308  -0.375   2.996   7.363 -0.3173 -0.2658  0.0004
   94SAPS   C38 9309  -0.483   3.108   7.513 -0.3194 -0.2576 -0.3710
   94SAPS   H8X 9310  -0.574   3.067   7.465 -0.4094 -0.9674  0.3773
   94SAPS   H8Y 9311  -0.497   3.214   7.543 -1.5993 -0.3129 -0.7231
   94SAPS   C39 9312  -0.427   3.011   7.620 -0.0911  0.4293  0.1757
   94SAPS   H9X 9313  -0.316   3.020   7.628 -0.1472  1.3526 -0.0694
   94SAPS   H9Y 9314  -0.446   2.904   7.596  0.6211  0.3691 -0.1544
   94SAPS  C310 9315  -0.481   3.042   7.759 -0.2957 -0.4742 -0.2261
   94SAPS  H10X 9316  -0.591   3.057   7.755 -0.3648 -0.7478  0.6193
   94SAPS  H10Y 9317  -0.456   3.145   7.792 -1.1901 -0.4094  0.2632
   94SAPS  C311 9318  -0.446   2.939   7.856  0.1595 -0.0290 -0.4264
   94SAPS  H11X 9319  -0.337   2.930   7.873 -0.2449 -1.0836  2.2517
   94SAPS  H11Y 9320  -0.466   2.839   7.812  1.8298 -0.5622 -0.0375
   94SAPS  C312 9321  -0.520   2.960   7.991 -0.2121 -0.3102  0.2870
   94SAPS  H12X 9322  -0.500   2.869   8.052  2.7528 -0.1137 -0.2131
   94SAPS  H12Y 9323  -0.631   2.962   7.981 -0.1550  1.9923 -0.5824
   94SAPS  C313 9324  -0.482   3.088   8.066 -0.1450  0.0669  0.3449
   94SAPS  H13X 9325  -0.525   3.170   8.005 -1.6486  0.6984  2.1683
   94SAPS  H13Y 9326  -0.377   3.119   8.082 -0.3303  0.7719  0.2298
   94SAPS  C314 9327  -0.562   3.097   8.195 -0.0631 -0.3655 -0.7119
   94SAPS  H14X 9328  -0.568   2.992   8.231 -2.3546 -0.4906 -1.3260
   94SAPS  H14Y 9329  -0.670   3.119   8.181  0.1802  0.1619 -1.8805
   94SAPS  C315 9330  -0.494   3.201   8.292  0.6639 -0.4357  1.6691
   94SAPS  H15X 9331  -0.530   3.301   8.259  0.8258 -0.3159  1.8547
   94SAPS  H15Y 9332  -0.384   3.209   8.285  0.6920 -1.7831 -0.4273
   94SAPS  C316 9333  -0.532   3.171   8.437  0.8516 -0.3587  0.6775
   94SAPS  H16X 9334  -0.483   3.077   8.467 -0.9389 -1.7637 -0.5544
   94SAPS  H16Y 9335  -0.643   3.160   8.437  0.7957  0.1269 -0.1185
   94SAPS  C317 9336  -0.492   3.290   8.532  0.0540  0.7706 -0.1554
   94SAPS  H17X 9337  -0.534   3.261   8.631  1.9938  0.5363  0.6416
   94SAPS  H17Y 9338  -0.532   3.388   8.498  0.2357  1.4051  1.3833
   94SAPS  C318 9339  -0.340   3.292   8.558 -0.0776  0.1984 -0.7982
   94SAPS  H18X 9340  -0.299   3.189   8.569 -3.6746 -1.2745  0.0201
   94SAPS  H18Y 9341  -0.307   3.366   8.634  1.4716 -1.8788  0.6799
   94SAPS  H18Z 9342  -0.293   3.337   8.468 -0.7355  2.1626 -0.2046
   95SAPS     N 9343   2.799   2.416   6.324  0.2235 -0.5859  0.6688
   95SAPS   HN1 9344   2.848   2.325   6.312  2.0360  0.5457 -1.1036
   95SAPS   HN2 9345   2.744   2.421   6.412 -1.4483 -1.5191 -0.2646
   95SAPS   HN3 9346   2.742   2.442   6.241  2.5689  0.0691 -0.8513
   95SAPS   C12 9347   2.908   2.523   6.324 -0.5656  0.2035  0.3732
   95SAPS  H12A 9348   2.947   2.531   6.224  2.8693  0.7182  1.6008
   95SAPS   C13 9349   2.868   2.663   6.364 -0.5014 -0.3717  0.1175
   95SAPS  O13A 9350   2.753   2.690   6.396  0.0149  0.2925 -0.3312
   95SAPS  O13B 9351   2.961   2.755   6.385 -0.5600  0.8011 -0.2538
   95SAPS   C11 9352   3.023   2.471   6.407  0.2431 -0.0620  0.2300
   95SAPS  H11A 9353   2.987   2.459   6.512 -1.4281  2.7286  0.0572
   95SAPS  H11B 9354   3.100   2.551   6.407  0.6404 -0.3882 -1.9911
   95SAPS     P 9355   3.197   2.265   6.416 -0.3045  0.5600  0.3232
   95SAPS   O13 9356   3.155   2.130   6.454  0.3477  0.5637  0.1056
   95SAPS   O14 9357   3.301   2.282   6.312 -0.1562 -0.5015 -0.3208
   95SAPS   O12 9358   3.071   2.342   6.358  0.9193  0.5466  0.2947
   95SAPS   O11 9359   3.239   2.353   6.540  0.0943 -0.2272  0.0047
   95SAPS    C1 9360   3.375   2.362   6.578  0.0821 -0.5205 -0.1824
   95SAPS    HA 9361   3.437   2.336   6.489  0.5467  3.8869 -1.4045
   95SAPS    HB 9362   3.402   2.467   6.602  0.1275 -0.7566  0.8432
   95SAPS    C2 9363   3.403   2.279   6.703 -0.2158 -0.0225  0.1229
   95SAPS    HS 9364   3.324   2.310   6.776 -0.9850 -1.0804 -0.2344
   95SAPS   O21 9365   3.537   2.303   6.743 -0.6974  0.2375  0.5666
   95SAPS   C21 9366   3.571   2.413   6.793  0.9521 -0.4242  0.4996
   95SAPS   O22 9367   3.493   2.509   6.815  0.3740  0.0382  0.1057
   95SAPS   C22 9368   3.718   2.411   6.823  0.1480 -1.0660  0.6561
   95SAPS   H2R 9369   3.732   2.336   6.904  0.2169 -1.1444  0.5721
   95SAPS   H2S 9370   3.777   2.381   6.734 -0.3215 -0.2643  0.0650
   95SAPS    C3 9371   3.374   2.126   6.693  0.5232 -0.1898 -0.0799
   95SAPS    HX 9372   3.435   2.103   6.603  2.1542  0.9001  0.6894
   95SAPS    HY 9373   3.266   2.114   6.668 -0.0637 -0.3444  2.2850
   95SAPS   O31 9374   3.420   2.042   6.802 -0.6671  0.0011 -0.2710
   95SAPS   C31 9375   3.323   2.038   6.903 -1.2209 -0.0515  0.4904
   95SAPS   O32 9376   3.221   2.107   6.902 -0.1143  1.0202 -0.0940
   95SAPS   C32 9377   3.354   1.951   7.016 -0.2634  0.2477  0.9695
   95SAPS   H2X 9378   3.386   1.851   6.980 -0.7759 -0.0749  1.4048
   95SAPS   H2Y 9379   3.263   1.933   7.077  0.4055 -3.3392  1.1037
   95SAPS   C23 9380   3.784   2.544   6.866 -0.4081  0.0568  0.3839
   95SAPS   H3R 9381   3.746   2.627   6.802 -0.7775  0.1861  0.7657
   95SAPS   H3S 9382   3.890   2.534   6.835 -0.9734 -2.0451 -1.1092
   95SAPS   C24 9383   3.777   2.577   7.018 -0.1080  0.5731 -0.5812
   95SAPS   H4R 9384   3.668   2.580   7.040  0.2267 -0.2047  1.3461
   95SAPS   H4S 9385   3.811   2.683   7.029  0.4145  0.3806 -0.3183
   95SAPS   C25 9386   3.851   2.473   7.090  0.1702  0.2278 -0.3030
   95SAPS   H5R 9387   3.941   2.436   7.038 -0.6602 -1.9135 -0.3499
   95SAPS   C26 9388   3.818   2.417   7.206  0.3831  0.3391 -0.1998
   95SAPS   H6R 9389   3.881   2.334   7.239 -0.5156 -0.4879 -0.5347
   95SAPS   C27 9390   3.703   2.455   7.294  0.6063  0.5025  0.5695
   95SAPS   H7R 9391   3.634   2.519   7.235 -1.4426 -0.8743  1.3592
   95SAPS   H7S 9392   3.738   2.515   7.381 -0.4255  1.7177  0.1826
   95SAPS   C28 9393   3.619   2.334   7.324 -0.1936  0.0949  0.4413
   95SAPS   H8R 9394   3.566   2.288   7.238 -0.0449 -0.4593  0.6371
   95SAPS   C29 9395   3.616   2.264   7.440 -0.6197  1.1457 -0.1763
   95SAPS   H9R 9396   3.557   2.172   7.457  1.9019 -0.5446 -0.0274
   95SAPS  C210 9397   3.696   2.306   7.560  0.1168 -0.2911  0.8963
   95SAPS  H10R 9398   3.628   2.377   7.611  0.4577 -1.2310  2.7225
   95SAPS  H10S 9399   3.790   2.359   7.532 -0.5718  0.1708 -0.6461
   95SAPS  C211 9400   3.731   2.188   7.648 -0.0001 -0.3333  0.1422
   95SAPS  H11R 9401   3.773   2.101   7.596  4.4007  0.9501  1.1145
   95SAPS  C212 9402   3.718   2.180   7.779  0.0104  0.0515 -0.3319
   95SAPS  H12R 9403   3.749   2.084   7.823  0.8383 -0.0440 -1.0849
   95SAPS  C213 9404   3.667   2.282   7.880  0.2592  0.3062 -0.2127
   95SAPS  H13R 9405   3.634   2.370   7.823  2.6690  0.4035 -1.5884
   95SAPS  H13S 9406   3.750   2.320   7.944  1.9171 -1.2857 -1.3241
   95SAPS  C214 9407   3.555   2.218   7.955  0.3563 -0.2701  0.9155
   95SAPS  H14R 9408   3.491   2.163   7.885  1.5789  0.0930 -0.5286
   95SAPS  C215 9409   3.547   2.207   8.088 -0.3696 -0.1697 -0.2785
   95SAPS  H15R 9410   3.456   2.162   8.130  0.6571 -0.7575  1.4127
   95SAPS  C216 9411   3.634   2.251   8.202 -0.8449 -0.5377 -0.6888
   95SAPS  H16R 9412   3.732   2.199   8.200 -0.9197 -0.6549 -1.3633
   95SAPS  H16S 9413   3.587   2.218   8.297  0.5342 -1.8061 -0.4001
   95SAPS  C217 9414   3.658   2.404   8.227 -0.4598 -0.3026  0.0514
   95SAPS  H17R 9415   3.559   2.454   8.218  0.5093  2.0404  1.3763
   95SAPS  H17S 9416   3.725   2.446   8.149 -1.7553  0.1153 -0.8738
   95SAPS  C218 9417   3.720   2.433   8.367 -0.5654  0.0687  0.3416
   95SAPS  H18R 9418   3.792   2.355   8.399 -0.7283 -1.5612 -2.8744
   95SAPS  H18S 9419   3.638   2.432   8.442 -0.7546  1.2167  0.1672
   95SAPS  C219 9420   3.790   2.566   8.376  0.6337  0.0490  0.3861
   95SAPS  H19R 9421   3.717   2.635   8.330  1.2715  1.0917  0.9044
   95SAPS  H19S 9422   3.883   2.581   8.318  0.2285 -3.5674 -1.4677
   95SAPS  C220 9423   3.821   2.616   8.524  0.2471  0.1247 -0.7048
   95SAPS  H20R 9424   3.722   2.636   8.568  1.2721  1.8289  0.9546
   95SAPS  H20S 9425   3.876   2.712   8.520  0.5589  0.0686  1.1894
   95SAPS  H20T 9426   3.878   2.540   8.581  0.3956  0.2122 -0.7375
   95SAPS   C33 9427   3.456   2.013   7.114 -0.0058  0.2174 -0.1882
   95SAPS   H3X 9428   3.401   2.101   7.154 -1.6488 -1.6335  1.9157
   95SAPS   H3Y 9429   3.538   2.052   7.050 -0.0503  1.0152  0.2300
   95SAPS   C34 9430   3.486   1.904   7.224 -0.0741 -0.0634 -0.1669
   95SAPS   H4X 9431   3.560   1.952   7.292 -2.3203  0.0175  2.3830
   95SAPS   H4Y 9432   3.542   1.814   7.191 -0.2131 -0.0589 -0.4228
   95SAPS   C35 9433   3.366   1.849   7.301  0.2227  0.4335 -0.0101
   95SAPS   H5X 9434   3.309   1.783   7.233  0.1593  1.1651 -0.6807
   95SAPS   H5Y 9435   3.300   1.932   7.334  0.3737  0.1372  1.0896
   95SAPS   C36 9436   3.396   1.769   7.431  0.7127 -0.1912  0.9131
   95SAPS   H6X 9437   3.448   1.677   7.397 -0.4183 -0.3928 -0.3595
   95SAPS   H6Y 9438   3.299   1.729   7.466  0.2900 -0.6031 -0.6653
   95SAPS   C37 9439   3.449   1.850   7.546  0.4007  0.1195 -0.0374
   95SAPS   H7X 9440   3.377   1.926   7.583 -2.8673 -2.5689 -0.4028
   95SAPS   H7Y 9441   3.536   1.899   7.498 -0.8865  1.6439 -0.9072
   95SAPS   C38 9442   3.475   1.772   7.668  0.2782  0.3755 -0.6611
   95SAPS   H8X 9443   3.541   1.688   7.639  1.0756  1.2776 -1.5510
   95SAPS   H8Y 9444   3.374   1.731   7.687  0.5048  0.1034 -0.0230
   95SAPS   C39 9445   3.544   1.845   7.787 -0.8143 -0.3906 -0.1396
   95SAPS   H9X 9446   3.474   1.921   7.827 -0.5146 -0.9368  1.5304
   95SAPS   H9Y 9447   3.634   1.897   7.747 -0.8190  1.4106  1.9708
   95SAPS  C310 9448   3.579   1.751   7.906 -0.3320 -0.2340  0.6753
   95SAPS  H10X 9449   3.665   1.685   7.883  0.9689  1.6437 -0.2032
   95SAPS  H10Y 9450   3.482   1.700   7.926 -1.1374  1.2982  0.8623
   95SAPS  C311 9451   3.606   1.829   8.032  0.5191  0.5846  0.2754
   95SAPS  H11X 9452   3.533   1.913   8.041  1.0042  1.1150 -0.6033
   95SAPS  H11Y 9453   3.709   1.868   8.016  0.3825  0.4772 -0.9471
   95SAPS  C312 9454   3.614   1.746   8.160 -0.6715 -0.2474 -0.3099
   95SAPS  H12X 9455   3.637   1.638   8.152  0.7483 -0.1754  1.8515
   95SAPS  H12Y 9456   3.514   1.759   8.209  0.2494  4.0224  0.8598
   95SAPS  C313 9457   3.721   1.797   8.268 -0.6956 -0.5033 -0.0819
   95SAPS  H13X 9458   3.672   1.891   8.300 -1.2580 -0.7737 -0.1458
   95SAPS  H13Y 9459   3.827   1.806   8.235  0.0909  1.2176  2.6251
   95SAPS  C314 9460   3.729   1.718   8.393 -0.1237  0.5452  0.0736
   95SAPS  H14X 9461   3.823   1.745   8.445  1.1973 -1.5513 -1.0584
   95SAPS  H14Y 9462   3.734   1.609   8.374 -0.4548  0.2762  1.4403
   95SAPS  C315 9463   3.608   1.735   8.490 -0.9999  0.4795 -0.5171
   95SAPS  H15X 9464   3.627   1.660   8.570 -1.6052 -0.7872 -1.5095
   95SAPS  H15Y 9465   3.514   1.689   8.451 -1.4330  0.1241  0.9112
   95SAPS  C316 9466   3.581   1.877   8.553  0.7440  0.8512  0.1932
   95SAPS  H16X 9467   3.583   1.951   8.471 -0.1731 -1.3299 -1.9253
   95SAPS  H16Y 9468   3.671   1.890   8.618  0.5237  2.0581  0.2645
   95SAPS  C317 9469   3.443   1.890   8.623 -0.0824 -0.5707  0.2766
   95SAPS  H17X 9470   3.363   1.851   8.556  0.8445 -1.1695 -0.5196
   95SAPS  H17Y 9471   3.421   1.997   8.640 -2.8198 -1.2255  1.4283
   95SAPS  C318 9472   3.448   1.810   8.753 -0.2435 -0.7732 -0.1541
   95SAPS  H18X 9473   3.530   1.844   8.819 -0.9707 -0.9998  0.8875
   95SAPS  H18Y 9474   3.458   1.700   8.743 -0.3211 -0.7131 -1.0292
   95SAPS  H18Z 9475   3.350   1.814   8.805 -0.1780 -0.4865 -0.0501
   96SAPS     N 9476   2.496   4.484   6.099 -0.1122  0.0221  0.0839
   96SAPS   HN1 9477   2.505   4.486   6.202  1.1182  0.3335 -0.0043
   96SAPS   HN2 9478   2.524   4.577   6.062  0.7593 -0.0822  0.4603
   96SAPS   HN3 9479   2.398   4.458   6.076 -0.1395 -1.0731  1.3487
   96SAPS   C12 9480   2.603   4.390   6.045  0.1762  0.0412  0.0513
   96SAPS  H12A 9481   2.574   4.286   6.049  1.0551 -0.1744  2.3807
   96SAPS   C13 9482   2.644   4.425   5.901 -0.4141 -0.3924  0.9593
   96SAPS  O13A 9483   2.588   4.527   5.850 -0.3490  0.2808 -0.2356
   96SAPS  O13B 9484   2.703   4.342   5.828 -0.2427  0.2137 -0.6560
   96SAPS   C11 9485   2.721   4.411   6.134 -0.5795  0.2059  0.4024
   96SAPS  H11A 9486   2.761   4.515   6.140  0.6968 -0.3261  2.6653
   96SAPS  H11B 9487   2.804   4.355   6.086  0.1427  0.2181  1.5866
   96SAPS     P 9488   2.780   4.234   6.322 -0.1862 -0.0789  0.0311
   96SAPS   O13 9489   2.694   4.112   6.332  0.2602  0.0317 -0.2569
   96SAPS   O14 9490   2.910   4.219   6.246  0.3743 -0.9197 -0.5798
   96SAPS   O12 9491   2.698   4.355   6.265  0.3157 -0.6042  0.5390
   96SAPS   O11 9492   2.820   4.275   6.469 -0.0115 -0.8357  0.0229
   96SAPS    C1 9493   2.793   4.411   6.522 -0.6776  0.3402 -0.1050
   96SAPS    HA 9494   2.872   4.485   6.494 -1.6837  2.5654  2.4730
   96SAPS    HB 9495   2.704   4.462   6.480 -1.1747 -0.7486 -0.3902
   96SAPS    C2 9496   2.777   4.423   6.679  0.1509  0.3909  0.3692
   96SAPS    HS 9497   2.777   4.531   6.707 -0.6614  0.6350 -0.4948
   96SAPS   O21 9498   2.875   4.359   6.750 -0.5231  0.7406  0.4493
   96SAPS   C21 9499   2.992   4.407   6.757 -0.0339 -0.0392 -0.3570
   96SAPS   O22 9500   3.030   4.516   6.717 -0.3791  0.9498  0.2715
   96SAPS   C22 9501   3.089   4.318   6.841 -0.3745  0.0018 -0.1364
   96SAPS   H2R 9502   3.107   4.228   6.779 -1.8614  0.1547 -0.8265
   96SAPS   H2S 9503   3.180   4.381   6.847  0.6166 -1.4356  0.7451
   96SAPS    C3 9504   2.637   4.359   6.711 -0.3154  0.0903  0.0059
   96SAPS    HX 9505   2.639   4.249   6.693 -0.6316 -0.1562  1.3623
   96SAPS    HY 9506   2.558   4.402   6.646 -1.1386  0.8702  1.4572
   96SAPS   O31 9507   2.603   4.391   6.844  0.3440  0.0732 -0.3352
   96SAPS   C31 9508   2.637   4.306   6.938 -0.3898  0.3838 -0.3408
   96SAPS   O32 9509   2.694   4.196   6.933  0.8757 -0.5062 -0.4372
   96SAPS   C32 9510   2.589   4.377   7.069  0.3365  0.0585 -0.0514
   96SAPS   H2X 9511   2.482   4.408   7.075 -0.2291 -1.6246 -0.8839
   96SAPS   H2Y 9512   2.642   4.475   7.069 -2.6474  1.9041 -3.3538
   96SAPS   C23 9513   3.049   4.273   6.982  0.6829  0.1680 -0.6046
   96SAPS   H3R 9514   3.125   4.216   7.040  1.6521  2.7101  0.8058
   96SAPS   H3S 9515   2.957   4.213   6.967 -0.1797  1.2068  0.3258
   96SAPS   C24 9516   3.015   4.390   7.080 -0.2498 -0.5656  0.2222
   96SAPS   H4R 9517   2.975   4.342   7.172 -0.5417 -1.8760 -0.5528
   96SAPS   H4S 9518   2.928   4.442   7.036 -2.1155 -1.6894  2.3497
   96SAPS   C25 9519   3.124   4.492   7.114 -0.3129  0.2262 -0.0277
   96SAPS   H5R 9520   3.159   4.544   7.023 -0.5883 -0.8703 -0.7803
   96SAPS   C26 9521   3.177   4.520   7.234  0.5190 -0.3306  0.2307
   96SAPS   H6R 9522   3.252   4.600   7.247 -0.0622  0.4994 -1.3625
   96SAPS   C27 9523   3.157   4.447   7.364  0.0837 -0.0985  0.0210
   96SAPS   H7R 9524   3.248   4.457   7.427 -2.1173 -3.8357  4.3259
   96SAPS   H7S 9525   3.123   4.346   7.332  1.2771  0.4107 -3.2050
   96SAPS   C28 9526   3.039   4.493   7.439 -0.1265 -0.9104 -0.3694
   96SAPS   H8R 9527   2.941   4.490   7.389  0.2785  1.3334 -1.4557
   96SAPS   C29 9528   3.032   4.549   7.564  0.5430  0.0271  0.5260
   96SAPS   H9R 9529   2.935   4.590   7.593  1.1240  0.7653  1.5063
   96SAPS  C210 9530   3.146   4.579   7.661 -0.7703  0.0911  0.2363
   96SAPS  H10R 9531   3.243   4.579   7.608 -0.5720 -1.5984  0.5529
   96SAPS  H10S 9532   3.142   4.498   7.738 -1.3081 -0.0021  0.1179
   96SAPS  C211 9533   3.136   4.719   7.708  0.1980 -0.6587  0.1792
   96SAPS  H11R 9534   3.117   4.803   7.639 -0.8312  0.8669  2.2214
   96SAPS  C212 9535   3.143   4.752   7.843  0.2824  0.0601  0.3427
   96SAPS  H12R 9536   3.128   4.859   7.863 -1.4371  0.1805 -1.3512
   96SAPS  C213 9537   3.161   4.661   7.961  0.4460  0.1911 -0.2367
   96SAPS  H13R 9538   3.107   4.564   7.953 -0.8738  0.8346  0.3647
   96SAPS  H13S 9539   3.105   4.704   8.048  1.8315 -0.9741  1.2982
   96SAPS  C214 9540   3.305   4.647   8.012  0.6174  0.3975  0.0639
   96SAPS  H14R 9541   3.384   4.677   7.943  1.4768  0.1684  0.9325
   96SAPS  C215 9542   3.334   4.607   8.138 -0.1052 -0.2814 -0.0169
   96SAPS  H15R 9543   3.438   4.601   8.172  0.0274  1.0360 -0.1343
   96SAPS  C216 9544   3.230   4.557   8.240 -0.2049 -0.5633 -0.5007
   96SAPS  H16R 9545   3.137   4.618   8.231  0.0682 -0.0697  0.0006
   96SAPS  H16S 9546   3.275   4.585   8.337  1.0629 -0.7910 -1.0000
   96SAPS  C217 9547   3.190   4.414   8.243 -0.3146  0.2440  0.3166
   96SAPS  H17R 9548   3.284   4.355   8.236  1.2942  2.7794 -1.3326
   96SAPS  H17S 9549   3.131   4.392   8.152  0.0382  1.4289 -0.2159
   96SAPS  C218 9550   3.111   4.360   8.364  0.4505 -0.4087  0.2395
   96SAPS  H18R 9551   3.169   4.375   8.458 -0.0699  0.1656  0.4737
   96SAPS  H18S 9552   3.095   4.250   8.354  3.0500 -0.6655 -2.3688
   96SAPS  C219 9553   2.975   4.433   8.387 -0.3579 -0.0622  0.0768
   96SAPS  H19R 9554   2.900   4.413   8.307 -2.6191 -1.1546  2.3023
   96SAPS  H19S 9555   2.980   4.544   8.394 -0.9235 -0.0419  0.2865
   96SAPS  C220 9556   2.906   4.388   8.518 -0.1255 -0.4408 -0.8314
   96SAPS  H20R 9557   2.963   4.426   8.606 -0.8594  0.9620 -0.9294
   96SAPS  H20S 9558   2.912   4.278   8.534 -1.9919 -0.2506  1.8282
   96SAPS  H20T 9559   2.800   4.416   8.532 -0.8095 -3.0164 -0.3607
   96SAPS   C33 9560   2.613   4.291   7.199  0.3406 -0.5402  0.6336
   96SAPS   H3X 9561   2.716   4.250   7.188  0.3995 -1.0501  2.6159
   96SAPS   H3Y 9562   2.535   4.213   7.207  1.2386 -1.4088  1.2487
   96SAPS   C34 9563   2.609   4.369   7.332 -0.2568 -1.1179  0.9427
   96SAPS   H4X 9564   2.508   4.416   7.332  0.8466  1.5276 -1.1739
   96SAPS   H4Y 9565   2.677   4.457   7.332 -1.8023  0.1141  0.6687
   96SAPS   C35 9566   2.625   4.271   7.457  0.2801  0.0455 -0.5452
   96SAPS   H5X 9567   2.722   4.222   7.438  0.4545  0.7806 -1.6150
   96SAPS   H5Y 9568   2.550   4.189   7.458 -0.6821  0.8381  2.4080
   96SAPS   C36 9569   2.625   4.344   7.595 -0.7506  0.6925  0.8300
   96SAPS   H6X 9570   2.538   4.412   7.605  0.2991  2.7777 -2.8348
   96SAPS   H6Y 9571   2.712   4.412   7.606  0.1981 -0.6662  2.3240
   96SAPS   C37 9572   2.625   4.236   7.706 -0.2292 -0.0013 -0.2201
   96SAPS   H7X 9573   2.691   4.150   7.679 -0.5748  0.8090 -4.4107
   96SAPS   H7Y 9574   2.522   4.196   7.717 -0.0646 -0.4239 -0.2088
   96SAPS   C38 9575   2.653   4.306   7.844 -0.4009 -0.9866  0.0736
   96SAPS   H8X 9576   2.583   4.387   7.873 -0.5499 -1.1813  0.2622
   96SAPS   H8Y 9577   2.752   4.354   7.833 -1.4642  1.3721  0.0985
   96SAPS   C39 9578   2.663   4.227   7.974  0.0372 -0.4012 -0.1572
   96SAPS   H9X 9579   2.566   4.174   7.988  0.8533 -1.4743  1.8465
   96SAPS   H9Y 9580   2.666   4.286   8.068 -0.2123 -0.4981 -0.0883
   96SAPS  C310 9581   2.769   4.117   7.968  0.4774  0.1510 -0.5696
   96SAPS  H10X 9582   2.872   4.154   7.989  1.0881 -1.7855  0.0109
   96SAPS  H10Y 9583   2.768   4.072   7.867  0.2864 -3.0110  0.7470
   96SAPS  C311 9584   2.740   4.000   8.062 -0.0946  0.3874 -0.1350
   96SAPS  H11X 9585   2.803   3.912   8.036  0.6702  1.3067 -1.4695
   96SAPS  H11Y 9586   2.633   3.969   8.059  0.1632 -0.7564  1.0452
   96SAPS  C312 9587   2.782   4.027   8.209  0.3190  0.2130  0.1495
   96SAPS  H12X 9588   2.772   4.137   8.223  0.9221  0.0908  1.6736
   96SAPS  H12Y 9589   2.892   4.012   8.210  0.3699  0.4866 -0.5894
   96SAPS  C313 9590   2.705   3.940   8.303 -0.3292 -0.1296 -0.0663
   96SAPS  H13X 9591   2.701   3.838   8.259  0.2687 -0.5911  0.9036
   96SAPS  H13Y 9592   2.603   3.980   8.319  0.7631  1.6731  3.4918
   96SAPS  C314 9593   2.769   3.929   8.445 -0.9406 -0.3203 -0.2366
   96SAPS  H14X 9594   2.776   4.032   8.487 -0.7013 -0.2907 -0.3472
   96SAPS  H14Y 9595   2.872   3.887   8.438 -0.5912 -0.0453  2.2486
   96SAPS  C315 9596   2.687   3.836   8.527 -0.1180  0.2190  0.0326
   96SAPS  H15X 9597   2.683   3.735   8.480  1.6828  0.6792 -1.2226
   96SAPS  H15Y 9598   2.588   3.885   8.535 -0.3599 -0.3406  0.5302
   96SAPS  C316 9599   2.746   3.810   8.672  0.3800  0.1094  0.4941
   96SAPS  H16X 9600   2.844   3.761   8.652 -0.1153 -0.6676 -0.0848
   96SAPS  H16Y 9601   2.681   3.744   8.734  1.8220  0.4140  2.4425
   96SAPS  C317 9602   2.772   3.945   8.753  0.1783  0.0146 -0.3725
   96SAPS  H17X 9603   2.677   4.002   8.756 -0.1341 -0.3127 -2.3754
   96SAPS  H17Y 9604   2.847   4.001   8.694  0.3152  0.8225  0.5459
   96SAPS  C318 9605   2.819   3.923   8.899  0.0787  0.0293 -0.5499
   96SAPS  H18X 9606   2.929   3.915   8.912 -0.1335 -1.3416  0.6720
   96SAPS  H18Y 9607   2.769   3.842   8.956 -0.1320  1.6431  1.6844
   96SAPS  H18Z 9608   2.781   4.012   8.953 -0.6842  0.4765 -1.7781
   97SAPS     N 9609   4.750   2.359   6.496 -0.2492 -0.9440 -0.3261
   97SAPS   HN1 9610   4.652   2.389   6.475 -1.4957 -2.1483  3.0061
   97SAPS   HN2 9611   4.744   2.271   6.551 -0.6252 -0.1834  0.8958
   97SAPS   HN3 9612   4.791   2.432   6.558  0.4935 -2.2420  0.7578
   97SAPS   C12 9613   4.819   2.357   6.366 -0.1725  0.1657  0.1635
   97SAPS  H12A 9614   4.924   2.358   6.392 -0.6622  0.0927  2.4206
   97SAPS   C13 9615   4.800   2.236   6.273 -0.0669  0.5755 -0.3836
   97SAPS  O13A 9616   4.705   2.154   6.302 -0.5517  0.0565 -0.0354
   97SAPS  O13B 9617   4.877   2.220   6.179 -0.5991  0.6246 -0.0009
   97SAPS   C11 9618   4.780   2.487   6.296  0.8062  0.4436 -0.0221
   97SAPS  H11A 9619   4.669   2.491   6.285  0.9527  4.8698 -2.1854
   97SAPS  H11B 9620   4.826   2.490   6.195  2.8693  0.7173  0.8740
   97SAPS     P 9621   4.833   2.739   6.294  0.1333 -0.0381 -0.0544
   97SAPS   O13 9622   4.910   2.738   6.168  0.5817  0.2400  0.5995
   97SAPS   O14 9623   4.692   2.782   6.286  0.0502  0.3961 -0.0532
   97SAPS   O12 9624   4.834   2.599   6.371  0.3858  0.7454 -0.2778
   97SAPS   O11 9625   4.915   2.825   6.393  0.0467 -0.2831 -0.5217
   97SAPS    C1 9626   5.039   2.779   6.451 -0.4523  0.2152  0.6331
   97SAPS    HA 9627   5.107   2.729   6.380  1.7291  4.0765 -0.3011
   97SAPS    HB 9628   5.104   2.867   6.473  0.6284 -0.5852  0.7601
   97SAPS    C2 9629   5.020   2.686   6.575  0.9340 -0.0966 -0.4330
   97SAPS    HS 9630   4.986   2.589   6.536  0.1277  0.4376 -1.0912
   97SAPS   O21 9631   4.919   2.737   6.664 -0.3569  0.0601  0.5376
   97SAPS   C21 9632   4.835   2.653   6.718 -0.9018 -0.5035 -0.6013
   97SAPS   O22 9633   4.838   2.530   6.714  0.2997  0.9749 -0.4988
   97SAPS   C22 9634   4.730   2.739   6.777  0.0191  0.3450 -0.1973
   97SAPS   H2R 9635   4.690   2.821   6.714 -3.1198 -0.2951  0.7932
   97SAPS   H2S 9636   4.643   2.670   6.781 -1.0966  1.7454  0.8051
   97SAPS    C3 9637   5.151   2.674   6.658 -0.0993 -0.4322 -0.2667
   97SAPS    HX 9638   5.171   2.773   6.704  0.4282 -1.0302  0.8437
   97SAPS    HY 9639   5.234   2.648   6.588  1.8379  0.2864  1.6264
   97SAPS   O31 9640   5.135   2.578   6.768 -0.3126  0.0896  0.2199
   97SAPS   C31 9641   5.120   2.451   6.746  0.3017 -0.6617 -0.2334
   97SAPS   O32 9642   5.117   2.394   6.636 -0.3761 -0.4883 -0.1758
   97SAPS   C32 9643   5.105   2.392   6.884  0.1354 -0.3538  0.2023
   97SAPS   H2X 9644   5.135   2.473   6.954 -1.2101 -0.0235  0.4325
   97SAPS   H2Y 9645   5.183   2.313   6.885 -0.6460 -1.1948 -1.3477
   97SAPS   C23 9646   4.777   2.793   6.914  0.3845  0.2888 -0.7874
   97SAPS   H3R 9647   4.699   2.858   6.960 -1.8997 -1.7436 -1.5932
   97SAPS   H3S 9648   4.865   2.858   6.898  2.0324 -1.9884 -1.4400
   97SAPS   C24 9649   4.808   2.679   7.014  0.1561  0.2798 -0.3386
   97SAPS   H4R 9650   4.905   2.631   6.987  0.0245  0.2887 -0.8387
   97SAPS   H4S 9651   4.725   2.605   7.003 -2.2261  2.8963 -0.9994
   97SAPS   C25 9652   4.802   2.725   7.153 -0.2074 -0.5426  0.3098
   97SAPS   H5R 9653   4.825   2.833   7.157 -2.6748  0.0550 -0.0716
   97SAPS   C26 9654   4.752   2.669   7.265 -0.0372  0.2752 -0.0617
   97SAPS   H6R 9655   4.761   2.728   7.357 -0.3339  0.1115  0.0739
   97SAPS   C27 9656   4.701   2.529   7.278 -0.0416 -0.2446  0.7449
   97SAPS   H7R 9657   4.713   2.471   7.184 -1.2918  0.8947 -0.1670
   97SAPS   H7S 9658   4.591   2.535   7.293 -0.2623  2.4549 -1.1422
   97SAPS   C28 9659   4.757   2.452   7.393 -0.4834  0.6397  0.3985
   97SAPS   H8R 9660   4.854   2.405   7.371 -0.0639  1.0913  1.2452
   97SAPS   C29 9661   4.701   2.424   7.514 -0.2612 -0.2845  1.0625
   97SAPS   H9R 9662   4.768   2.358   7.571  0.9192 -1.4715 -1.5567
   97SAPS  C210 9663   4.571   2.470   7.574  0.2107 -0.1255  0.5152
   97SAPS  H10R 9664   4.504   2.497   7.490 -0.1686 -2.3300  0.0339
   97SAPS  H10S 9665   4.587   2.559   7.638  0.9351 -0.6614  1.0975
   97SAPS  C211 9666   4.507   2.351   7.647 -0.6027  0.6739 -0.4472
   97SAPS  H11R 9667   4.450   2.291   7.576 -1.2249 -0.3112  0.8505
   97SAPS  C212 9668   4.496   2.315   7.776 -0.0142  0.3328  0.5179
   97SAPS  H12R 9669   4.430   2.229   7.795  0.4536 -0.7463 -2.3301
   97SAPS  C213 9670   4.547   2.385   7.903 -0.3251 -0.4545  0.2201
   97SAPS  H13R 9671   4.465   2.395   7.977 -0.4297  0.3869  0.0011
   97SAPS  H13S 9672   4.575   2.492   7.891 -0.6042 -0.1357  2.0307
   97SAPS  C214 9673   4.668   2.320   7.972  0.5401 -0.0424  0.0370
   97SAPS  H14R 9674   4.763   2.376   7.970  0.7020 -0.3202 -0.0995
   97SAPS  C215 9675   4.671   2.208   8.051  0.0897 -0.5767  0.0154
   97SAPS  H15R 9676   4.767   2.187   8.100  0.6041 -0.9991 -1.1274
   97SAPS  C216 9677   4.554   2.117   8.094  0.3721 -0.9899 -0.4009
   97SAPS  H16R 9678   4.592   2.017   8.121  0.9836 -0.1201  2.2170
   97SAPS  H16S 9679   4.491   2.108   8.003  1.4833 -1.7720 -1.1248
   97SAPS  C217 9680   4.493   2.172   8.223 -1.0841 -0.2719  0.2667
   97SAPS  H17R 9681   4.399   2.115   8.242 -2.2448  1.8205  1.1718
   97SAPS  H17S 9682   4.473   2.281   8.217 -0.6337 -0.1611  0.7188
   97SAPS  C218 9683   4.586   2.151   8.351  0.3125 -0.8410 -0.3105
   97SAPS  H18R 9684   4.665   2.229   8.347 -0.5559  0.0218 -1.6125
   97SAPS  H18S 9685   4.628   2.050   8.335  1.1577 -0.6179  0.4214
   97SAPS  C219 9686   4.521   2.160   8.487 -0.3727 -0.4116 -0.4634
   97SAPS  H19R 9687   4.597   2.121   8.558 -0.9427 -0.6029  0.0502
   97SAPS  H19S 9688   4.437   2.088   8.490 -1.2139  0.5718  0.3890
   97SAPS  C220 9689   4.480   2.304   8.527  0.5526  0.0249  0.5148
   97SAPS  H20R 9690   4.455   2.310   8.635  0.7236  0.4260  0.5377
   97SAPS  H20S 9691   4.392   2.344   8.473  0.5793  0.2598  0.6411
   97SAPS  H20T 9692   4.556   2.382   8.504  0.4786 -0.4517 -1.4615
   97SAPS   C33 9693   4.969   2.325   6.916 -0.1944  0.5527 -1.0266
   97SAPS   H3X 9694   4.951   2.254   6.832 -0.5103  1.6325 -1.8878
   97SAPS   H3Y 9695   4.885   2.397   6.923 -0.0596  0.8775 -2.3822
   97SAPS   C34 9696   4.966   2.223   7.033  0.5820  0.2281 -0.8267
   97SAPS   H4X 9697   4.879   2.157   7.016  0.2974  0.6820 -1.1904
   97SAPS   H4Y 9698   4.962   2.266   7.135  1.7321  0.5517 -0.9033
   97SAPS   C35 9699   5.078   2.123   7.027 -0.2244  0.5786  0.1823
   97SAPS   H5X 9700   5.181   2.164   7.041 -0.4427  1.1694  0.1069
   97SAPS   H5Y 9701   5.086   2.087   6.922  1.4611  0.1932  0.4166
   97SAPS   C36 9702   5.063   2.009   7.126  0.1165  0.4427  0.3242
   97SAPS   H6X 9703   5.146   1.936   7.117  0.9163  1.6140 -2.9487
   97SAPS   H6Y 9704   4.964   1.959   7.115 -0.0550  1.1706 -2.0714
   97SAPS   C37 9705   5.072   2.047   7.278  0.1311 -0.3774  0.0197
   97SAPS   H7X 9706   5.054   1.956   7.339 -0.4066 -0.3448 -0.0790
   97SAPS   H7Y 9707   4.998   2.126   7.303  1.0689 -0.3731  3.1433
   97SAPS   C38 9708   5.207   2.114   7.317  0.1760 -0.4456  0.6053
   97SAPS   H8X 9709   5.195   2.215   7.273 -0.6884 -0.4939  0.7004
   97SAPS   H8Y 9710   5.289   2.060   7.266 -0.5623 -2.4364  1.4236
   97SAPS   C39 9711   5.222   2.129   7.470 -0.0806 -0.1112  0.0422
   97SAPS   H9X 9712   5.142   2.195   7.511 -1.0850 -1.5691  0.5386
   97SAPS   H9Y 9713   5.318   2.178   7.496 -1.2978  1.7367  1.3607
   97SAPS  C310 9714   5.207   2.000   7.547 -0.6779  0.7508  0.3626
   97SAPS  H10X 9715   5.275   1.934   7.490 -0.5673 -1.2071  2.6186
   97SAPS  H10Y 9716   5.103   1.962   7.539  0.2068 -2.4862  2.3399
   97SAPS  C311 9717   5.242   2.024   7.696  0.0667  0.4430  0.6218
   97SAPS  H11X 9718   5.340   2.074   7.714  1.6717 -2.2454 -0.0458
   97SAPS  H11Y 9719   5.250   1.926   7.748 -0.8982 -0.9397 -1.6610
   97SAPS  C312 9720   5.128   2.093   7.769  0.1259 -0.0939 -0.1626
   97SAPS  H12X 9721   5.032   2.040   7.751  0.5733 -1.4801  1.3227
   97SAPS  H12Y 9722   5.111   2.194   7.727 -1.2139 -0.4804 -0.6069
   97SAPS  C313 9723   5.153   2.092   7.922 -0.4725  0.4064 -0.0243
   97SAPS  H13X 9724   5.247   2.143   7.950 -0.1916 -0.3820  0.4921
   97SAPS  H13Y 9725   5.179   1.986   7.946  0.1934  0.9652  1.8792
   97SAPS  C314 9726   5.036   2.142   8.007  0.2224 -0.2299 -0.1532
   97SAPS  H14X 9727   4.939   2.092   7.981  0.6884 -2.5788  2.2023
   97SAPS  H14Y 9728   5.009   2.247   7.986  0.1718 -0.2492 -0.1868
   97SAPS  C315 9729   5.039   2.133   8.160 -0.4327 -0.0844 -0.1063
   97SAPS  H15X 9730   4.942   2.120   8.212 -0.2687 -0.1152  0.1906
   97SAPS  H15Y 9731   5.089   2.227   8.190 -0.9897  0.5326 -1.0209
   97SAPS  C316 9732   5.119   2.010   8.209  0.4852 -0.6506  0.5003
   97SAPS  H16X 9733   5.225   2.022   8.176 -0.2974  3.4638 -1.0904
   97SAPS  H16Y 9734   5.081   1.921   8.155 -2.1877  0.5721  0.2322
   97SAPS  C317 9735   5.115   1.998   8.363  0.3238 -0.2960  0.4258
   97SAPS  H17X 9736   5.011   1.980   8.398 -1.3173 -0.5478 -3.8531
   97SAPS  H17Y 9737   5.143   2.094   8.410  1.0638  0.2579 -1.0873
   97SAPS  C318 9738   5.216   1.896   8.408  0.1560  0.6873  0.7106
   97SAPS  H18X 9739   5.168   1.796   8.412 -1.9080  1.6533  4.1692
   97SAPS  H18Y 9740   5.232   1.916   8.516  0.1854 -0.8517  1.0098
   97SAPS  H18Z 9741   5.315   1.900   8.357  0.6607  0.0349  1.6226
   98SAPS     N 9742   1.826   1.712   6.176  0.7009  0.2323  0.3212
   98SAPS   HN1 9743   1.736   1.765   6.170 -1.0384 -2.6999 -2.2073
   98SAPS   HN2 9744   1.856   1.671   6.086  0.7196  0.2025  0.3416
   98SAPS   HN3 9745   1.824   1.642   6.253  2.1527  1.5683  1.6302
   98SAPS   C12 9746   1.930   1.804   6.221 -1.0328  0.2276 -0.3559
   98SAPS  H12A 9747   2.020   1.745   6.214 -2.5504 -2.1902 -0.6030
   98SAPS   C13 9748   1.948   1.929   6.129  0.5990 -0.3963 -0.6273
   98SAPS  O13A 9749   1.892   1.936   6.015 -0.1227  0.1474  0.0795
   98SAPS  O13B 9750   2.055   1.992   6.147  0.1873 -0.0065 -0.2788
   98SAPS   C11 9751   1.911   1.841   6.369  0.0499 -0.1777  0.0997
   98SAPS  H11A 9752   1.999   1.894   6.412  1.4231 -1.7442 -0.6648
   98SAPS  H11B 9753   1.901   1.755   6.438 -1.0265  2.1010  2.9963
   98SAPS     P 9754   1.752   2.059   6.400 -0.0157  0.2265 -0.3382
   98SAPS   O13 9755   1.878   2.130   6.420 -0.7381 -0.0936 -0.6139
   98SAPS   O14 9756   1.660   2.102   6.300  0.6930  0.4768 -0.6267
   98SAPS   O12 9757   1.786   1.905   6.388  0.0662 -0.0289  0.2318
   98SAPS   O11 9758   1.678   2.059   6.535  0.4086  0.0253 -0.6603
   98SAPS    C1 9759   1.575   1.960   6.569  0.5834 -0.5932  0.5437
   98SAPS    HA 9760   1.471   2.001   6.563 -0.2427 -2.7429 -1.8720
   98SAPS    HB 9761   1.581   1.866   6.510 -1.8846 -0.6102  0.1795
   98SAPS    C2 9762   1.611   1.913   6.716  0.5505 -0.1222  1.0895
   98SAPS    HS 9763   1.526   1.851   6.748  0.3869 -1.3408 -1.4533
   98SAPS   O21 9764   1.626   2.026   6.804 -0.0237 -0.0465 -0.2898
   98SAPS   C21 9765   1.519   2.099   6.845  0.0511 -0.0932 -0.4697
   98SAPS   O22 9766   1.405   2.078   6.815 -0.0997 -0.0415 -0.7619
   98SAPS   C22 9767   1.563   2.204   6.949  0.3880 -0.2064 -0.0226
   98SAPS   H2R 9768   1.670   2.228   6.934  0.6027 -1.0290  0.1289
   98SAPS   H2S 9769   1.513   2.300   6.923 -2.1081 -0.3724  3.4371
   98SAPS    C3 9770   1.746   1.832   6.720  0.8773 -0.0876  0.4413
   98SAPS    HX 9771   1.825   1.902   6.684 -0.2841  0.9135 -0.2574
   98SAPS    HY 9772   1.738   1.741   6.657  1.4297 -0.4397  0.8742
   98SAPS   O31 9773   1.771   1.799   6.850 -0.6893  0.1091 -0.0911
   98SAPS   C31 9774   1.728   1.686   6.904 -0.3247  0.1819 -0.1170
   98SAPS   O32 9775   1.645   1.613   6.853 -0.8013  0.5214 -0.1364
   98SAPS   C32 9776   1.799   1.661   7.040  0.2270 -0.1314  0.2532
   98SAPS   H2X 9777   1.820   1.763   7.079 -2.5880  0.5224  0.2808
   98SAPS   H2Y 9778   1.886   1.594   7.024  2.3379  2.3387  0.8674
   98SAPS   C23 9779   1.530   2.165   7.096  0.1899 -0.1086  0.3867
   98SAPS   H3R 9780   1.424   2.132   7.098 -0.9763  3.3439  1.3251
   98SAPS   H3S 9781   1.542   2.255   7.160 -2.2479 -0.0346  0.8276
   98SAPS   C24 9782   1.626   2.065   7.165 -0.0867  0.3294  0.0936
   98SAPS   H4R 9783   1.723   2.112   7.190 -0.4207 -0.1358  2.4961
   98SAPS   H4S 9784   1.632   1.978   7.095 -0.3281 -0.1874  0.7050
   98SAPS   C25 9785   1.568   2.012   7.289  0.1440 -0.2593 -0.6416
   98SAPS   H5R 9786   1.483   1.945   7.272  0.8961 -0.9793 -1.7245
   98SAPS   C26 9787   1.586   2.059   7.416 -0.2036 -0.7031 -0.3329
   98SAPS   H6R 9788   1.516   2.013   7.487 -0.6246 -0.2234 -0.4336
   98SAPS   C27 9789   1.678   2.165   7.470 -0.4759  0.2621  0.3165
   98SAPS   H7R 9790   1.620   2.257   7.491 -0.1802  0.7441 -0.9274
   98SAPS   H7S 9791   1.753   2.185   7.391  0.2989 -1.1198  0.6674
   98SAPS   C28 9792   1.764   2.138   7.594  0.0956 -0.3481  0.2054
   98SAPS   H8R 9793   1.737   2.049   7.653  0.0836 -0.4785  0.0025
   98SAPS   C29 9794   1.866   2.201   7.641 -0.6196  0.0379  0.3028
   98SAPS   H9R 9795   1.913   2.162   7.733 -0.1223  0.0292  0.0458
   98SAPS  C210 9796   1.914   2.332   7.584 -0.5864  0.5231  0.0124
   98SAPS  H10R 9797   1.949   2.399   7.664 -1.1815  1.1118 -0.2162
   98SAPS  H10S 9798   1.835   2.387   7.528 -1.0454 -1.8836 -1.9154
   98SAPS  C211 9799   2.019   2.317   7.476 -0.7863 -0.1309 -0.3048
   98SAPS  H11R 9800   1.991   2.263   7.384 -1.5001  0.3156 -0.3607
   98SAPS  C212 9801   2.144   2.364   7.489 -0.1016 -0.4912 -0.1769
   98SAPS  H12R 9802   2.213   2.344   7.406  1.3352  0.2712  0.7717
   98SAPS  C213 9803   2.213   2.440   7.600  1.5331 -0.3356  0.3338
   98SAPS  H13R 9804   2.158   2.535   7.616  1.3229 -0.6497  1.5724
   98SAPS  H13S 9805   2.317   2.465   7.569  1.5883  0.6378  1.2417
   98SAPS  C214 9806   2.218   2.372   7.736  0.2637 -0.3770  0.9620
   98SAPS  H14R 9807   2.149   2.288   7.751  0.4548 -0.7643 -0.2279
   98SAPS  C215 9808   2.282   2.422   7.845 -0.1836  0.0825  0.0934
   98SAPS  H15R 9809   2.280   2.374   7.944 -1.1395  1.2085  0.6417
   98SAPS  C216 9810   2.361   2.552   7.842  0.1487  0.1991  0.6771
   98SAPS  H16R 9811   2.296   2.620   7.783 -0.3481 -0.9344 -0.1253
   98SAPS  H16S 9812   2.462   2.552   7.796 -0.9090  2.4160 -1.8925
   98SAPS  C217 9813   2.376   2.609   7.991 -0.0003 -0.3002  0.5584
   98SAPS  H17R 9814   2.284   2.606   8.052 -0.7247  1.1193 -0.4055
   98SAPS  H17S 9815   2.401   2.717   7.979  0.2442 -0.5187 -1.2991
   98SAPS  C218 9816   2.490   2.542   8.065  0.1647 -0.0722  0.3035
   98SAPS  H18R 9817   2.586   2.555   8.011  0.7644  0.6791  1.5115
   98SAPS  H18S 9818   2.457   2.436   8.072 -0.3172  0.0710  0.1949
   98SAPS  C219 9819   2.521   2.594   8.208  0.6723  0.5825  0.0310
   98SAPS  H19R 9820   2.622   2.558   8.237  1.2949  1.2028 -1.2745
   98SAPS  H19S 9821   2.450   2.549   8.280  1.1322  0.4667  0.4158
   98SAPS  C220 9822   2.514   2.747   8.217  0.9120  0.1144  0.7126
   98SAPS  H20R 9823   2.571   2.795   8.300  3.3258 -2.5195  0.7362
   98SAPS  H20S 9824   2.414   2.794   8.226  0.2125 -1.2499  0.2437
   98SAPS  H20T 9825   2.556   2.790   8.124 -0.2662  1.1141  0.6270
   98SAPS   C33 9826   1.704   1.582   7.136  0.4023  0.2079 -0.4858
   98SAPS   H3X 9827   1.701   1.480   7.094 -0.8020  0.3681 -0.8421
   98SAPS   H3Y 9828   1.601   1.623   7.150 -0.0146 -1.0783  0.4160
   98SAPS   C34 9829   1.771   1.568   7.271 -0.1298  0.7983 -0.5275
   98SAPS   H4X 9830   1.880   1.587   7.273 -0.1996  2.0032 -3.6542
   98SAPS   H4Y 9831   1.762   1.461   7.301  0.2522  1.1528  0.9430
   98SAPS   C35 9832   1.712   1.661   7.378  0.2434 -0.0069  0.0056
   98SAPS   H5X 9833   1.609   1.628   7.404  1.0301 -0.8924  2.2913
   98SAPS   H5Y 9834   1.697   1.762   7.335  1.7019  0.1763 -0.1111
   98SAPS   C36 9835   1.778   1.656   7.514 -0.5111 -1.0142 -0.7274
   98SAPS   H6X 9836   1.882   1.693   7.500 -0.5192  0.5260  2.4279
   98SAPS   H6Y 9837   1.782   1.556   7.562  2.2808 -0.8802 -0.5225
   98SAPS   C37 9838   1.710   1.758   7.610  0.1376  0.2331  0.0325
   98SAPS   H7X 9839   1.604   1.725   7.622  0.3971 -0.3573  0.7525
   98SAPS   H7Y 9840   1.703   1.860   7.566 -1.8289 -0.2049 -0.7686
   98SAPS   C38 9841   1.775   1.762   7.752 -0.6718 -0.5259  0.6334
   98SAPS   H8X 9842   1.739   1.861   7.787 -0.7176 -0.1666 -0.3861
   98SAPS   H8Y 9843   1.882   1.784   7.733 -0.8767  0.9840  1.1002
   98SAPS   C39 9844   1.762   1.629   7.836  0.2743 -0.0409  0.0306
   98SAPS   H9X 9845   1.813   1.550   7.776 -1.7936 -0.4458 -1.2992
   98SAPS   H9Y 9846   1.654   1.605   7.847  0.6465 -1.8557  0.1222
   98SAPS  C310 9847   1.810   1.652   7.981  0.2886  0.1685 -0.5022
   98SAPS  H10X 9848   1.729   1.708   8.032  0.1135 -0.3136 -0.2363
   98SAPS  H10Y 9849   1.889   1.730   7.978 -1.6380  2.3133  1.2709
   98SAPS  C311 9850   1.844   1.519   8.053 -0.0984  0.3363  0.0894
   98SAPS  H11X 9851   1.936   1.469   8.015  1.3950  1.5047  1.9556
   98SAPS  H11Y 9852   1.757   1.453   8.035  0.2065  0.0901 -0.5038
   98SAPS  C312 9853   1.870   1.534   8.201  0.5274  0.2950 -0.4284
   98SAPS  H12X 9854   1.893   1.437   8.250 -0.8717  0.8908  1.5722
   98SAPS  H12Y 9855   1.773   1.559   8.251  1.1952 -0.6356  1.4173
   98SAPS  C313 9856   1.980   1.630   8.236  0.1276  0.1308  0.2921
   98SAPS  H13X 9857   1.952   1.733   8.203  1.5255  0.4232 -0.0659
   98SAPS  H13Y 9858   2.064   1.603   8.168 -0.1479 -0.1729  0.0750
   98SAPS  C314 9859   2.008   1.631   8.384  0.2410  0.2086 -0.0131
   98SAPS  H14X 9860   2.060   1.540   8.420 -0.5303 -0.7488 -1.2758
   98SAPS  H14Y 9861   1.909   1.618   8.432 -0.3094  1.2141 -0.8302
   98SAPS  C315 9862   2.088   1.753   8.426 -0.2895  0.5493  0.8158
   98SAPS  H15X 9863   2.174   1.778   8.360 -0.6360 -2.2169 -0.8379
   98SAPS  H15Y 9864   2.132   1.726   8.524  0.2334 -3.6864 -0.3749
   98SAPS  C316 9865   2.002   1.877   8.449  0.3857  0.0569  0.5378
   98SAPS  H16X 9866   1.922   1.857   8.524 -1.9033  1.0629 -1.4815
   98SAPS  H16Y 9867   1.942   1.898   8.358  0.7560 -1.3419 -0.0427
   98SAPS  C317 9868   2.063   2.007   8.495 -0.5390  0.5661 -0.3472
   98SAPS  H17X 9869   1.989   2.089   8.481 -1.0843 -0.0536 -1.2216
   98SAPS  H17Y 9870   2.145   2.029   8.424 -1.6801  0.0744 -1.8944
   98SAPS  C318 9871   2.104   2.009   8.643 -0.3562 -0.2792 -0.0588
   98SAPS  H18X 9872   2.180   1.932   8.667 -0.3631 -0.3759 -0.3498
   98SAPS  H18Y 9873   2.010   1.993   8.700  0.3905 -0.7881  1.0587
   98SAPS  H18Z 9874   2.148   2.108   8.669 -1.0325 -0.0250  0.1549
   99SAPS     N 9875   1.252   6.575   5.921  0.0627  1.0371  0.1536
   99SAPS   HN1 9876   1.338   6.518   5.913 -0.9041 -0.8656  2.0353
   99SAPS   HN2 9877   1.175   6.505   5.908  1.3712 -0.5956  0.7753
   99SAPS   HN3 9878   1.244   6.641   5.842  0.0710  0.4586 -0.3335
   99SAPS   C12 9879   1.232   6.637   6.050 -0.1507 -0.2407 -0.5369
   99SAPS  H12A 9880   1.330   6.648   6.095  0.6603 -2.3149 -1.6521
   99SAPS   C13 9881   1.173   6.783   6.055 -0.0370 -0.9294 -0.0916
   99SAPS  O13A 9882   1.128   6.833   5.949 -0.2160  0.1072  0.0211
   99SAPS  O13B 9883   1.150   6.836   6.167 -0.2629  0.2615 -0.0312
   99SAPS   C11 9884   1.159   6.542   6.145  0.3281  0.1126 -0.9144
   99SAPS  H11A 9885   1.064   6.508   6.099 -0.7478  0.7884  0.7292
   99SAPS  H11B 9886   1.132   6.594   6.239  2.4327 -1.5131  0.6916
   99SAPS     P 9887   1.222   6.352   6.296 -0.0353  0.1512 -0.2518
   99SAPS   O13 9888   1.145   6.432   6.392  0.1186  0.2485  0.0900
   99SAPS   O14 9889   1.160   6.230   6.237  0.5417 -0.2885 -0.1280
   99SAPS   O12 9890   1.263   6.441   6.171  0.0295  0.4662 -0.2564
   99SAPS   O11 9891   1.356   6.321   6.366 -0.5409 -0.3771 -0.2811
   99SAPS    C1 9892   1.409   6.188   6.391 -0.3161 -0.4689 -0.5819
   99SAPS    HA 9893   1.388   6.117   6.309  0.8085  0.0627 -1.3531
   99SAPS    HB 9894   1.518   6.190   6.409 -0.3133  3.4714 -0.2139
   99SAPS    C2 9895   1.354   6.125   6.524 -0.3762  0.1920  0.7908
   99SAPS    HS 9896   1.396   6.022   6.523  1.5948  0.9456  0.9579
   99SAPS   O21 9897   1.210   6.110   6.527  0.5537  0.4520  0.5526
   99SAPS   C21 9898   1.164   6.012   6.449 -0.7959  0.0242 -0.1670
   99SAPS   O22 9899   1.233   5.930   6.390  0.9949  0.2238  0.2129
   99SAPS   C22 9900   1.011   6.014   6.448 -0.0276 -0.0988 -0.6993
   99SAPS   H2R 9901   0.985   6.110   6.398 -0.3436  0.0056 -0.3414
   99SAPS   H2S 9902   0.977   5.930   6.383  1.2098 -0.2801 -1.1553
   99SAPS    C3 9903   1.395   6.210   6.643  0.2644 -0.0483 -0.5892
   99SAPS    HX 9904   1.358   6.315   6.648  0.2153  0.0232 -1.9943
   99SAPS    HY 9905   1.506   6.217   6.642  0.4981 -2.7696 -1.5897
   99SAPS   O31 9906   1.370   6.152   6.771 -0.4970  0.2240 -0.2301
   99SAPS   C31 9907   1.251   6.178   6.828  0.7398  0.2738  0.4224
   99SAPS   O32 9908   1.167   6.249   6.783  0.0905 -0.1970  0.0009
   99SAPS   C32 9909   1.220   6.079   6.951 -0.4284 -0.2185  0.0218
   99SAPS   H2X 9910   1.315   6.026   6.969  1.3590  2.0441 -2.1224
   99SAPS   H2Y 9911   1.143   6.004   6.922 -0.8391  0.5058 -0.8372
   99SAPS   C23 9912   0.946   6.010   6.588  0.3187  0.8960 -0.6207
   99SAPS   H3R 9913   0.837   6.021   6.571  0.2036 -1.9156 -2.3294
   99SAPS   H3S 9914   0.981   6.102   6.639  0.7059  0.6241 -0.3871
   99SAPS   C24 9915   0.984   5.891   6.679  0.6070  0.2338  0.2161
   99SAPS   H4R 9916   0.987   5.925   6.784  3.5957 -0.9310  0.6065
   99SAPS   H4S 9917   1.088   5.853   6.667  0.2784 -0.3705 -0.9179
   99SAPS   C25 9918   0.899   5.763   6.660 -0.1129  0.0761 -0.4228
   99SAPS   H5R 9919   0.902   5.723   6.557  0.2847  2.2021 -1.3105
   99SAPS   C26 9920   0.817   5.702   6.743 -0.5442  0.2983 -0.1641
   99SAPS   H6R 9921   0.774   5.608   6.706 -0.1411  0.4906 -1.1648
   99SAPS   C27 9922   0.778   5.743   6.885 -0.2121  0.8640  0.1781
   99SAPS   H7R 9923   0.668   5.758   6.878 -0.1782  0.9849 -0.1610
   99SAPS   H7S 9924   0.827   5.834   6.925  0.8678 -0.4477  1.9478
   99SAPS   C28 9925   0.818   5.634   6.983  0.1631 -0.4706 -0.3737
   99SAPS   H8R 9926   0.918   5.594   6.965  0.8565  1.1089 -0.2044
   99SAPS   C29 9927   0.754   5.592   7.091  0.4834  0.2717 -0.2274
   99SAPS   H9R 9928   0.801   5.510   7.148 -0.8910 -0.6106 -0.3182
   99SAPS  C210 9929   0.627   5.661   7.132  0.3721  0.0391  0.3254
   99SAPS  H10R 9930   0.567   5.583   7.184 -2.7088  1.1714 -1.2499
   99SAPS  H10S 9931   0.561   5.694   7.049  0.9943  0.3363 -0.0606
   99SAPS  C211 9932   0.665   5.786   7.216 -0.2409 -0.0100 -0.5130
   99SAPS  H11R 9933   0.661   5.882   7.163 -1.1805  0.9363  1.1828
   99SAPS  C212 9934   0.687   5.788   7.351  0.1246  0.3324  0.6500
   99SAPS  H12R 9935   0.728   5.882   7.390 -0.4740  1.8935 -2.2484
   99SAPS  C213 9936   0.679   5.669   7.445 -0.0004 -0.4413 -0.2487
   99SAPS  H13R 9937   0.686   5.576   7.386  2.2002 -0.4192 -0.1068
   99SAPS  H13S 9938   0.576   5.658   7.483 -1.0164 -0.2065 -2.7252
   99SAPS  C214 9939   0.792   5.675   7.550  0.4496  0.7338  1.0409
   99SAPS  H14R 9940   0.762   5.716   7.647 -0.8758  1.9786  0.1605
   99SAPS  C215 9941   0.919   5.636   7.533  0.4664  0.8124  0.1395
   99SAPS  H15R 9942   0.977   5.642   7.626  0.8472  4.8508 -0.1831
   99SAPS  C216 9943   0.986   5.570   7.419  0.3549 -0.4138 -0.5708
   99SAPS  H16R 9944   0.916   5.536   7.339  0.0585  1.2278 -1.0447
   99SAPS  H16S 9945   1.028   5.477   7.463 -1.0337 -0.5445  0.5335
   99SAPS  C217 9946   1.084   5.664   7.356  0.3095  0.0117  0.1608
   99SAPS  H17R 9947   1.155   5.698   7.434 -2.4251  0.6502  2.5305
   99SAPS  H17S 9948   1.032   5.753   7.316  1.5476  1.0998  0.8596
   99SAPS  C218 9949   1.155   5.586   7.240  0.0492 -0.5378 -0.6149
   99SAPS  H18R 9950   1.080   5.528   7.182  2.2323 -2.3502 -1.7817
   99SAPS  H18S 9951   1.222   5.502   7.268  3.2265  1.5721 -1.4417
   99SAPS  C219 9952   1.222   5.695   7.157  0.1848  0.3558  0.9480
   99SAPS  H19R 9953   1.313   5.733   7.208  3.4045 -3.4682 -1.3536
   99SAPS  H19S 9954   1.164   5.789   7.142  2.3948  1.6662  0.0523
   99SAPS  C220 9955   1.272   5.648   7.016 -0.0349  0.0878  0.8032
   99SAPS  H20R 9956   1.324   5.731   6.963 -0.0141  0.2245  1.0348
   99SAPS  H20S 9957   1.185   5.622   6.953  1.4709  1.5396 -2.1015
   99SAPS  H20T 9958   1.353   5.576   7.040 -0.3248 -0.1986  0.9194
   99SAPS   C33 9959   1.177   6.174   7.069  0.0041  0.5814 -0.1676
   99SAPS   H3X 9960   1.081   6.223   7.041 -1.3870 -1.1519  1.2203
   99SAPS   H3Y 9961   1.260   6.239   7.101  2.1959 -2.1410  0.0898
   99SAPS   C34 9962   1.142   6.083   7.189  0.3317 -0.3998  0.1635
   99SAPS   H4X 9963   1.076   6.000   7.156 -0.8753  0.5617  0.0630
   99SAPS   H4Y 9964   1.073   6.138   7.257 -0.1661 -2.2402  1.2116
   99SAPS   C35 9965   1.261   6.037   7.275 -0.0023 -0.3237 -0.2949
   99SAPS   H5X 9966   1.337   6.117   7.287 -1.3029  0.7039  1.6741
   99SAPS   H5Y 9967   1.307   5.948   7.228 -0.6680 -1.1380  0.5541
   99SAPS   C36 9968   1.218   5.995   7.420 -0.4747  0.3848 -0.3988
   99SAPS   H6X 9969   1.310   5.946   7.460 -1.2859 -0.8400  0.0097
   99SAPS   H6Y 9970   1.134   5.923   7.409  0.0462 -0.3365  0.1897
   99SAPS   C37 9971   1.195   6.107   7.518  0.3087 -0.7277  0.6493
   99SAPS   H7X 9972   1.101   6.158   7.490  0.4453 -1.6425 -1.7098
   99SAPS   H7Y 9973   1.281   6.177   7.512  0.0000 -0.4259 -0.4487
   99SAPS   C38 9974   1.170   6.061   7.657  0.3247  0.0108 -0.1924
   99SAPS   H8X 9975   1.258   6.007   7.698  0.7675  1.3398  0.6904
   99SAPS   H8Y 9976   1.089   5.985   7.661  0.1185  0.2078  4.4385
   99SAPS   C39 9977   1.128   6.176   7.751  0.4737 -0.1677  0.1391
   99SAPS   H9X 9978   1.056   6.239   7.696 -0.3371 -2.5632 -1.7335
   99SAPS   H9Y 9979   1.210   6.249   7.769 -0.8678  1.3911  0.0442
   99SAPS  C310 9980   1.078   6.127   7.883  0.0191 -0.1115  0.0253
   99SAPS  H10X 9981   1.084   6.211   7.956 -1.0870  0.0511 -0.0433
   99SAPS  H10Y 9982   1.152   6.053   7.918  1.3658 -0.4565 -3.2007
   99SAPS  C311 9983   0.932   6.086   7.890  0.5212 -0.2753  0.5549
   99SAPS  H11X 9984   0.917   5.984   7.849 -0.9703  0.7325 -1.5823
   99SAPS  H11Y 9985   0.881   6.161   7.827  1.7829  0.3720  0.2631
   99SAPS  C312 9986   0.879   6.088   8.031 -0.0586  0.2315 -0.3164
   99SAPS  H12X 9987   0.900   6.190   8.069  0.5491 -0.2632  0.7078
   99SAPS  H12Y 9988   0.936   6.025   8.102  1.1610  3.4988  1.8437
   99SAPS  C313 9989   0.740   6.032   8.035  0.4153  0.0877 -0.4811
   99SAPS  H13X 9990   0.736   5.923   8.011  0.0112  0.2560 -1.2140
   99SAPS  H13Y 9991   0.684   6.091   7.959  1.4940  2.1985  0.2822
   99SAPS  C314 9992   0.672   6.051   8.171 -0.5957  0.5526  0.1313
   99SAPS  H14X 9993   0.745   6.052   8.255 -0.1693  2.2195 -0.2268
   99SAPS  H14Y 9994   0.591   5.981   8.200  0.7331 -1.5915 -1.0452
   99SAPS  C315 9995   0.606   6.190   8.184 -0.1611  0.0356 -0.6972
   99SAPS  H15X 9996   0.539   6.193   8.096 -0.4188  0.3073 -0.4925
   99SAPS  H15Y 9997   0.669   6.276   8.150 -1.4240  1.1878 -0.1765
   99SAPS  C316 9998   0.538   6.207   8.321 -0.2503  0.6465 -0.1421
   99SAPS  H16X 9999   0.604   6.175   8.405 -2.3709 -1.4525  0.8248
   99SAPS  H16Y10000   0.450   6.140   8.320 -1.1298  1.7783  0.2282
   99SAPS  C31710001   0.498   6.354   8.350  0.4198 -0.1561  0.1090
   99SAPS  H17X10002   0.594   6.402   8.380  1.5343 -1.5615 -1.0579
   99SAPS  H17Y10003   0.426   6.365   8.434  0.2203  1.2447 -0.2218
   99SAPS  C31810004   0.429   6.434   8.235 -0.1785 -0.4203 -0.0182
   99SAPS  H18X10005   0.514   6.477   8.177  1.1745 -0.7516  1.6511
   99SAPS  H18Y10006   0.361   6.508   8.282 -1.4190 -0.5659 -1.4944
   99SAPS  H18Z10007   0.362   6.369   8.174 -2.4509  2.2617 -0.5643
  100SAPS     N10008   2.269   2.025   6.294 -0.0240  0.0067  0.3171
  100SAPS   HN110009   2.284   1.933   6.339 -2.3575  1.2599  4.1822
  100SAPS   HN210010   2.236   2.093   6.366  0.5059  1.3701 -0.6690
  100SAPS   HN310011   2.188   2.013   6.229  0.2114 -0.8959  0.1774
  100SAPS   C1210012   2.380   2.077   6.219  0.0255 -1.0611  0.0347
  100SAPS  H12A10013   2.391   2.002   6.142  0.9597 -0.7468 -0.1506
  100SAPS   C1310014   2.371   2.210   6.151 -0.2274  0.2410 -0.1928
  100SAPS  O13A10015   2.274   2.289   6.173  0.3312 -0.4748  0.0261
  100SAPS  O13B10016   2.461   2.233   6.071 -0.6734  0.5260 -0.3215
  100SAPS   C1110017   2.516   2.073   6.306  0.5962  0.2088  1.0196
  100SAPS  H11A10018   2.523   2.163   6.371  0.9187  1.0031 -0.0987
  100SAPS  H11B10019   2.608   2.080   6.245  1.2865  2.6569  2.2012
  100SAPS     P10020   2.623   1.923   6.504 -0.2337 -0.3459  0.2446
  100SAPS   O1310021   2.608   1.784   6.539 -0.1135  0.2878  1.1380
  100SAPS   O1410022   2.754   1.964   6.447  0.2084  0.1182  0.1999
  100SAPS   O1210023   2.519   1.958   6.390  0.8740  0.1084 -0.0976
  100SAPS   O1110024   2.571   2.011   6.618 -0.0904 -0.3857 -0.1816
  100SAPS    C110025   2.436   2.050   6.660 -1.1358  0.8864 -0.2844
  100SAPS    HA10026   2.429   2.151   6.704 -2.1023  0.1436  1.3505
  100SAPS    HB10027   2.364   2.051   6.575 -0.0550 -0.7640 -1.2760
  100SAPS    C210028   2.369   1.960   6.769 -0.1948 -0.0371 -0.6297
  100SAPS    HS10029   2.282   2.020   6.805 -0.7788 -1.3810  0.2732
  100SAPS   O2110030   2.461   1.942   6.884  0.4599 -0.1613  0.2131
  100SAPS   C2110031   2.499   2.055   6.963  0.8668 -0.2395  0.7464
  100SAPS   O2210032   2.453   2.167   6.940  0.3724 -0.2246  0.0385
  100SAPS   C2210033   2.605   2.024   7.072  0.1291 -0.0161 -0.3297
  100SAPS   H2R10034   2.656   1.929   7.045  1.4723  0.6192 -0.0951
  100SAPS   H2S10035   2.678   2.107   7.079  0.1990  0.0671 -1.7122
  100SAPS    C310036   2.313   1.824   6.725 -0.7186  0.1035  0.0798
  100SAPS    HX10037   2.401   1.773   6.680  0.0335 -0.0706  1.7026
  100SAPS    HY10038   2.244   1.849   6.642 -0.6417  0.0719  0.0064
  100SAPS   O3110039   2.234   1.759   6.832  0.4676  0.0534 -0.1918
  100SAPS   C3110040   2.307   1.675   6.902  1.3787 -0.5948  0.5153
  100SAPS   O3210041   2.418   1.635   6.876  0.3720  0.3065  0.1087
  100SAPS   C3210042   2.215   1.597   6.997  0.2448  0.0922 -0.6055
  100SAPS   H2X10043   2.144   1.543   6.931  1.0010 -0.5163 -0.9393
  100SAPS   H2Y10044   2.154   1.666   7.060  0.4017 -1.1846  0.9857
  100SAPS   C2310045   2.535   2.011   7.209 -0.0950  0.1904  0.2179
  100SAPS   H3R10046   2.597   1.969   7.292  0.2467  0.4048  0.0722
  100SAPS   H3S10047   2.451   1.944   7.181  0.3906 -0.0648 -0.6803
  100SAPS   C2410048   2.480   2.144   7.256 -0.8433 -0.4447 -0.2937
  100SAPS   H4R10049   2.434   2.115   7.353  2.3604 -2.5263  0.7824
  100SAPS   H4S10050   2.408   2.177   7.179  1.1791 -1.2936 -2.7071
  100SAPS   C2510051   2.585   2.251   7.277  0.0080  0.6784 -0.3259
  100SAPS   H5R10052   2.591   2.324   7.195  2.5666  0.6048 -0.2818
  100SAPS   C2610053   2.649   2.273   7.388 -0.4136  0.5356 -0.4372
  100SAPS   H6R10054   2.732   2.345   7.399  0.6283 -0.8360  0.9747
  100SAPS   C2710055   2.634   2.189   7.513 -0.1317 -0.4048  0.2519
  100SAPS   H7R10056   2.731   2.145   7.543 -0.5585 -1.4085  0.1862
  100SAPS   H7S10057   2.570   2.101   7.489  0.1350 -0.2605 -1.0599
  100SAPS   C2810058   2.576   2.261   7.627 -0.8002  0.2685 -0.6082
  100SAPS   H8R10059   2.541   2.363   7.605 -0.0034  0.2211 -2.3114
  100SAPS   C2910060   2.558   2.218   7.749 -0.3237  0.3157  0.2069
  100SAPS   H9R10061   2.505   2.284   7.819  1.8878 -0.3366  2.6766
  100SAPS  C21010062   2.595   2.082   7.804  0.4491  0.4859  0.6821
  100SAPS  H10R10063   2.583   2.003   7.727  1.0363  0.3730  0.7050
  100SAPS  H10S10064   2.518   2.059   7.882  0.1284 -1.1378 -0.0827
  100SAPS  C21110065   2.739   2.093   7.860 -0.3782  0.2701 -0.1695
  100SAPS  H11R10066   2.818   2.067   7.788  0.0571 -0.6164  0.6052
  100SAPS  C21210067   2.779   2.116   7.985 -0.4297  0.7274  0.1118
  100SAPS  H12R10068   2.884   2.138   8.011 -0.0396 -2.3780  1.6429
  100SAPS  C21310069   2.694   2.134   8.113 -0.0552  0.3708 -0.4980
  100SAPS  H13R10070   2.593   2.092   8.094 -0.1287 -1.2117  2.6940
  100SAPS  H13S10071   2.684   2.243   8.129  0.3641  0.1269  1.7310
  100SAPS  C21410072   2.755   2.063   8.231  0.1293  0.0859  0.5221
  100SAPS  H14R10073   2.789   1.960   8.212  1.8062  0.2688  2.2213
  100SAPS  C21510074   2.742   2.097   8.357 -0.0983 -0.4242  0.3696
  100SAPS  H15R10075   2.786   2.022   8.425  2.3458 -1.7297 -2.4531
  100SAPS  C21610076   2.676   2.221   8.420 -0.5656  0.1114 -0.2446
  100SAPS  H16R10077   2.662   2.298   8.341  0.3565  2.1359  1.4949
  100SAPS  H16S10078   2.739   2.256   8.504 -0.8311  0.9731 -0.3963
  100SAPS  C21710079   2.535   2.183   8.472  0.0249 -0.6025 -0.8139
  100SAPS  H17R10080   2.478   2.126   8.395 -0.9681 -0.1264 -0.4375
  100SAPS  H17S10081   2.484   2.281   8.482  2.1798  0.7757 -2.4654
  100SAPS  C21810082   2.536   2.105   8.613  0.1732 -0.0864 -0.3760
  100SAPS  H18R10083   2.594   2.011   8.603  0.2002  0.0240 -1.3978
  100SAPS  H18S10084   2.429   2.078   8.630 -0.6482  2.2028 -1.5489
  100SAPS  C21910085   2.597   2.175   8.733  0.5015  0.7795 -0.0829
  100SAPS  H19R10086   2.556   2.277   8.717  2.0814  1.7975  1.8476
  100SAPS  H19S10087   2.708   2.179   8.729  0.4355  1.5758 -1.7074
  100SAPS  C22010088   2.550   2.121   8.865  0.0198  0.3484 -0.2024
  100SAPS  H20R10089   2.440   2.136   8.870  0.0328  0.0713  1.7277
  100SAPS  H20S10090   2.588   2.172   8.956 -0.3150  0.2896 -0.0276
  100SAPS  H20T10091   2.570   2.012   8.867  0.0873  0.3635 -0.0857
  100SAPS   C3310092   2.297   1.493   7.081  0.1960 -0.3664  0.2384
  100SAPS   H3X10093   2.377   1.553   7.128  1.1068 -1.3867  0.0372
  100SAPS   H3Y10094   2.347   1.420   7.014  0.9445  1.1969 -0.9756
  100SAPS   C3410095   2.225   1.434   7.199  0.4544  0.5475 -0.8903
  100SAPS   H4X10096   2.218   1.324   7.182 -2.6494  0.8296 -2.2039
  100SAPS   H4Y10097   2.122   1.464   7.228  1.9577  2.6777  2.8903
  100SAPS   C3510098   2.306   1.447   7.327  0.6774 -0.2441 -1.2063
  100SAPS   H5X10099   2.333   1.554   7.339 -1.6917  0.4257 -1.4660
  100SAPS   H5Y10100   2.407   1.399   7.323  0.1655 -1.5050  0.0325
  100SAPS   C3610101   2.227   1.405   7.454  0.4525 -0.3806 -0.5754
  100SAPS   H6X10102   2.167   1.312   7.443  0.3999 -0.6815  1.7490
  100SAPS   H6Y10103   2.155   1.487   7.477  0.6476 -0.1591 -0.7499
  100SAPS   C3710104   2.318   1.394   7.580 -0.1387 -0.3669 -0.0685
  100SAPS   H7X10105   2.363   1.496   7.587 -1.8811  0.4793 -0.6784
  100SAPS   H7Y10106   2.397   1.316   7.579  2.0210  1.7023  0.9630
  100SAPS   C3810107   2.238   1.385   7.704  0.2431 -0.2414 -0.2176
  100SAPS   H8X10108   2.176   1.293   7.693 -0.0479 -0.6520  3.5351
  100SAPS   H8Y10109   2.184   1.481   7.718 -1.3709 -0.9010 -1.5942
  100SAPS   C3910110   2.325   1.354   7.823 -0.5673 -0.2003 -0.5428
  100SAPS   H9X10111   2.379   1.447   7.849  0.1767 -0.4524 -1.1194
  100SAPS   H9Y10112   2.393   1.268   7.806  1.6271  0.9754  1.7191
  100SAPS  C31010113   2.254   1.323   7.951  0.0022 -0.0766 -0.3957
  100SAPS  H10X10114   2.221   1.217   7.944  2.2492 -1.0626  2.1061
  100SAPS  H10Y10115   2.181   1.401   7.981  0.5954  0.3060  0.0731
  100SAPS  C31110116   2.366   1.331   8.071  0.2066  1.0798  0.3442
  100SAPS  H11X10117   2.403   1.433   8.093  0.9803  0.5413  1.6948
  100SAPS  H11Y10118   2.446   1.269   8.025 -0.2631  0.8793 -0.2162
  100SAPS  C31210119   2.295   1.265   8.198 -0.0872  0.1695 -0.1105
  100SAPS  H12X10120   2.352   1.187   8.252  0.7593  1.1055  0.3811
  100SAPS  H12Y10121   2.199   1.215   8.175  0.9352 -2.5801  1.1744
  100SAPS  C31310122   2.263   1.362   8.310 -0.4642  0.0256 -0.3023
  100SAPS  H13X10123   2.177   1.334   8.374 -0.9534  1.0705 -0.4808
  100SAPS  H13Y10124   2.240   1.453   8.251 -1.4290 -1.0947 -1.7272
  100SAPS  C31410125   2.389   1.402   8.393  0.0208 -0.6021  0.0497
  100SAPS  H14X10126   2.464   1.445   8.323  0.8096 -0.9997  0.6286
  100SAPS  H14Y10127   2.429   1.311   8.444  0.8145 -0.5069 -0.3871
  100SAPS  C31510128   2.357   1.503   8.503 -0.0734 -0.4607  0.4191
  100SAPS  H15X10129   2.300   1.452   8.583 -1.0923  0.3763  0.2513
  100SAPS  H15Y10130   2.299   1.586   8.458 -0.0042  0.5402  2.0836
  100SAPS  C31610131   2.482   1.568   8.568  0.8263 -0.3181 -0.1452
  100SAPS  H16X10132   2.539   1.621   8.489 -2.6783  0.9277 -2.0467
  100SAPS  H16Y10133   2.538   1.485   8.616 -1.3931 -1.8343 -0.0645
  100SAPS  C31710134   2.437   1.675   8.671 -0.0831 -0.0726  0.2009
  100SAPS  H17X10135   2.379   1.613   8.744 -0.3618 -0.2960 -0.2062
  100SAPS  H17Y10136   2.378   1.753   8.619  1.5075 -0.3150 -2.0764
  100SAPS  C31810137   2.565   1.736   8.738 -0.2050 -0.1227 -0.7557
  100SAPS  H18X10138   2.632   1.784   8.663  4.4278 -1.0641  2.3496
  100SAPS  H18Y10139   2.620   1.650   8.780 -0.4878  0.0440 -0.0348
  100SAPS  H18Z10140   2.536   1.799   8.825  0.7544  0.4692 -0.8480
  101OSM      N10141   1.771   0.513  11.019  0.6250  0.3280  0.3987
  101OSM    C1510142   1.672   0.579  11.102  0.3440 -0.0789 -0.0452
  101OSM   H15A10143   1.685   0.684  11.126 -0.5425 -0.1465  0.8274
  101OSM   H15B10144   1.654   0.530  11.196 -0.6841 -1.1241 -0.7586
  101OSM   H15C10145   1.576   0.587  11.053 -0.2018 -1.0668  0.8289
  101OSM    C1410146   1.901   0.509  11.092 -0.2834 -0.0890  0.3123
  101OSM   H14A10147   1.889   0.477  11.194 -2.0813 -0.0986  0.1335
  101OSM   H14B10148   1.947   0.606  11.103 -0.6812 -0.0753  2.2433
  101OSM   H14C10149   1.979   0.452  11.044 -0.2793  1.4410 -1.6459
  101OSM    C1310150   1.727   0.367  11.004  0.2474  0.4307 -0.6922
  101OSM   H13A10151   1.698   0.326  11.100 -0.2483  0.5744 -0.7762
  101OSM   H13B10152   1.808   0.308  10.965 -0.0591 -1.0203  0.7700
  101OSM   H13C10153   1.636   0.373  10.947 -0.3524 -0.5186  0.1362
  101OSM    C1210154   1.774   0.586  10.882 -0.0450  0.0007 -0.5053
  101OSM   H12A10155   1.851   0.543  10.820 -0.3061 -0.3482 -0.5907
  101OSM   H12B10156   1.796   0.690  10.903  1.3259 -0.0360 -1.6320
  101OSM    C1110157   1.646   0.585  10.797 -0.0994 -0.9018  0.9237
  101OSM   H11A10158   1.622   0.478  10.779  1.5436 -1.0861 -0.3857
  101OSM   H11B10159   1.659   0.629  10.696  3.0514  0.1333  1.6589
  101OSM      P10160   1.391   0.615  10.831 -0.3329 -0.3034  0.0413
  101OSM    O1310161   1.348   0.501  10.914  0.3161 -0.4802 -0.6068
  101OSM    O1410162   1.315   0.739  10.824  0.8411  0.5774  0.1495
  101OSM    O1110163   1.403   0.561  10.684  0.1717 -0.0332  0.1827
  101OSM    O1210164   1.541   0.653  10.867 -0.6514  0.3682 -0.1074
  101OSM    C1S10165   1.292   0.496  10.620 -0.2431  0.2536  0.1296
  101OSM    H1S10166   1.196   0.546  10.645  0.6254  2.5139 -0.7590
  101OSM    H1T10167   1.282   0.392  10.657  3.5285  0.0989  1.1417
  101OSM     NF10168   1.172   0.466  10.401 -0.2119 -0.0172 -0.0282
  101OSM    HNF10169   1.150   0.374  10.368 -1.9804  0.7950 -1.2671
  101OSM    C2S10170   1.300   0.503  10.467 -1.1317  0.1239 -0.4207
  101OSM    H2S10171   1.327   0.608  10.443  1.2656 -0.1932  0.6073
  101OSM    C3S10172   1.423   0.420  10.419  0.1957 -0.9537  0.3132
  101OSM    H3S10173   1.388   0.315  10.417 -0.7889 -0.6306  0.0057
  101OSM     O310174   1.540   0.423  10.494  0.0374  0.0452  0.2463
  101OSM    HO310175   1.523   0.484  10.566  0.6835 -0.8031  1.1482
  101OSM    C4S10176   1.460   0.456  10.279 -0.0535 -0.6006  0.6652
  101OSM    H4S10177   1.527   0.543  10.281 -0.3526 -0.3810  1.4856
  101OSM    C5S10178   1.427   0.379  10.175  0.0380  0.4141  0.0919
  101OSM    H5S10179   1.379   0.283  10.201  1.2303 -0.1902  0.1316
  101OSM    C6S10180   1.454   0.391  10.030 -0.0870  0.1630  0.4066
  101OSM    H6S10181   1.356   0.369   9.982  0.5053 -3.5188  0.5475
  101OSM    H6T10182   1.519   0.309   9.993 -3.1230 -2.1858 -0.2045
  101OSM    C7S10183   1.500   0.527   9.975 -0.1017 -0.1479 -0.6644
  101OSM    H7S10184   1.582   0.570  10.036 -0.3341  0.9663 -1.0993
  101OSM    H7T10185   1.413   0.595   9.987 -0.1686 -0.5714  1.5783
  101OSM    C8S10186   1.548   0.512   9.826 -0.3674  0.5040 -0.3612
  101OSM    H8S10187   1.633   0.440   9.828 -1.4329 -0.7886  0.7671
  101OSM    H8T10188   1.586   0.610   9.790  0.9014  0.1488 -0.0366
  101OSM    C9S10189   1.446   0.464   9.728 -0.3175 -0.4717 -0.3395
  101OSM    H9S10190   1.347   0.500   9.765 -0.7207 -2.4092  0.5800
  101OSM    H9T10191   1.434   0.354   9.736  1.6671 -0.5982  2.5095
  101OSM   C10S10192   1.481   0.506   9.579 -0.3474  0.6877  0.1344
  101OSM   H10S10193   1.577   0.461   9.545 -0.4815 -0.7119  1.5158
  101OSM   H10T10194   1.487   0.617   9.572 -1.5988  0.9457  2.3536
  101OSM   C11S10195   1.357   0.471   9.496  0.3409  0.4129 -0.8071
  101OSM   H11S10196   1.295   0.563   9.501  0.2306  0.4561 -2.3469
  101OSM   H11T10197   1.301   0.382   9.530  4.4042 -0.8703  3.6637
  101OSM   C12S10198   1.397   0.459   9.346 -0.3411  0.2859  0.4947
  101OSM   H12S10199   1.448   0.363   9.322 -4.5692 -1.7569 -1.3924
  101OSM   H12T10200   1.463   0.545   9.326 -0.6820  0.7295  1.2435
  101OSM   C13S10201   1.278   0.468   9.257  0.0690  0.3397 -0.7374
  101OSM   H13S10202   1.227   0.565   9.275 -0.8985 -0.2941  0.0887
  101OSM   H13T10203   1.199   0.392   9.277 -0.8309  1.1422 -1.1774
  101OSM   C14S10204   1.321   0.457   9.111  0.1385 -0.0564 -0.0533
  101OSM   H14S10205   1.368   0.358   9.092 -2.0167 -1.7205  2.4912
  101OSM   H14T10206   1.393   0.540   9.098  0.3298  0.6253  4.1155
  101OSM   C15S10207   1.202   0.470   9.011  0.9675  0.1183  0.4344
  101OSM   H15S10208   1.247   0.466   8.910  0.5034  2.1858  0.1043
  101OSM   H15T10209   1.162   0.573   9.021 -0.5525 -0.6256  2.9982
  101OSM   C16S10210   1.093   0.366   9.028  0.2349 -0.3876  0.1085
  101OSM   H16S10211   0.995   0.387   8.981 -0.6312 -1.4167  1.3675
  101OSM   H16T10212   1.070   0.345   9.135 -1.8024 -3.1820 -0.7491
  101OSM   C17S10213   1.139   0.242   8.956  0.2109 -0.1811  0.1869
  101OSM   H17S10214   1.249   0.244   8.947  0.1045 -0.4122 -1.5371
  101OSM   H17T10215   1.094   0.234   8.855  0.3163  0.8078  0.0523
  101OSM   C18S10216   1.094   0.109   9.025 -0.4374  0.0170  0.0711
  101OSM   H18S10217   0.983   0.103   9.026 -0.4493  0.2674  0.9138
  101OSM   H18T10218   1.142   0.106   9.125  1.2269  0.4803 -0.6695
  101OSM   H18U10219   1.137   0.023   8.970  0.7804 -0.0826  1.1317
  101OSM    C1F10220   1.066   0.547  10.423 -0.4123  0.1949  0.1047
  101OSM     OF10221   1.087   0.665  10.453  0.3534 -0.3640 -0.1095
  101OSM    C2F10222   0.929   0.481  10.424 -0.3998 -0.3286 -0.2925
  101OSM    H2F10223   0.861   0.567  10.406  0.3228 -0.2071 -2.9207
  101OSM    H2G10224   0.905   0.455  10.529  2.1893  1.4895  0.8624
  101OSM    C3F10225   0.914   0.369  10.319 -0.2524 -0.0438 -0.6224
  101OSM    H3F10226   0.810   0.330  10.328 -0.0480 -0.3447  0.5481
  101OSM    H3G10227   0.980   0.286  10.350 -0.0356  0.9764  1.8317
  101OSM    C4F10228   0.930   0.413  10.174  0.6581 -0.4833 -0.2300
  101OSM    H4F10229   0.899   0.336  10.100 -2.8247  0.9268 -0.4403
  101OSM    H4G10230   1.037   0.443  10.169  0.2876  1.1312  0.8931
  101OSM    C5F10231   0.865   0.548  10.126 -0.1731  0.0449  0.3848
  101OSM    H5F10232   0.921   0.639  10.158 -1.2202  1.0049 -0.4482
  101OSM    H5G10233   0.760   0.562  10.158 -0.6692  1.0215 -1.4911
  101OSM    C6F10234   0.870   0.563   9.975 -0.1237 -0.0830  0.6819
  101OSM    H6F10235   0.972   0.535   9.943  1.3011  1.2449  3.7195
  101OSM    H6G10236   0.852   0.667   9.942 -0.3068 -0.0461  0.8949
  101OSM    C7F10237   0.770   0.475   9.889 -0.2886 -0.5422  0.6028
  101OSM    H7F10238   0.674   0.505   9.937  0.1816 -1.8665  2.4996
  101OSM    H7G10239   0.787   0.370   9.921  1.5205 -0.4546  0.0547
  101OSM    C8F10240   0.785   0.506   9.738 -0.5967  0.3718  0.4828
  101OSM    H8F10241   0.777   0.616   9.721 -3.1335 -0.0606 -1.7278
  101OSM    H8G10242   0.692   0.473   9.687 -0.9467  0.5148  1.0220
  101OSM    C9F10243   0.908   0.446   9.684 -0.4962 -0.2252  0.3034
  101OSM    H9F10244   0.987   0.415   9.754  2.2814  2.6366 -1.2759
  101OSM   C10F10245   0.930   0.424   9.551 -0.2713  0.1504  0.0845
  101OSM   H10F10246   1.028   0.393   9.512 -2.2286 -1.4325 -4.1329
  101OSM   C11F10247   0.835   0.461   9.438 -0.2960 -0.3946 -0.1998
  101OSM   H11F10248   0.728   0.467   9.469  0.1154  1.6449  1.0793
  101OSM   H11G10249   0.844   0.396   9.348  4.2681 -0.2658 -0.0388
  101OSM   C12F10250   0.876   0.594   9.378  0.7982 -0.2802  0.5635
  101OSM   H12F10251   0.984   0.611   9.356  0.5419 -1.1344 -1.4679
  101OSM   H12G10252   0.853   0.672   9.455  0.4883 -0.5151  0.7086
  101OSM   C13F10253   0.794   0.616   9.242  0.4820 -0.0071  0.4869
  101OSM   H13F10254   0.687   0.629   9.268  0.4206  0.7612 -0.1106
  101OSM   H13G10255   0.808   0.523   9.181 -3.6472 -2.7964  3.3035
  101OSM   C14F10256   0.844   0.746   9.179 -0.0177  0.0238  0.2069
  101OSM   H14F10257   0.949   0.727   9.147  0.6469  0.0721  2.2062
  101OSM   H14G10258   0.836   0.824   9.258  2.6692  0.4931  0.1200
  101OSM   C15F10259   0.758   0.796   9.057  0.3963 -0.2156  0.3904
  101OSM   H15F10260   0.799   0.894   9.024  0.2906  0.2072  1.4671
  101OSM   H15G10261   0.654   0.807   9.096 -0.8295 -0.2452 -2.6008
  101OSM   C16F10262   0.737   0.700   8.935 -0.2952 -0.8290  0.5231
  101OSM   H16F10263   0.705   0.601   8.975 -3.8495 -0.0934 -0.1594
  101OSM   H16G10264   0.835   0.692   8.883  0.3777 -0.1566  1.6305
  101OSM   C17F10265   0.636   0.750   8.840  0.1705  0.0469 -0.3582
  101OSM   H17F10266   0.650   0.859   8.829  1.0325  0.1116  1.1149
  101OSM   H17G10267   0.532   0.735   8.878 -0.2529  1.6814 -0.8127
  101OSM   C18F10268   0.643   0.690   8.700  0.0471 -0.1698 -1.0375
  101OSM   H18F10269   0.749   0.683   8.667  1.3573  0.9900  2.4621
  101OSM   H18G10270   0.592   0.754   8.626 -1.2969  1.1777  0.9499
  101OSM   H18H10271   0.598   0.588   8.699 -0.9577  0.1637  1.7643
  102OSM      N10272   0.896   4.528  10.898  0.8898 -0.1534  0.0364
  102OSM    C1510273   0.954   4.654  10.962  0.9575  0.3355  0.1744
  102OSM   H15A10274   0.942   4.742  10.900 -1.6001  0.0295  0.1600
  102OSM   H15B10275   1.049   4.637  11.011  1.2907 -1.5802 -1.0316
  102OSM   H15C10276   0.899   4.678  11.051  1.5111 -0.0842  0.6385
  102OSM    C1410277   0.943   4.409  10.977 -0.0333  0.5693 -0.0200
  102OSM   H14A10278   1.050   4.416  10.991 -0.1339 -0.2411  1.2694
  102OSM   H14B10279   0.917   4.319  10.924 -0.3299 -0.6213  2.0342
  102OSM   H14C10280   0.891   4.426  11.071  0.5707  0.9599  0.2502
  102OSM    C1310281   0.749   4.549  10.899 -0.1494  0.5836 -0.0736
  102OSM   H13A10282   0.721   4.635  10.840 -1.3984  0.0713 -0.2719
  102OSM   H13B10283   0.707   4.561  10.998 -1.2897  0.1125 -0.4828
  102OSM   H13C10284   0.701   4.461  10.858  0.7980 -0.1470  0.3516
  102OSM    C1210285   0.946   4.506  10.753  0.0995 -0.3023 -0.5437
  102OSM   H12A10286   0.907   4.593  10.701  1.3908  2.0841  2.2094
  102OSM   H12B10287   0.906   4.414  10.714  1.0647 -1.0186  0.1167
  102OSM    C1110288   1.103   4.513  10.733 -0.5748  0.6130 -0.7612
  102OSM   H11A10289   1.139   4.617  10.748 -0.4465  0.8952 -2.7809
  102OSM   H11B10290   1.120   4.495  10.625  1.3987  0.2758 -0.4287
  102OSM      P10291   1.313   4.384  10.828 -0.5735 -0.0723  0.1102
  102OSM    O1310292   1.357   4.437  10.960  0.4472 -0.0439  0.2622
  102OSM    O1410293   1.339   4.240  10.805 -0.3382 -0.3241  0.7608
  102OSM    O1110294   1.374   4.479  10.719 -0.2448 -0.4337 -0.1714
  102OSM    O1210295   1.170   4.412  10.805  0.5368 -0.3367 -0.2458
  102OSM    C1S10296   1.474   4.423  10.631 -0.5330  0.2095 -0.2650
  102OSM    H1S10297   1.483   4.313  10.645 -1.8747  0.3924  2.8513
  102OSM    H1T10298   1.572   4.469  10.654 -0.6116  0.4439 -0.3970
  102OSM     NF10299   1.534   4.395  10.389 -0.1348 -0.4564  0.3002
  102OSM    HNF10300   1.606   4.447  10.343  0.6149 -1.4623  0.2839
  102OSM    C2S10301   1.436   4.458  10.487 -0.4387  0.0238  0.4108
  102OSM    H2S10302   1.333   4.422  10.464 -0.2120 -0.6279  0.3698
  102OSM    C3S10303   1.422   4.613  10.465  0.4900  0.6766  0.1813
  102OSM    H3S10304   1.521   4.661  10.482  0.8533 -0.8326  2.7974
  102OSM     O310305   1.334   4.674  10.558  0.5109 -0.1521  0.5541
  102OSM    HO310306   1.315   4.602  10.619 -1.9431 -0.4801 -0.4884
  102OSM    C4S10307   1.383   4.644  10.318  1.1757 -0.2690 -0.0686
  102OSM    H4S10308   1.476   4.651  10.259  2.2223  1.4734  1.6275
  102OSM    C5S10309   1.263   4.665  10.273  0.0830 -0.6461  0.2865
  102OSM    H5S10310   1.180   4.652  10.344 -1.8595  1.5678 -1.4357
  102OSM    C6S10311   1.224   4.686  10.128 -0.0639 -0.6049 -0.0737
  102OSM    H6S10312   1.160   4.776  10.120  0.0697 -0.5028 -0.0013
  102OSM    H6T10313   1.157   4.601  10.103 -0.1650  0.0561 -2.2849
  102OSM    C7S10314   1.344   4.702  10.031 -0.1950 -1.1661  1.2118
  102OSM    H7S10315   1.411   4.774  10.083 -3.1671  0.2117  3.4859
  102OSM    H7T10316   1.300   4.763   9.949  1.3900 -0.5834  0.7658
  102OSM    C8S10317   1.405   4.573   9.980 -0.3394 -0.4874 -0.2779
  102OSM    H8S10318   1.315   4.516   9.947 -0.5083 -0.4950  0.1884
  102OSM    H8T10319   1.439   4.515  10.068 -0.5891  0.8794  0.7554
  102OSM    C9S10320   1.524   4.597   9.883  0.0281 -0.7799  0.0401
  102OSM    H9S10321   1.603   4.655   9.936  1.0912 -1.8378 -0.3594
  102OSM    H9T10322   1.486   4.647   9.791  0.6416 -0.2100  0.0921
  102OSM   C10S10323   1.592   4.470   9.837 -0.7254  0.5375 -0.1966
  102OSM   H10S10324   1.665   4.438   9.914 -0.9693  1.2581  0.3442
  102OSM   H10T10325   1.655   4.494   9.748  0.4727 -0.3708  0.3851
  102OSM   C11S10326   1.511   4.339   9.820  0.1872  1.2842  0.3586
  102OSM   H11S10327   1.428   4.349   9.747  1.1418  0.6043 -0.8557
  102OSM   H11T10328   1.486   4.317   9.926  1.0402  2.7308  0.8874
  102OSM   C12S10329   1.598   4.223   9.779 -0.4032  0.9511  0.3176
  102OSM   H12S10330   1.656   4.185   9.866 -1.9284  1.8456  1.8002
  102OSM   H12T10331   1.669   4.270   9.708 -0.2742  2.0771  1.1522
  102OSM   C13S10332   1.520   4.101   9.733 -1.0373  1.2185  0.5748
  102OSM   H13S10333   1.464   4.135   9.643  0.4761  2.1622 -0.0354
  102OSM   H13T10334   1.460   4.076   9.824 -3.5102 -0.7526 -1.4394
  102OSM   C14S10335   1.608   3.985   9.692  0.2136  0.1821 -0.2444
  102OSM   H14S10336   1.549   3.892   9.703  0.2003  0.4045  2.3077
  102OSM   H14T10337   1.696   3.970   9.758 -0.9664 -0.0774  1.3310
  102OSM   C15S10338   1.626   3.986   9.540 -0.2230  0.8220  0.5384
  102OSM   H15S10339   1.687   4.077   9.519 -0.6679  1.3525  1.4519
  102OSM   H15T10340   1.527   3.989   9.491  0.5439 -2.4006 -1.4825
  102OSM   C16S10341   1.698   3.859   9.481  0.6451  0.1088  0.2785
  102OSM   H16S10342   1.639   3.768   9.505  2.5376 -1.8326 -1.9822
  102OSM   H16T10343   1.793   3.849   9.537  2.1793  2.2300 -1.7383
  102OSM   C17S10344   1.728   3.846   9.332 -0.3157 -0.3469  1.6751
  102OSM   H17S10345   1.794   3.931   9.303  0.3300 -1.2728  0.3491
  102OSM   H17T10346   1.633   3.857   9.274  0.5341  1.0219  0.4471
  102OSM   C18S10347   1.809   3.717   9.292 -0.3102 -0.1528 -0.1445
  102OSM   H18S10348   1.747   3.627   9.315 -1.9196  0.9350 -0.1042
  102OSM   H18T10349   1.908   3.703   9.341 -1.1620 -0.6085  1.5676
  102OSM   H18U10350   1.821   3.722   9.182 -2.6115  3.0189 -0.3854
  102OSM    C1F10351   1.511   4.268  10.350 -0.0041  0.5655  0.7344
  102OSM     OF10352   1.423   4.200  10.399  0.1841 -0.5570 -0.5034
  102OSM    C2F10353   1.608   4.227  10.240  0.0406  0.0165 -0.2390
  102OSM    H2F10354   1.709   4.260  10.274 -0.3806  0.0728  1.0344
  102OSM    H2G10355   1.575   4.273  10.145 -0.2680  0.5666  0.1273
  102OSM    C3F10356   1.601   4.072  10.224  0.3571 -0.0559 -0.6440
  102OSM    H3F10357   1.498   4.040  10.197 -0.0330  0.2154  0.4546
  102OSM    H3G10358   1.621   4.030  10.325 -1.3955  1.0526  0.2189
  102OSM    C4F10359   1.713   4.029  10.120  0.1841  0.1945  0.7584
  102OSM    H4F10360   1.680   4.064  10.020  0.9207  2.1923  1.1793
  102OSM    H4G10361   1.721   3.918  10.109  0.3101  0.4214 -2.0030
  102OSM    C5F10362   1.854   4.093  10.139  0.1051  0.4298 -0.0399
  102OSM    H5F10363   1.891   4.085  10.244  0.2667  0.4126 -0.0975
  102OSM    H5G10364   1.857   4.199  10.106  0.9013 -0.1810 -2.0887
  102OSM    C6F10365   1.963   4.022  10.053  0.4157 -0.3444  0.6453
  102OSM    H6F10366   1.919   3.985   9.958  1.7720  0.3970 -0.3036
  102OSM    H6G10367   1.987   3.929  10.110 -1.2322 -2.3881 -1.7596
  102OSM    C7F10368   2.087   4.107  10.024 -0.1922  0.2204  0.6919
  102OSM    H7F10369   2.160   4.045   9.968  1.4989  2.7297 -0.0761
  102OSM    H7G10370   2.143   4.147  10.111  0.3688  2.7250 -0.7279
  102OSM    C8F10371   2.051   4.239   9.944 -0.7747 -0.1082 -0.3741
  102OSM    H8F10372   2.146   4.278   9.901 -1.4596 -0.9117 -2.7987
  102OSM    H8G10373   2.019   4.317  10.016 -1.9987 -0.8840 -0.0557
  102OSM    C9F10374   1.960   4.224   9.828 -0.3768  1.1342  0.5795
  102OSM    H9F10375   1.852   4.234   9.849 -0.8079 -0.8880 -0.4506
  102OSM   C10F10376   2.004   4.199   9.704  0.0643  0.1533 -0.0131
  102OSM   H10F10377   1.923   4.192   9.630  1.1778 -0.1620 -1.2457
  102OSM   C11F10378   2.142   4.184   9.644 -0.3426 -0.5269 -0.0887
  102OSM   H11F10379   2.142   4.080   9.605 -2.2798 -1.0420  1.1577
  102OSM   H11G10380   2.214   4.206   9.726 -1.5024  1.3714  0.4600
  102OSM   C12F10381   2.188   4.298   9.543  0.0255  0.4213  0.2687
  102OSM   H12F10382   2.297   4.309   9.524 -0.0543  0.1672 -0.3890
  102OSM   H12G10383   2.147   4.394   9.582  2.3014  1.0011  1.3800
  102OSM   C13F10384   2.128   4.272   9.408  0.1484 -1.0794  0.0624
  102OSM   H13F10385   2.020   4.251   9.424  0.3132 -0.5558  2.1208
  102OSM   H13G10386   2.159   4.171   9.375  0.0677 -0.9881 -0.3024
  102OSM   C14F10387   2.138   4.390   9.304 -0.5551  0.1792  0.6890
  102OSM   H14F10388   2.240   4.436   9.302  0.1595 -1.3676 -0.1113
  102OSM   H14G10389   2.076   4.477   9.332  0.0867  1.4307 -1.5360
  102OSM   C15F10390   2.092   4.342   9.169 -0.4824  0.5362 -0.3479
  102OSM   H15F10391   2.152   4.250   9.151  0.0509  0.8951 -0.4263
  102OSM   H15G10392   2.111   4.419   9.092 -2.8024  1.5546  0.0256
  102OSM   C16F10393   1.942   4.308   9.166  0.0386  0.4482  0.0550
  102OSM   H16F10394   1.883   4.402   9.166  1.9152  1.7439 -2.1956
  102OSM   H16G10395   1.906   4.261   9.260 -1.0846  1.7967  0.3432
  102OSM   C17F10396   1.891   4.241   9.036 -0.4799 -0.0641 -0.4512
  102OSM   H17F10397   1.928   4.307   8.955 -1.5318  1.1239 -0.0039
  102OSM   H17G10398   1.780   4.235   9.038 -0.4231 -1.9596  2.3325
  102OSM   C18F10399   1.948   4.098   9.020  0.2844 -0.6368  0.4557
  102OSM   H18F10400   2.057   4.106   8.998  0.0270 -1.0392 -1.0885
  102OSM   H18G10401   1.893   4.049   8.937 -0.8052  0.8614  0.2423
  102OSM   H18H10402   1.927   4.036   9.109 -1.4030  1.8148  1.8933
  103OSM      N10403   4.071   3.255  11.200 -0.1808 -0.0035  0.3157
  103OSM    C1510404   3.971   3.356  11.221  0.9631 -0.4913  0.0885
  103OSM   H15A10405   3.964   3.426  11.139 -0.4200 -2.1608 -1.2989
  103OSM   H15B10406   3.999   3.404  11.314  0.0571 -0.7303  0.4980
  103OSM   H15C10407   3.874   3.311  11.236 -0.0326  2.0000  1.7048
  103OSM    C1410408   4.206   3.317  11.214  0.3641 -0.4117 -0.8131
  103OSM   H14A10409   4.215   3.407  11.154 -1.5092  1.0371  0.9144
  103OSM   H14B10410   4.270   3.242  11.170  1.4013  0.9465 -1.6875
  103OSM   H14C10411   4.225   3.344  11.317 -2.5993  0.7012 -0.4598
  103OSM    C1310412   4.061   3.150  11.313  0.0617 -1.1289  0.3550
  103OSM   H13A10413   4.154   3.095  11.315  0.6089 -0.2417 -0.4450
  103OSM   H13B10414   3.984   3.073  11.307 -0.3670 -0.6219 -0.8903
  103OSM   H13C10415   4.038   3.204  11.404  0.8588  0.8753 -0.5923
  103OSM    C1210416   4.051   3.198  11.062  0.2890  0.4888  0.2192
  103OSM   H12A10417   4.079   3.270  10.987 -2.3475 -1.1093 -2.5229
  103OSM   H12B10418   3.947   3.170  11.047  0.6569 -0.6402 -0.3590
  103OSM    C1110419   4.137   3.073  11.029 -0.8492  0.7401  0.0678
  103OSM   H11A10420   4.239   3.092  11.068 -1.4826  2.2547  1.0811
  103OSM   H11B10421   4.151   3.075  10.919  1.2316  1.6939  0.3092
  103OSM      P10422   4.178   2.827  11.085  0.0029 -0.1202 -0.3956
  103OSM    O1310423   4.280   2.855  11.184 -0.3582  0.0505  0.0175
  103OSM    O1410424   4.104   2.701  11.116  0.2156  0.6538 -0.3696
  103OSM    O1110425   4.253   2.803  10.943 -0.1161  0.0195 -0.3015
  103OSM    O1210426   4.079   2.950  11.067 -0.4290  0.1343  0.1954
  103OSM    C1S10427   4.161   2.795  10.828 -0.0627 -0.8949 -0.0230
  103OSM    H1S10428   4.103   2.888  10.814 -0.7460 -0.5236  3.9395
  103OSM    H1T10429   4.085   2.715  10.840  0.2025 -1.2355 -0.5656
  103OSM     NF10430   4.136   2.752  10.590  0.0464  0.3775  0.4313
  103OSM    HNF10431   4.130   2.660  10.552 -3.7051  0.5224  0.2671
  103OSM    C2S10432   4.235   2.783  10.692 -1.0194  0.4686 -0.5454
  103OSM    H2S10433   4.270   2.884  10.664 -1.2052  1.3230  2.0567
  103OSM    C3S10434   4.346   2.676  10.692 -0.4605 -0.3343  0.2761
  103OSM    H3S10435   4.305   2.579  10.726  1.0912 -1.5078 -1.0233
  103OSM     O310436   4.457   2.707  10.779  0.1030  0.3030  0.2656
  103OSM    HO310437   4.424   2.784  10.825 -0.8554  0.3478 -0.4554
  103OSM    C4S10438   4.414   2.665  10.555  0.0300  0.1384 -0.3096
  103OSM    H4S10439   4.447   2.762  10.515 -1.8282  0.9181 -0.0549
  103OSM    C5S10440   4.446   2.555  10.493 -0.5410 -0.5435 -0.1242
  103OSM    H5S10441   4.418   2.460  10.542 -0.2608 -1.2565 -1.2965
  103OSM    C6S10442   4.518   2.535  10.371 -1.1195  0.2906  0.5262
  103OSM    H6S10443   4.506   2.433  10.330  2.0038 -0.0561  0.2709
  103OSM    H6T10444   4.625   2.548  10.397 -0.3712 -2.6839 -0.7077
  103OSM    C7S10445   4.480   2.638  10.264 -0.2703 -0.2129  0.1092
  103OSM    H7S10446   4.501   2.741  10.299  1.4917 -1.0745  1.7902
  103OSM    H7T10447   4.376   2.621  10.228  0.2792  1.3382 -2.5088
  103OSM    C8S10448   4.563   2.627  10.138 -0.4488  0.3653  0.2181
  103OSM    H8S10449   4.671   2.617  10.164 -0.5658 -1.7421  0.0609
  103OSM    H8T10450   4.547   2.726  10.091 -1.0800  0.3870  0.4754
  103OSM    C9S10451   4.520   2.513  10.040 -0.0750 -0.0319 -0.5505
  103OSM    H9S10452   4.411   2.517  10.022 -0.1901  0.6272  0.2395
  103OSM    H9T10453   4.541   2.410  10.075  0.3724 -0.4041 -1.8419
  103OSM   C10S10454   4.596   2.530   9.908  0.2245 -0.2520 -0.1432
  103OSM   H10S10455   4.702   2.530   9.939  0.0011  0.9472  0.7292
  103OSM   H10T10456   4.580   2.632   9.867 -0.0002 -1.4863 -3.4056
  103OSM   C11S10457   4.556   2.429   9.804 -0.0330 -0.3343  0.2431
  103OSM   H11S10458   4.572   2.320   9.820 -2.4587 -0.9271 -0.7607
  103OSM   H11T10459   4.618   2.455   9.716  0.7704 -1.9086  0.3058
  103OSM   C12S10460   4.405   2.438   9.771 -0.0801 -0.2211 -0.6333
  103OSM   H12S10461   4.389   2.544   9.741 -3.2519 -0.1405  0.8642
  103OSM   H12T10462   4.340   2.401   9.854  0.7247 -1.5311 -0.5682
  103OSM   C13S10463   4.376   2.346   9.645  0.0078  0.7558 -0.3485
  103OSM   H13S10464   4.273   2.349   9.604  0.5077  2.8225 -1.5737
  103OSM   H13T10465   4.394   2.238   9.666 -0.4336  0.3651 -1.8289
  103OSM   C14S10466   4.462   2.392   9.526  0.1099 -0.4513  0.4014
  103OSM   H14S10467   4.569   2.363   9.533  0.7733  0.6695 -3.2169
  103OSM   H14T10468   4.463   2.502   9.510  0.0333 -0.7346 -1.8838
  103OSM   C15S10469   4.411   2.324   9.403 -0.3136  0.2188  0.3428
  103OSM   H15S10470   4.317   2.379   9.381  1.0600  2.4441 -0.2584
  103OSM   H15T10471   4.391   2.217   9.424  0.9490  0.3022  2.2591
  103OSM   C16S10472   4.513   2.321   9.282  0.6901  0.7248  0.6436
  103OSM   H16S10473   4.602   2.270   9.324  0.3077  2.6697  4.2891
  103OSM   H16T10474   4.549   2.426   9.270  0.2150  1.0739  1.9977
  103OSM   C17S10475   4.447   2.267   9.156 -0.5048 -0.1855 -0.1086
  103OSM   H17S10476   4.509   2.281   9.065  3.0559 -1.5730  1.8854
  103OSM   H17T10477   4.359   2.327   9.125  2.0863  2.6397 -2.5704
  103OSM   C18S10478   4.417   2.119   9.146  0.2228 -0.0418  0.6244
  103OSM   H18S10479   4.508   2.056   9.152 -0.1092 -0.6910 -0.6318
  103OSM   H18T10480   4.365   2.091   9.051  0.5653 -1.2679  0.7826
  103OSM   H18U10481   4.353   2.091   9.233  2.8030 -0.8891  2.3422
  103OSM    C1F10482   4.045   2.852  10.550 -0.6440 -0.0906 -0.1382
  103OSM     OF10483   4.052   2.966  10.596  0.5845  0.0721  0.1102
  103OSM    C2F10484   3.934   2.811  10.454  0.2661  0.0798  0.4193
  103OSM    H2F10485   3.868   2.895  10.425  2.3704  0.9832 -2.1499
  103OSM    H2G10486   3.891   2.722  10.504  2.4891 -0.8978  0.7106
  103OSM    C3F10487   3.984   2.764  10.319  0.0257 -1.3411 -0.0035
  103OSM    H3F10488   3.900   2.763  10.246  0.9308 -1.1828 -1.0683
  103OSM    H3G10489   4.030   2.663  10.318 -0.1016 -1.3978 -0.6712
  103OSM    C4F10490   4.094   2.850  10.245  0.2786 -0.2346 -0.2451
  103OSM    H4F10491   4.186   2.836  10.306  0.4985  2.4386  0.1854
  103OSM    H4G10492   4.074   2.960  10.249  0.2809 -0.2324 -0.2963
  103OSM    C5F10493   4.122   2.787  10.103 -0.5292 -1.0220 -0.5609
  103OSM    H5F10494   4.136   2.678  10.112  3.5531 -0.6192 -0.1715
  103OSM    H5G10495   4.221   2.818  10.065  0.0748 -0.2320  1.5268
  103OSM    C6F10496   4.009   2.816  10.003  0.0933 -0.2296  0.2204
  103OSM    H6F10497   4.027   2.923   9.979  0.4242 -0.4955 -0.7443
  103OSM    H6G10498   3.907   2.821  10.047 -0.4831 -1.0512 -0.9733
  103OSM    C7F10499   4.015   2.718   9.883 -0.3592  0.0616  0.1193
  103OSM    H7F10500   3.927   2.739   9.820  0.3105  2.8171 -0.0092
  103OSM    H7G10501   4.010   2.616   9.927  0.5410  1.3365  3.4966
  103OSM    C8F10502   4.130   2.733   9.780 -0.2481  0.4285 -0.4018
  103OSM    H8F10503   4.226   2.727   9.836 -0.1475  1.2923 -0.4639
  103OSM    H8G10504   4.111   2.829   9.727 -2.1907  0.5955  0.5105
  103OSM    C9F10505   4.135   2.615   9.688 -0.4890  0.0055  1.1011
  103OSM    H9F10506   4.109   2.521   9.740 -0.2001  0.8091  2.7848
  103OSM   C10F10507   4.154   2.621   9.553  0.5371  0.6213 -0.1694
  103OSM   H10F10508   4.154   2.527   9.495  1.1729  0.5890 -0.1223
  103OSM   C11F10509   4.192   2.745   9.469  0.2372  0.0167  0.1954
  103OSM   H11F10510   4.300   2.740   9.445  0.3887 -3.1483  1.0957
  103OSM   H11G10511   4.182   2.843   9.520 -0.9616  0.5480 -0.9915
  103OSM   C12F10512   4.091   2.761   9.345  0.0235 -0.2854 -0.7067
  103OSM   H12F10513   3.987   2.779   9.378  0.2083 -1.3401  0.5217
  103OSM   H12G10514   4.092   2.686   9.263 -3.7759  1.8593 -3.0186
  103OSM   C13F10515   4.130   2.893   9.279 -0.1312  0.4878 -0.0065
  103OSM   H13F10516   4.072   2.978   9.320  1.0174  0.9540  0.7174
  103OSM   H13G10517   4.240   2.910   9.284  0.0116 -0.4710  0.3947
  103OSM   C14F10518   4.091   2.919   9.134  0.7292 -0.4727 -0.4578
  103OSM   H14F10519   3.982   2.938   9.118  0.5860 -0.1211  0.8315
  103OSM   H14G10520   4.108   2.824   9.079  1.2115  0.2454 -1.5941
  103OSM   C15F10521   4.178   3.025   9.076 -0.0421  0.4907  0.1405
  103OSM   H15F10522   4.286   3.004   9.090  0.3998  0.2845 -2.8875
  103OSM   H15G10523   4.151   3.114   9.138  2.5042  1.3951  0.0753
  103OSM   C16F10524   4.149   3.052   8.927  0.3848  0.5476 -0.7925
  103OSM   H16F10525   4.178   3.155   8.900 -0.0560  1.2813  1.3435
  103OSM   H16G10526   4.042   3.040   8.899  0.3937 -0.3964 -0.4599
  103OSM   C17F10527   4.221   2.952   8.845 -0.5836  0.0234 -0.3295
  103OSM   H17F10528   4.188   2.847   8.832 -0.9304  0.0777  0.0900
  103OSM   H17G10529   4.319   2.936   8.895 -0.3644 -1.7335 -1.2675
  103OSM   C18F10530   4.264   2.995   8.704 -0.3663  0.8319  0.2685
  103OSM   H18F10531   4.316   3.093   8.708 -0.7975  1.0247  2.0193
  103OSM   H18G10532   4.185   2.992   8.626 -0.7198  0.2608  0.6403
  103OSM   H18H10533   4.339   2.926   8.660 -2.8861 -0.7673 -1.7950
  104OSM      N10534   6.084   2.777  10.573  0.2959 -0.0017  0.2385
  104OSM    C1510535   6.165   2.649  10.569  0.0838 -0.1627 -0.0631
  104OSM   H15A10536   6.269   2.675  10.558  0.6498 -1.1937  2.2184
  104OSM   H15B10537   6.135   2.588  10.485 -1.4516  1.6361 -0.8978
  104OSM   H15C10538   6.151   2.591  10.659  2.1692  0.0355  0.4511
  104OSM    C1410539   6.162   2.885  10.631  0.6351 -0.1205  0.7163
  104OSM   H14A10540   6.117   2.983  10.623  1.6179  0.3696  1.0553
  104OSM   H14B10541   6.253   2.894  10.574 -1.2106  0.0460 -2.4603
  104OSM   H14C10542   6.190   2.863  10.733  1.9230  0.2881  0.4613
  104OSM    C1310543   6.056   2.823  10.427 -0.3238  0.5076 -0.1650
  104OSM   H13A10544   5.980   2.898  10.438 -0.6987  0.2458 -0.9077
  104OSM   H13B10545   6.004   2.742  10.378  0.0430 -1.3893  2.4086
  104OSM   H13C10546   6.148   2.860  10.382  1.2423 -1.3422  1.3395
  104OSM    C1210547   5.958   2.752  10.637  0.4599 -0.2505 -0.5787
  104OSM   H12A10548   5.902   2.686  10.572 -1.3498  0.8134 -0.1849
  104OSM   H12B10549   5.911   2.850  10.637  0.4463 -0.1901 -3.2875
  104OSM    C1110550   5.961   2.706  10.785 -0.5038  0.1241 -1.2712
  104OSM   H11A10551   5.857   2.705  10.826  0.6477 -0.9416  1.9228
  104OSM   H11B10552   6.018   2.776  10.849 -1.2807  0.5930 -1.0815
  104OSM      P10553   5.961   2.463  10.890 -0.2689 -0.0007 -0.2676
  104OSM    O1310554   6.049   2.443  11.012  0.1231  0.3159  0.5593
  104OSM    O1410555   5.814   2.485  10.915 -0.2773  0.0282  0.1390
  104OSM    O1110556   5.975   2.347  10.791 -0.1254 -0.1091  0.1420
  104OSM    O1210557   6.018   2.575  10.797  0.4179  0.7055 -0.0898
  104OSM    C1S10558   5.914   2.336  10.667 -0.0771  0.1320  0.4281
  104OSM    H1S10559   5.886   2.441  10.645  1.2746  0.5630  0.6688
  104OSM    H1T10560   5.821   2.275  10.669  0.8616 -1.4779 -1.2025
  104OSM     NF10561   5.939   2.283  10.426 -0.1488  0.4923 -0.0254
  104OSM    HNF10562   5.893   2.196  10.417  0.6015 -0.0239  0.9018
  104OSM    C2S10563   6.008   2.283  10.550  0.0252 -0.0294 -0.4343
  104OSM    H2S10564   6.096   2.350  10.540  1.5351 -1.7389  0.8008
  104OSM    C3S10565   6.075   2.143  10.586 -0.3793 -0.2541  0.4254
  104OSM    H3S10566   5.995   2.067  10.600 -2.3968  2.2452  4.2489
  104OSM     O310567   6.159   2.149  10.702  0.1106 -0.7651 -0.3059
  104OSM    HO310568   6.154   2.243  10.723 -1.9493 -0.7502 -0.6505
  104OSM    C4S10569   6.166   2.093  10.485  0.7744 -0.1727 -0.4879
  104OSM    H4S10570   6.265   2.141  10.485  0.2119  1.0179 -0.4576
  104OSM    C5S10571   6.134   1.992  10.399 -0.6308  0.2150 -0.1361
  104OSM    H5S10572   6.035   1.945  10.387  0.7081 -2.9203  0.2277
  104OSM    C6S10573   6.236   1.952  10.295 -0.3994 -0.0950 -0.8859
  104OSM    H6S10574   6.257   1.844  10.310 -2.2715 -0.3138  0.4585
  104OSM    H6T10575   6.337   1.995  10.313 -0.7527 -0.1780  1.5642
  104OSM    C7S10576   6.198   1.984  10.152 -0.3572 -0.0244 -0.0228
  104OSM    H7S10577   6.119   1.913  10.123 -1.7391  1.5273 -0.2196
  104OSM    H7T10578   6.287   1.958  10.091 -0.6022  0.0521 -0.4097
  104OSM    C8S10579   6.155   2.137  10.116  0.6050 -0.4084 -0.2001
  104OSM    H8S10580   6.231   2.196  10.171  1.7709 -0.7645 -1.3882
  104OSM    H8T10581   6.052   2.162  10.149  0.3102  0.2550 -1.5863
  104OSM    C9S10582   6.151   2.184   9.970  0.3539  0.1359 -0.2848
  104OSM    H9S10583   6.252   2.168   9.928  0.5231  0.5246 -0.0266
  104OSM    H9T10584   6.129   2.293   9.964 -0.7956 -0.0505  0.1959
  104OSM   C10S10585   6.049   2.105   9.880  0.5456  0.1778 -0.3771
  104OSM   H10S10586   5.949   2.106   9.928 -0.5530  1.0640 -2.5359
  104OSM   H10T10587   6.077   1.999   9.897 -2.3776 -0.1987  3.3623
  104OSM   C11S10588   6.051   2.154   9.732 -0.4109 -0.3518 -0.2081
  104OSM   H11S10589   6.160   2.164   9.712 -0.5696 -1.8644 -2.1050
  104OSM   H11T10590   6.013   2.259   9.736  2.5625  0.8371 -0.5562
  104OSM   C12S10591   5.986   2.069   9.625  0.3908  0.3329 -0.2362
  104OSM   H12S10592   5.877   2.049   9.635  0.5155 -0.2929 -0.0254
  104OSM   H12T10593   6.025   1.966   9.639  2.2822  1.4382  4.3832
  104OSM   C13S10594   6.012   2.118   9.485 -0.1287  0.7662  0.3130
  104OSM   H13S10595   6.119   2.120   9.454 -0.3505 -2.1020 -0.9404
  104OSM   H13T10596   5.962   2.217   9.474 -0.4156  0.5563 -0.2919
  104OSM   C14S10597   5.938   2.035   9.383  0.4987  0.2713  0.0809
  104OSM   H14S10598   5.829   2.049   9.401 -0.1135 -2.9264 -0.5800
  104OSM   H14T10599   5.951   1.926   9.392  1.5702  0.3941  0.1489
  104OSM   C15S10600   5.971   2.055   9.236 -0.6027  0.4549  0.0255
  104OSM   H15S10601   5.940   2.158   9.211 -1.7765  0.5533  1.7371
  104OSM   H15T10602   5.901   2.003   9.168 -1.3058  2.1188 -0.5607
  104OSM   C16S10603   6.108   2.017   9.183 -0.1988  0.3320  0.3402
  104OSM   H16S10604   6.126   1.909   9.206 -1.4259  0.6021  2.7969
  104OSM   H16T10605   6.190   2.068   9.239  0.5912  0.1552 -0.6136
  104OSM   C17S10606   6.125   2.036   9.027 -0.9270 -0.0539 -0.2334
  104OSM   H17S10607   6.079   2.131   8.994 -0.6626 -0.2611 -1.2130
  104OSM   H17T10608   6.066   1.960   8.971 -0.3926  0.2695 -1.2495
  104OSM   C18S10609   6.266   2.028   8.969  0.6153 -0.5368  0.4571
  104OSM   H18S10610   6.326   2.117   8.998  2.2476 -2.2726  2.7615
  104OSM   H18T10611   6.266   2.022   8.858  2.7026  1.1777  0.3046
  104OSM   H18U10612   6.321   1.942   9.013 -0.0089 -1.0936  0.1646
  104OSM    C1F10613   5.917   2.387  10.345 -0.1148  0.2829 -0.0127
  104OSM     OF10614   5.933   2.501  10.389 -0.1313 -0.0358 -0.0576
  104OSM    C2F10615   5.854   2.367  10.207 -0.0719  0.4143 -0.1442
  104OSM    H2F10616   5.745   2.385  10.215 -0.6109 -2.7712  0.9246
  104OSM    H2G10617   5.870   2.260  10.181 -2.9407 -0.7540  2.3496
  104OSM    C3F10618   5.922   2.454  10.107 -0.2874 -0.4215 -0.3232
  104OSM    H3F10619   6.032   2.437  10.107 -0.7681 -4.6985 -1.5526
  104OSM    H3G10620   5.908   2.562  10.126  0.8451 -0.1814 -0.7308
  104OSM    C4F10621   5.880   2.445   9.956 -0.3354 -0.0045 -0.2314
  104OSM    H4F10622   5.770   2.461   9.969 -0.2373  0.4192  0.0937
  104OSM    H4G10623   5.920   2.348   9.920 -0.7274 -0.3511  0.2380
  104OSM    C5F10624   5.932   2.559   9.871  0.0433 -0.6014 -0.3955
  104OSM    H5F10625   6.042   2.551   9.858  0.2072 -0.1694  0.6074
  104OSM    H5G10626   5.899   2.653   9.920 -0.4439 -1.1992  0.4535
  104OSM    C6F10627   5.864   2.560   9.732 -0.2750 -0.6505  0.5008
  104OSM    H6F10628   5.754   2.572   9.742 -0.6004 -2.4221 -0.5517
  104OSM    H6G10629   5.888   2.461   9.689  1.9863 -0.2928  0.8398
  104OSM    C7F10630   5.933   2.678   9.642 -0.3446  1.2238  0.5161
  104OSM    H7F10631   6.040   2.652   9.631 -0.5589  0.7380 -0.4772
  104OSM    H7G10632   5.924   2.766   9.710 -0.3917  0.5922  1.3413
  104OSM    C8F10633   5.863   2.701   9.509 -0.2333  0.0868 -0.1401
  104OSM    H8F10634   5.900   2.797   9.466 -0.2262 -0.5702 -1.6769
  104OSM    H8G10635   5.755   2.718   9.530 -0.4805 -1.9661  0.4370
  104OSM    C9F10636   5.887   2.577   9.417  0.0695 -0.3327  0.6150
  104OSM    H9F10637   5.903   2.481   9.468  1.0176 -1.3613 -1.5316
  104OSM   C10F10638   5.880   2.568   9.283  0.1179  0.6181  0.3841
  104OSM   H10F10639   5.888   2.463   9.252  0.0326  0.3798  1.1432
  104OSM   C11F10640   5.858   2.679   9.176 -0.1257  0.3042  0.6459
  104OSM   H11F10641   5.959   2.696   9.133 -1.0052 -0.4571 -1.9258
  104OSM   H11G10642   5.814   2.770   9.223 -2.3472  1.0288 -2.5041
  104OSM   C12F10643   5.757   2.664   9.056 -0.1107  0.1931 -1.0995
  104OSM   H12F10644   5.775   2.763   9.010  1.1735  1.1122  1.2249
  104OSM   H12G10645   5.659   2.661   9.108  1.4012  1.3806  2.0869
  104OSM   C13F10646   5.786   2.549   8.965  0.2912 -0.4749  0.0452
  104OSM   H13F10647   5.771   2.455   9.021 -1.3535 -1.0498 -1.2598
  104OSM   H13G10648   5.894   2.553   8.939 -0.2812  1.1496 -2.4633
  104OSM   C14F10649   5.712   2.539   8.829 -0.8562  0.0251  0.6338
  104OSM   H14F10650   5.702   2.643   8.791 -3.0690  0.6839  2.7266
  104OSM   H14G10651   5.612   2.491   8.835 -0.7009 -0.4330 -0.2855
  104OSM   C15F10652   5.789   2.445   8.730 -0.9692 -0.4855  0.2715
  104OSM   H15F10653   5.889   2.490   8.710 -0.5307 -0.5221  2.1739
  104OSM   H15G10654   5.735   2.424   8.635 -0.6078 -2.0167  0.3746
  104OSM   C16F10655   5.816   2.309   8.792  0.0523  0.1275 -0.0357
  104OSM   H16F10656   5.720   2.262   8.822 -0.4014  1.3395  0.4718
  104OSM   H16G10657   5.875   2.308   8.886  0.5591 -0.5185 -0.3552
  104OSM   C17F10658   5.897   2.226   8.697 -0.5550 -0.7609  0.3503
  104OSM   H17F10659   6.002   2.260   8.707  0.0060 -2.3701  0.1836
  104OSM   H17G10660   5.859   2.244   8.594  0.8805  0.4597  0.0027
  104OSM   C18F10661   5.893   2.079   8.747 -0.6234  0.0883 -0.1545
  104OSM   H18F10662   5.799   2.026   8.723 -0.9612  1.0037 -0.8897
  104OSM   H18G10663   5.913   2.078   8.857 -0.5076 -0.9129 -0.1751
  104OSM   H18H10664   5.970   2.018   8.695 -0.1651  0.7516 -0.2731
  105OSM      N10665   6.610   1.428  10.720  0.2394 -0.0982  0.1018
  105OSM    C1510666   6.608   1.538  10.825  0.3039 -0.1898  0.1763
  105OSM   H15A10667   6.525   1.602  10.797  1.3959  1.3955  0.3920
  105OSM   H15B10668   6.697   1.600  10.828  1.4260 -1.7046 -0.6609
  105OSM   H15C10669   6.582   1.492  10.919  0.0636 -0.8823 -0.2285
  105OSM    C1410670   6.594   1.498  10.588 -1.2086 -0.1353 -0.7863
  105OSM   H14A10671   6.684   1.554  10.566  0.9529 -2.4785  1.4123
  105OSM   H14B10672   6.504   1.557  10.590  0.4954  2.7386 -2.4587
  105OSM   H14C10673   6.577   1.433  10.503  0.9291 -1.0665 -0.5699
  105OSM    C1310674   6.751   1.364  10.727 -0.5305  1.0199 -0.5994
  105OSM   H13A10675   6.761   1.279  10.661 -0.6067  1.0107 -0.5991
  105OSM   H13B10676   6.768   1.326  10.826  0.0043  2.1332 -0.2480
  105OSM   H13C10677   6.835   1.429  10.704 -2.0065  1.6955 -5.1816
  105OSM    C1210678   6.501   1.331  10.745  0.7117 -0.4062 -0.2092
  105OSM   H12A10679   6.404   1.378  10.738 -0.1304 -1.9787  0.3558
  105OSM   H12B10680   6.502   1.290  10.845  0.5811 -1.1198 -0.4907
  105OSM    C1110681   6.483   1.211  10.646 -0.4562 -0.5212 -0.6590
  105OSM   H11A10682   6.580   1.165  10.618 -0.6653 -1.0623 -0.5189
  105OSM   H11B10683   6.435   1.245  10.551  1.8018 -2.0162 -2.4484
  105OSM      P10684   6.431   1.023  10.819  0.0628 -0.5535 -0.0913
  105OSM    O1310685   6.550   1.082  10.879 -0.3054  0.1900  0.2737
  105OSM    O1410686   6.308   1.016  10.906 -0.7895  0.4267  0.0472
  105OSM    O1110687   6.453   0.881  10.753 -0.2773 -0.2667  0.5005
  105OSM    O1210688   6.390   1.124  10.709 -0.0237  0.0765  0.0942
  105OSM    C1S10689   6.413   0.864  10.613  0.1536 -0.3274  0.3973
  105OSM    H1S10690   6.480   0.924  10.547  2.3937 -2.0179  0.9998
  105OSM    H1T10691   6.308   0.893  10.596  0.3736 -0.0457 -0.5149
  105OSM     NF10692   6.376   0.719  10.428  0.3681 -0.0975  0.3984
  105OSM    HNF10693   6.287   0.677  10.412  0.0114  0.3969  1.0373
  105OSM    C2S10694   6.434   0.717  10.560 -0.3940 -0.7166  0.7064
  105OSM    H2S10695   6.540   0.685  10.547 -0.5612 -0.7524 -0.6525
  105OSM    C3S10696   6.381   0.612  10.660 -0.8702  0.0829 -0.2203
  105OSM    H3S10697   6.277   0.637  10.689 -0.9364  0.8476 -1.0435
  105OSM     O310698   6.450   0.612  10.786 -0.3551 -0.1822  0.0991
  105OSM    HO310699   6.502   0.693  10.783 -0.6857  0.0057 -1.2759
  105OSM    C4S10700   6.387   0.475  10.600  0.2838  0.7795 -0.7172
  105OSM    H4S10701   6.288   0.448  10.561  1.0485 -1.1611 -1.4477
  105OSM    C5S10702   6.492   0.389  10.605  0.0034 -0.1770  0.0106
  105OSM    H5S10703   6.582   0.416  10.662 -0.0819 -0.1232  0.1191
  105OSM    C6S10704   6.492   0.254  10.539  0.7205  0.8791 -0.1523
  105OSM    H6S10705   6.394   0.215  10.505  0.5784  1.2010 -0.1078
  105OSM    H6T10706   6.521   0.174  10.612 -0.6070  0.1855 -0.3510
  105OSM    C7S10707   6.579   0.234  10.411  0.1419  0.4450  0.0567
  105OSM    H7S10708   6.587   0.124  10.398 -1.0528  0.5561 -1.9103
  105OSM    H7T10709   6.680   0.277  10.428  0.6249  0.3233 -2.2738
  105OSM    C8S10710   6.538   0.308  10.289  0.7018 -0.2079  0.2782
  105OSM    H8S10711   6.606   0.298  10.201  1.1276 -1.1802  0.7114
  105OSM    H8T10712   6.541   0.418  10.305  3.3736  0.0712 -1.4538
  105OSM    C9S10713   6.398   0.253  10.233  0.0010 -0.2119 -0.3027
  105OSM    H9S10714   6.329   0.276  10.317 -1.3015  0.1321 -1.4359
  105OSM    H9T10715   6.404   0.142  10.233 -1.9178 -0.3716  1.2343
  105OSM   C10S10716   6.351   0.317  10.101 -0.5144 -0.0630 -0.0142
  105OSM   H10S10717   6.410   0.409  10.080 -1.4146  0.6283  0.3491
  105OSM   H10T10718   6.242   0.339  10.105 -1.1823 -3.1420  1.3983
  105OSM   C11S10719   6.371   0.223   9.982  0.0825 -0.4995 -0.4772
  105OSM   H11S10720   6.297   0.140   9.986 -0.5382  0.0354 -0.6544
  105OSM   H11T10721   6.475   0.186   9.984 -0.5481 -2.4389 -1.1728
  105OSM   C12S10722   6.341   0.301   9.846  0.4824  0.4091  0.0160
  105OSM   H12S10723   6.416   0.381   9.830 -0.2430  1.3912  1.3290
  105OSM   H12T10724   6.251   0.365   9.858  0.9509  0.7608  1.8907
  105OSM   C13S10725   6.342   0.206   9.722  0.2047 -0.9683 -0.0832
  105OSM   H13S10726   6.265   0.128   9.739  1.3341 -2.1566 -0.2568
  105OSM   H13T10727   6.443   0.161   9.725  0.6810  0.1349  1.1183
  105OSM   C14S10728   6.316   0.292   9.599  0.4254 -0.4344 -0.4156
  105OSM   H14S10729   6.371   0.387   9.611  0.3515 -0.2817 -1.2332
  105OSM   H14T10730   6.205   0.303   9.599  0.4221  0.0834  1.8623
  105OSM   C15S10731   6.353   0.230   9.469 -0.7115  0.2232  0.2760
  105OSM   H15S10732   6.336   0.120   9.470 -2.3554  0.4360 -0.7946
  105OSM   H15T10733   6.463   0.242   9.463 -0.1335 -2.0343  3.4853
  105OSM   C16S10734   6.277   0.302   9.353 -0.1009 -0.1093 -0.4907
  105OSM   H16S10735   6.266   0.411   9.373 -0.8463 -0.3518  0.4861
  105OSM   H16T10736   6.176   0.258   9.350  0.2295 -1.5378  3.4610
  105OSM   C17S10737   6.346   0.288   9.217  0.3813 -0.0154 -0.0320
  105OSM   H17S10738   6.439   0.349   9.208 -0.4591  1.4984  1.1122
  105OSM   H17T10739   6.281   0.317   9.132 -0.7048  1.3896  1.2361
  105OSM   C18S10740   6.375   0.142   9.187  0.3001 -0.5770  0.6611
  105OSM   H18S10741   6.286   0.077   9.198 -1.7880  1.9359 -0.3093
  105OSM   H18T10742   6.453   0.095   9.252 -0.0572  0.7848  2.1596
  105OSM   H18U10743   6.409   0.135   9.082 -0.2055 -0.9712  0.5219
  105OSM    C1F10744   6.451   0.774  10.330  1.1482 -0.6513  0.4184
  105OSM     OF10745   6.572   0.788  10.344  0.4191  0.2924 -0.2831
  105OSM    C2F10746   6.375   0.823  10.210  0.5044  0.0971 -0.0643
  105OSM    H2F10747   6.375   0.934  10.202  1.4614  0.0633 -0.6102
  105OSM    H2G10748   6.266   0.802  10.219  1.0265 -1.8711  3.9330
  105OSM    C3F10749   6.438   0.768  10.082  0.6093  0.6063  0.3554
  105OSM    H3F10750   6.431   0.658  10.071  0.3797  0.6204  0.3497
  105OSM    H3G10751   6.546   0.791  10.075  0.8182 -0.7651 -1.6254
  105OSM    C4F10752   6.381   0.843   9.959  0.7476  0.2614 -0.4191
  105OSM    H4F10753   6.405   0.952   9.966  1.2235  0.0483  2.0467
  105OSM    H4G10754   6.271   0.853   9.973  0.9203  1.7405  0.1470
  105OSM    C5F10755   6.430   0.791   9.823  0.0789 -0.3057  0.0936
  105OSM    H5F10756   6.436   0.681   9.840 -1.2219 -0.0248  2.9779
  105OSM    H5G10757   6.531   0.829   9.799 -0.2164  0.1272 -0.5024
  105OSM    C6F10758   6.336   0.840   9.707 -0.2482 -0.1161  1.0865
  105OSM    H6F10759   6.346   0.950   9.719 -0.2474 -0.2743  2.7828
  105OSM    H6G10760   6.232   0.816   9.740  0.8004 -1.9151  3.4288
  105OSM    C7F10761   6.387   0.790   9.572  0.0118 -0.3893  0.3327
  105OSM    H7F10762   6.402   0.681   9.590  1.7339  0.0376  1.7866
  105OSM    H7G10763   6.483   0.841   9.551 -1.1774  1.9087  0.1765
  105OSM    C8F10764   6.292   0.838   9.452  0.0742 -0.6326 -0.1187
  105OSM    H8F10765   6.281   0.949   9.447 -0.4593 -0.6352  0.8531
  105OSM    H8G10766   6.190   0.822   9.492  0.3858  1.3344  1.6569
  105OSM    C9F10767   6.315   0.767   9.322 -0.6960 -0.3475 -0.6019
  105OSM    H9F10768   6.338   0.660   9.330 -1.0356 -0.3676  0.3337
  105OSM   C10F10769   6.333   0.832   9.203  0.1135  0.7055 -0.1512
  105OSM   H10F10770   6.365   0.769   9.118  3.0212  1.0430  0.5791
  105OSM   C11F10771   6.332   0.976   9.172 -0.1554 -0.7728  0.1769
  105OSM   H11F10772   6.439   0.995   9.151  0.0937 -0.5712  1.5677
  105OSM   H11G10773   6.297   1.045   9.251  1.3721 -0.6467  0.7668
  105OSM   C12F10774   6.255   1.007   9.045 -0.2853 -0.0901  0.7220
  105OSM   H12F10775   6.152   0.967   9.047  0.0247 -1.1065 -1.1162
  105OSM   H12G10776   6.311   0.952   8.966 -2.2411 -1.6575  0.3522
  105OSM   C13F10777   6.262   1.153   8.992  0.1997  0.0967  0.3583
  105OSM   H13F10778   6.368   1.172   8.962  0.7775 -1.8138  1.0341
  105OSM   H13G10779   6.234   1.210   9.083 -0.9235  1.0464 -0.5423
  105OSM   C14F10780   6.173   1.184   8.874  0.1523 -0.0215 -0.0570
  105OSM   H14F10781   6.074   1.152   8.915  1.2796 -1.2795  1.8283
  105OSM   H14G10782   6.204   1.127   8.784 -1.6014  0.8364 -1.2711
  105OSM   C15F10783   6.178   1.333   8.835 -0.2454 -0.3599  0.3781
  105OSM   H15F10784   6.281   1.360   8.806 -0.2430 -1.4327 -0.6733
  105OSM   H15G10785   6.160   1.400   8.922 -1.6019  1.8884 -1.5103
  105OSM   C16F10786   6.087   1.373   8.723 -0.2761  0.0835 -0.1302
  105OSM   H16F10787   5.980   1.349   8.739  0.2366 -1.8795  0.7204
  105OSM   H16G10788   6.115   1.299   8.645  1.3628  0.2638  0.2362
  105OSM   C17F10789   6.107   1.523   8.681  0.4858 -0.0053  0.4416
  105OSM   H17F10790   6.064   1.543   8.580  1.1902  0.1656  0.1648
  105OSM   H17G10791   6.215   1.547   8.671  0.3813  0.1835 -0.3271
  105OSM   C18F10792   6.037   1.619   8.786 -0.0860  0.7613 -0.1538
  105OSM   H18F10793   6.079   1.604   8.888 -0.3902  0.2582 -0.1027
  105OSM   H18G10794   5.930   1.591   8.782  0.0453  0.2524 -0.0826
  105OSM   H18H10795   6.049   1.728   8.766  0.7084  0.7363  0.1230
  106OSM      N10796   0.829   3.822  11.135  0.0186 -0.3512 -0.2398
  106OSM    C1510797   0.912   3.878  11.248  0.4727  0.9031 -0.1599
  106OSM   H15A10798   0.901   3.985  11.252 -0.9278  0.7563  0.8084
  106OSM   H15B10799   1.018   3.864  11.236  0.5712  0.1559  1.2484
  106OSM   H15C10800   0.890   3.826  11.341  1.2347 -3.8069 -2.3232
  106OSM    C1410801   0.844   3.672  11.125  0.3953 -0.4262  0.3163
  106OSM   H14A10802   0.804   3.621  11.212 -0.2358  0.2645  0.4414
  106OSM   H14B10803   0.948   3.648  11.109  1.2412  0.1663  3.9228
  106OSM   H14C10804   0.792   3.626  11.043 -1.4522 -0.0566  1.2334
  106OSM    C1310805   0.689   3.853  11.150  0.4094  0.3920  0.2159
  106OSM   H13A10806   0.628   3.795  11.083  1.3024  0.1563 -0.4169
  106OSM   H13B10807   0.663   3.958  11.137  1.5753  1.0502  2.6145
  106OSM   H13C10808   0.656   3.830  11.250  1.9484 -1.1003  0.4320
  106OSM    C1210809   0.889   3.892  11.008 -0.6193  1.0860 -0.1013
  106OSM   H12A10810   0.846   3.849  10.918  0.1892  0.9681 -0.4372
  106OSM   H12B10811   0.993   3.866  11.001 -0.8673 -0.1661  0.5116
  106OSM    C1110812   0.877   4.038  10.996  0.3483  0.1338  0.0785
  106OSM   H11A10813   0.923   4.092  11.081 -0.8578 -0.7754  1.3421
  106OSM   H11B10814   0.769   4.063  10.998 -0.0294 -1.3971  0.5843
  106OSM      P10815   0.851   4.105  10.750 -0.2203  0.1808  0.1291
  106OSM    O1310816   0.804   3.973  10.703 -0.2042  0.3936  0.1583
  106OSM    O1410817   0.748   4.209  10.777  0.2309  0.0196  0.4333
  106OSM    O1110818   0.953   4.167  10.645  0.0863 -0.8000 -0.9030
  106OSM    O1210819   0.941   4.090  10.880 -0.1955  0.5172  0.4021
  106OSM    C1S10820   1.065   4.094  10.586 -0.4629 -0.2925 -0.5518
  106OSM    H1S10821   1.056   3.987  10.611 -0.6348  0.0705  1.0319
  106OSM    H1T10822   1.162   4.137  10.619  0.1107 -1.2972 -0.8736
  106OSM     NF10823   1.151   4.017  10.374 -0.6123 -0.1444  0.2938
  106OSM    HNF10824   1.235   4.058  10.340 -2.2134  0.0665 -3.9625
  106OSM    C2S10825   1.055   4.107  10.430 -0.4778  0.1832  0.2611
  106OSM    H2S10826   0.952   4.069  10.411 -0.4187  0.2723 -0.2374
  106OSM    C3S10827   1.065   4.248  10.374 -0.0505  0.0596 -0.5707
  106OSM    H3S10828   1.164   4.299  10.383 -0.4791  1.0465 -1.2373
  106OSM     O310829   0.972   4.335  10.440  0.5536 -0.7791  0.4392
  106OSM    HO310830   0.932   4.274  10.502  1.6418 -1.4469  0.5182
  106OSM    C4S10831   1.042   4.248  10.230 -0.0473 -0.4037  0.4837
  106OSM    H4S10832   0.950   4.192  10.207  1.7688 -2.8636 -1.2960
  106OSM    C5S10833   1.125   4.288  10.131 -0.2983 -0.3028 -0.6780
  106OSM    H5S10834   1.221   4.337  10.153 -0.4441 -0.1539 -0.3784
  106OSM    C6S10835   1.082   4.281   9.987  0.6702  0.9171 -0.9789
  106OSM    H6S10836   1.166   4.329   9.932  1.1066  2.8504  1.2039
  106OSM    H6T10837   1.008   4.360   9.963 -0.3647  0.5925  0.9839
  106OSM    C7S10838   1.024   4.144   9.940 -0.5783 -0.2415 -0.5472
  106OSM    H7S10839   0.923   4.130   9.984 -0.5714 -1.3442 -0.8547
  106OSM    H7T10840   1.090   4.061   9.972  0.7353  1.0212  0.1436
  106OSM    C8S10841   0.997   4.148   9.792 -0.0359 -0.0280  0.5861
  106OSM    H8S10842   0.963   4.252   9.772  1.1486  0.2098 -0.3448
  106OSM    H8T10843   0.913   4.079   9.769  1.0935 -1.4836  0.6572
  106OSM    C9S10844   1.121   4.103   9.711  0.6952 -0.0064 -0.6202
  106OSM    H9S10845   1.156   4.008   9.756  0.3465  0.1281 -0.0461
  106OSM    H9T10846   1.205   4.175   9.723  0.4588  0.2151 -0.2412
  106OSM   C10S10847   1.082   4.090   9.564  0.1302 -0.1444 -1.0630
  106OSM   H10S10848   1.037   4.186   9.532  2.2428  0.5163 -2.2955
  106OSM   H10T10849   1.004   4.013   9.543  0.6670 -1.4035  1.2347
  106OSM   C11S10850   1.199   4.056   9.471 -0.6203 -0.1311 -0.1327
  106OSM   H11S10851   1.238   3.957   9.502 -4.3485 -0.5120  4.2833
  106OSM   H11T10852   1.286   4.124   9.479 -0.6209 -0.1240 -0.1780
  106OSM   C12S10853   1.152   4.063   9.328 -0.0355  0.5713  0.0697
  106OSM   H12S10854   1.130   4.170   9.313 -0.3973  0.4576 -0.2079
  106OSM   H12T10855   1.056   4.011   9.309 -1.5066  2.5173  1.7401
  106OSM   C13S10856   1.257   4.011   9.226 -0.5573  0.3795  0.8203
  106OSM   H13S10857   1.267   3.901   9.240 -2.1453 -0.1972 -1.8958
  106OSM   H13T10858   1.355   4.062   9.239 -0.4629  1.2333 -2.4031
  106OSM   C14S10859   1.204   4.030   9.088  0.7583 -0.7581 -0.8092
  106OSM   H14S10860   1.196   4.140   9.073 -1.5379 -0.5192  1.5714
  106OSM   H14T10861   1.100   3.995   9.072 -0.7546  3.0521 -0.2597
  106OSM   C15S10862   1.285   3.965   8.972  0.3181  0.4022 -0.5478
  106OSM   H15S10863   1.231   3.988   8.878  3.2314  0.9917 -2.2176
  106OSM   H15T10864   1.291   3.856   8.993 -1.6340  0.6372  1.7080
  106OSM   C16S10865   1.425   4.039   8.965 -0.0136  0.1203 -0.4753
  106OSM   H16S10866   1.502   4.004   9.038  1.0715  2.2788 -0.5002
  106OSM   H16T10867   1.408   4.145   8.992 -0.5435 -0.0837 -0.0005
  106OSM   C17S10868   1.480   4.034   8.818  0.2005 -0.1038  0.4781
  106OSM   H17S10869   1.403   4.049   8.739  1.8759 -2.4389 -1.7531
  106OSM   H17T10870   1.522   3.934   8.796  1.1992  0.3918  0.0828
  106OSM   C18S10871   1.586   4.142   8.803 -0.0653  0.0805 -0.1291
  106OSM   H18S10872   1.643   4.126   8.709 -0.5314  0.7943 -0.5389
  106OSM   H18T10873   1.657   4.145   8.889 -0.9526  0.4274  0.6028
  106OSM   H18U10874   1.533   4.239   8.792  1.3314  0.9188  0.2081
  106OSM    C1F10875   1.137   3.882  10.380  0.3319  0.1070 -0.1007
  106OSM     OF10876   1.024   3.833  10.399 -0.0677 -0.5588 -0.1452
  106OSM    C2F10877   1.264   3.805  10.372 -0.3814  0.2447 -0.9129
  106OSM    H2F10878   1.264   3.724  10.447  1.2479  0.0072 -1.1310
  106OSM    H2G10879   1.348   3.873  10.397  0.3521 -0.5968 -1.0684
  106OSM    C3F10880   1.285   3.730  10.237 -0.8979 -0.2077  0.1730
  106OSM    H3F10881   1.201   3.661  10.212 -0.5641 -1.0631  1.3268
  106OSM    H3G10882   1.381   3.677  10.257 -0.3643 -0.2358 -2.1699
  106OSM    C4F10883   1.306   3.817  10.110  0.4757 -0.6197 -0.2105
  106OSM    H4F10884   1.388   3.889  10.131  0.0866 -0.5795  1.3136
  106OSM    H4G10885   1.213   3.876  10.097  0.5498 -0.4346  0.0762
  106OSM    C5F10886   1.342   3.743   9.979  0.4732  1.4072  0.3782
  106OSM    H5F10887   1.388   3.643   9.995 -1.0793  0.8898  1.8694
  106OSM    H5G10888   1.417   3.802   9.922  2.4310 -1.6065 -0.3790
  106OSM    C6F10889   1.218   3.709   9.893 -0.1547  0.4266  0.3745
  106OSM    H6F10890   1.203   3.803   9.835  2.8857 -0.6408 -2.4554
  106OSM    H6G10891   1.130   3.689   9.958  0.0074  3.8556  1.9105
  106OSM    C7F10892   1.243   3.592   9.794  0.1667 -0.1025 -0.2708
  106OSM    H7F10893   1.146   3.557   9.754  0.2979 -0.3601 -0.3651
  106OSM    H7G10894   1.280   3.509   9.859 -0.7244  0.0624  0.4753
  106OSM    C8F10895   1.332   3.636   9.673 -0.6442  0.7834  0.3096
  106OSM    H8F10896   1.427   3.685   9.703  0.5738  0.3711 -2.5974
  106OSM    H8G10897   1.268   3.708   9.618 -0.4720  0.8040  0.1378
  106OSM    C9F10898   1.367   3.515   9.589  0.3506  0.7067 -0.3908
  106OSM    H9F10899   1.433   3.443   9.640 -0.2138 -0.9480 -1.8936
  106OSM   C10F10900   1.331   3.491   9.459  0.2039 -0.1874  0.4364
  106OSM   H10F10901   1.348   3.388   9.421 -0.1155  0.1991 -0.8144
  106OSM   C11F10902   1.256   3.590   9.382  0.7528  0.1409  0.0549
  106OSM   H11F10903   1.323   3.663   9.333 -0.2854  1.1402  0.0981
  106OSM   H11G10904   1.171   3.640   9.433  1.4851  0.7520  0.7011
  106OSM   C12F10905   1.185   3.521   9.270  0.0208 -0.1312 -0.3035
  106OSM   H12F10906   1.113   3.445   9.307 -0.7628  0.5224 -0.4569
  106OSM   H12G10907   1.268   3.468   9.218  3.4417  3.7785  0.5850
  106OSM   C13F10908   1.106   3.610   9.175 -0.3580 -0.0140 -0.9330
  106OSM   H13F10909   1.175   3.687   9.136 -0.4297  0.4044 -0.2442
  106OSM   H13G10910   1.010   3.657   9.204  0.1985  1.4960 -1.4429
  106OSM   C14F10911   1.080   3.545   9.036 -0.0332 -0.3722  0.1524
  106OSM   H14F10912   1.019   3.454   9.053  0.6853 -1.3362 -2.1348
  106OSM   H14G10913   1.172   3.499   8.994  1.1804  2.1728 -0.1875
  106OSM   C15F10914   1.001   3.638   8.934  0.3266 -0.0258  0.1638
  106OSM   H15F10915   1.066   3.724   8.907  0.0737 -0.4781 -2.1062
  106OSM   H15G10916   0.909   3.671   8.985  1.6233  0.4279  2.3568
  106OSM   C16F10917   0.968   3.566   8.801 -0.1107  0.3028 -0.3196
  106OSM   H16F10918   0.922   3.467   8.822 -0.6592  1.1091  2.7685
  106OSM   H16G10919   1.062   3.558   8.742 -0.0924  0.7087 -0.3492
  106OSM   C17F10920   0.870   3.640   8.717 -0.3587 -0.7099  0.2946
  106OSM   H17F10921   0.766   3.634   8.757 -0.7222  1.3302 -0.2203
  106OSM   H17G10922   0.871   3.600   8.614 -1.9913 -0.2135  0.0528
  106OSM   C18F10923   0.887   3.791   8.698  0.5234 -1.3135 -0.6309
  106OSM   H18F10924   0.994   3.817   8.678  1.0132 -1.5222  1.5323
  106OSM   H18G10925   0.858   3.854   8.784  1.1297 -0.4507 -1.0436
  106OSM   H18H10926   0.835   3.821   8.604  1.2212 -1.3625 -1.0381
  107OSM      N10927   3.986   3.949  11.408 -0.1847  0.2535  0.7703
  107OSM    C1510928   4.003   3.830  11.504  0.3521  0.8818 -0.0082
  107OSM   H15A10929   3.999   3.870  11.605  0.4795 -0.2828  0.4819
  107OSM   H15B10930   4.096   3.783  11.478  0.1571  1.0567 -1.0656
  107OSM   H15C10931   3.924   3.758  11.487  2.3667 -1.4899  0.0993
  107OSM    C1410932   3.856   4.014  11.442  0.0876 -0.1330  0.2255
  107OSM   H14A10933   3.778   3.962  11.389 -0.9844  1.7868 -0.1860
  107OSM   H14B10934   3.867   4.116  11.408  0.1017 -0.5334 -1.0276
  107OSM   H14C10935   3.835   3.997  11.546  2.2415 -1.0979  0.5450
  107OSM    C1310936   4.100   4.039  11.435 -0.0884 -0.0257 -0.6707
  107OSM   H13A10937   4.089   4.112  11.357 -0.5851  0.9296  0.2620
  107OSM   H13B10938   4.186   3.974  11.441  0.1644  0.4093  2.4403
  107OSM   H13C10939   4.087   4.099  11.524  1.6596  3.5164 -2.6119
  107OSM    C1210940   3.993   3.893  11.266  0.6307  1.0918 -0.2600
  107OSM   H12A10941   4.096   3.871  11.246  1.4985  2.1502  2.5640
  107OSM   H12B10942   3.963   3.981  11.212  1.4416  1.7623  0.3665
  107OSM    C1110943   3.898   3.778  11.217  0.5282  0.5077 -0.1785
  107OSM   H11A10944   3.929   3.685  11.271 -1.4443 -0.8231 -1.2015
  107OSM   H11B10945   3.921   3.757  11.110 -0.4214 -2.2426  0.0675
  107OSM      P10946   3.690   3.927  11.152 -0.7670  0.3801 -0.3912
  107OSM    O1310947   3.546   3.932  11.201 -0.0040  0.4523  0.1191
  107OSM    O1410948   3.767   4.052  11.151  0.1477 -0.2765  0.4106
  107OSM    O1110949   3.693   3.871  11.006  0.8357 -0.0631  0.1148
  107OSM    O1210950   3.765   3.818  11.235 -0.3747  0.0876  0.3337
  107OSM    C1S10951   3.671   3.729  10.973 -0.4464  0.2378  0.5418
  107OSM    H1S10952   3.584   3.693  11.031  0.4579  0.0539  1.8402
  107OSM    H1T10953   3.762   3.680  11.014  1.4440  4.4155  1.9563
  107OSM     NF10954   3.615   3.573  10.787 -0.1802  0.4870 -0.4403
  107OSM    HNF10955   3.695   3.518  10.763 -2.4889 -3.0497 -0.8228
  107OSM    C2S10956   3.665   3.710  10.818  0.0406 -0.3268 -0.4153
  107OSM    H2S10957   3.582   3.780  10.793 -1.5428 -3.1057 -3.6052
  107OSM    C3S10958   3.792   3.753  10.740  0.0935 -0.1871 -0.2664
  107OSM    H3S10959   3.862   3.668  10.754 -0.6222 -0.5923  0.9859
  107OSM     O310960   3.848   3.881  10.768 -0.2230 -0.5423  0.3438
  107OSM    HO310961   3.835   3.891  10.863 -3.4580  2.0279 -0.1715
  107OSM    C4S10962   3.783   3.748  10.592 -0.3602  0.3232  0.2477
  107OSM    H4S10963   3.861   3.698  10.532 -1.9704  1.2145 -2.8363
  107OSM    C5S10964   3.677   3.799  10.530  0.2776  0.3359  0.2417
  107OSM    H5S10965   3.592   3.825  10.595  0.0884 -0.8950  0.4999
  107OSM    C6S10966   3.664   3.791  10.383 -0.3057  0.4234  0.8936
  107OSM    H6S10967   3.571   3.736  10.357  0.1038  0.4195 -0.7221
  107OSM    H6T10968   3.752   3.740  10.337 -0.9219 -0.1246  0.2983
  107OSM    C7S10969   3.660   3.924  10.300  0.2684  0.0899 -0.1261
  107OSM    H7S10970   3.763   3.964  10.310  0.7738 -1.2369  0.0308
  107OSM    H7T10971   3.596   4.006  10.340 -0.7877 -0.1771 -1.2251
  107OSM    C8S10972   3.639   3.894  10.150 -0.3671 -0.3011 -0.2068
  107OSM    H8S10973   3.539   3.850  10.130  0.0639 -1.1060 -0.5953
  107OSM    H8T10974   3.707   3.816  10.110 -2.0954 -1.9328 -0.0889
  107OSM    C9S10975   3.635   4.028  10.070 -0.3199 -0.3604  0.1297
  107OSM    H9S10976   3.730   4.084  10.087 -1.4293  1.7583 -0.2759
  107OSM    H9T10977   3.555   4.088  10.118 -1.6777 -3.7251  2.4744
  107OSM   C10S10978   3.627   3.993   9.915  0.7077 -0.0729 -0.2225
  107OSM   H10S10979   3.523   3.958   9.902  0.3444  0.2837  1.4796
  107OSM   H10T10980   3.703   3.916   9.893 -0.0136 -0.5930 -0.9425
  107OSM   C11S10981   3.654   4.105   9.811  0.0585 -0.3766  0.2740
  107OSM   H11S10982   3.744   4.162   9.841 -0.8921  1.9876 -1.0903
  107OSM   H11T10983   3.580   4.186   9.796  0.7354 -0.0110 -1.3187
  107OSM   C12S10984   3.668   4.049   9.670  0.2047 -0.1879 -0.1983
  107OSM   H12S10985   3.575   3.990   9.652 -0.5268  0.9890 -0.3610
  107OSM   H12T10986   3.758   3.984   9.675 -0.2865 -0.8353  0.4144
  107OSM   C13S10987   3.676   4.152   9.557 -0.0723  0.2862 -0.8108
  107OSM   H13S10988   3.749   4.233   9.581  1.0220 -1.3936  2.1015
  107OSM   H13T10989   3.572   4.186   9.538  0.3503  1.2737 -1.4219
  107OSM   C14S10990   3.713   4.082   9.424  0.2667  0.8997  0.3177
  107OSM   H14S10991   3.648   3.992   9.418 -1.9066  2.3322  1.1702
  107OSM   H14T10992   3.817   4.043   9.421  0.0490  0.3680 -2.1332
  107OSM   C15S10993   3.686   4.177   9.312 -0.2474  0.1109  1.0243
  107OSM   H15S10994   3.767   4.253   9.315  1.7035 -1.7974 -0.3827
  107OSM   H15T10995   3.589   4.228   9.329 -0.5730 -0.0357 -0.2501
  107OSM   C16S10996   3.687   4.103   9.176 -0.6067 -0.2713  0.1132
  107OSM   H16S10997   3.606   4.027   9.171 -0.8776  0.0586 -0.8746
  107OSM   H16T10998   3.786   4.055   9.160 -0.5989 -1.0277  2.2011
  107OSM   C17S10999   3.655   4.195   9.060 -0.7006  0.4365 -0.2484
  107OSM   H17S11000   3.727   4.279   9.061 -1.7375  1.5228 -3.1054
  107OSM   H17T11001   3.550   4.232   9.066 -0.8781  0.2104 -1.5512
  107OSM   C18S11002   3.679   4.121   8.927  0.5187  1.0019  0.6504
  107OSM   H18S11003   3.623   4.024   8.925  0.2835  1.1104  1.4269
  107OSM   H18T11004   3.778   4.097   8.884 -1.1887  0.0980 -3.2754
  107OSM   H18U11005   3.633   4.179   8.844 -1.2794  0.4404  1.1883
  107OSM    C1F11006   3.491   3.532  10.813  0.2641 -0.2031  0.8426
  107OSM     OF11007   3.413   3.600  10.880 -0.1009 -0.1364  0.0650
  107OSM    C2F11008   3.462   3.387  10.773 -0.8569  0.1678  0.0225
  107OSM    H2F11009   3.452   3.331  10.868  0.0990  2.6046  1.6494
  107OSM    H2G11010   3.541   3.341  10.710 -0.3087 -0.3074  1.0419
  107OSM    C3F11011   3.320   3.372  10.709  0.5991  0.1758 -0.1972
  107OSM    H3F11012   3.249   3.409  10.786  0.4245  0.1379 -0.3404
  107OSM    H3G11013   3.295   3.265  10.689  0.9366  0.0332  0.1265
  107OSM    C4F11014   3.289   3.464  10.592  0.6185  1.0681 -0.4402
  107OSM    H4F11015   3.308   3.573  10.603 -2.0479  1.7071 -1.4067
  107OSM    H4G11016   3.183   3.447  10.562  0.9532  0.5617 -1.3697
  107OSM    C5F11017   3.370   3.434  10.456  0.4796 -0.7851  0.7444
  107OSM    H5F11018   3.350   3.325  10.442 -1.4154 -0.5152  0.9751
  107OSM    H5G11019   3.479   3.440  10.472  0.7472  2.1156 -1.4759
  107OSM    C6F11020   3.325   3.499  10.326  0.5900  0.0293 -0.0736
  107OSM    H6F11021   3.364   3.604  10.332  2.8882 -0.7801  0.2192
  107OSM    H6G11022   3.216   3.493  10.310  0.5236  1.0411 -0.0737
  107OSM    C7F11023   3.400   3.436  10.202  0.1042  0.8146  0.8674
  107OSM    H7F11024   3.381   3.327  10.201 -0.1394  0.8540 -0.2565
  107OSM    H7G11025   3.508   3.437  10.230 -0.0073 -0.9299  1.4531
  107OSM    C8F11026   3.386   3.501  10.059  0.0337  0.0172  0.4904
  107OSM    H8F11027   3.480   3.472  10.008  1.0436  1.4791  1.4124
  107OSM    H8G11028   3.393   3.610  10.079  0.8015 -0.4220  2.9334
  107OSM    C9F11029   3.256   3.492   9.978  0.3231 -0.7229  0.1955
  107OSM    H9F11030   3.158   3.505  10.025 -1.2368 -1.4200 -2.6096
  107OSM   C10F11031   3.242   3.466   9.845 -0.0428 -0.4093  0.8659
  107OSM   H10F11032   3.138   3.468   9.811 -0.3861 -0.7551  1.8498
  107OSM   C11F11033   3.357   3.435   9.745  0.3866 -0.3333 -0.2571
  107OSM   H11F11034   3.444   3.399   9.803 -1.3595 -2.5566  1.1909
  107OSM   H11G11035   3.364   3.525   9.681 -0.2392 -1.0827 -1.4344
  107OSM   C12F11036   3.320   3.324   9.649  0.2993  0.7987  0.4299
  107OSM   H12F11037   3.230   3.332   9.584  0.6094 -0.7613 -0.2380
  107OSM   H12G11038   3.304   3.236   9.714 -1.1065  0.0525 -0.8648
  107OSM   C13F11039   3.443   3.291   9.564  0.3060 -0.0419  0.0119
  107OSM   H13F11040   3.409   3.197   9.516  0.6573  1.1813 -2.8713
  107OSM   H13G11041   3.530   3.272   9.629 -0.8305  0.5141  1.7715
  107OSM   C14F11042   3.478   3.386   9.447  0.0293  0.4188 -0.6220
  107OSM   H14F11043   3.578   3.353   9.410  0.1002 -1.8482  1.3668
  107OSM   H14G11044   3.492   3.487   9.492  0.8504  0.2169 -0.4140
  107OSM   C15F11045   3.379   3.394   9.330 -0.9649  0.6501 -0.1097
  107OSM   H15F11046   3.422   3.465   9.256  0.0963 -0.7418 -0.8843
  107OSM   H15G11047   3.289   3.447   9.367 -0.3068  0.5277  1.7768
  107OSM   C16F11048   3.347   3.256   9.266 -0.1064 -0.0093 -0.6811
  107OSM   H16F11049   3.263   3.203   9.315 -1.3061 -0.0985 -2.7187
  107OSM   H16G11050   3.434   3.193   9.295 -0.1164  0.9295  1.5896
  107OSM   C17F11051   3.306   3.283   9.123 -0.3894  0.1800  0.0131
  107OSM   H17F11052   3.363   3.371   9.084 -2.2302  1.3792 -0.1221
  107OSM   H17G11053   3.200   3.315   9.112 -0.0473  0.7393 -2.1276
  107OSM   C18F11054   3.327   3.159   9.033 -0.2781  0.3869  0.6874
  107OSM   H18F11055   3.433   3.127   9.023 -0.2708 -0.0668  2.0656
  107OSM   H18G11056   3.292   3.183   8.930  0.2913  2.1746  0.8817
  107OSM   H18H11057   3.273   3.070   9.071  0.5408  0.1023  1.2257
  108OSM      N11058   5.614   0.921  11.326 -0.2842  0.1084 -0.3467
  108OSM    C1511059   5.738   0.868  11.382 -0.2442  0.0498  0.4471
  108OSM   H15A11060   5.802   0.949  11.413 -1.1753  1.0269 -0.1048
  108OSM   H15B11061   5.780   0.804  11.306  3.4119  0.6329  1.8201
  108OSM   H15C11062   5.719   0.813  11.472  0.9829 -0.8724  0.1682
  108OSM    C1411063   5.559   1.032  11.413 -0.3522  0.2604 -0.4753
  108OSM   H14A11064   5.484   1.091  11.362 -1.5734 -1.9545 -1.3828
  108OSM   H14B11065   5.642   1.096  11.441  0.8899 -1.0584 -0.9692
  108OSM   H14C11066   5.514   0.996  11.503  0.8629  2.7921  1.2656
  108OSM    C1311067   5.640   0.988  11.192  0.5471 -1.3248  0.0594
  108OSM   H13A11068   5.689   1.080  11.220 -1.9300  0.2244 -0.3782
  108OSM   H13B11069   5.547   1.010  11.141  0.6912  1.3767  0.7975
  108OSM   H13C11070   5.713   0.930  11.138  1.6548  0.5680 -0.5674
  108OSM    C1211071   5.515   0.805  11.298  0.5874 -0.5076  0.6044
  108OSM   H12A11072   5.515   0.723  11.368 -2.1982 -2.7984 -1.7882
  108OSM   H12B11073   5.545   0.758  11.206 -1.4517  2.1414 -1.5842
  108OSM    C1111074   5.364   0.839  11.268 -0.8878  0.1158  0.1258
  108OSM   H11A11075   5.330   0.886  11.363 -0.0376 -2.3599  1.7777
  108OSM   H11B11076   5.310   0.743  11.252 -0.0777 -0.2120 -0.6660
  108OSM      P11077   5.272   1.051  11.163  0.0744 -0.1775  0.4174
  108OSM    O1311078   5.125   1.013  11.168 -0.7468  0.2809  0.0912
  108OSM    O1411079   5.311   1.134  11.277  0.7951  0.0766  0.0302
  108OSM    O1111080   5.308   1.122  11.021 -0.0700  0.8140  0.3629
  108OSM    O1211081   5.350   0.918  11.154 -0.1545 -0.6054  0.1116
  108OSM    C1S11082   5.357   1.062  10.904 -0.0531  0.7271  1.1056
  108OSM    H1S11083   5.292   0.980  10.867  1.3788  0.9390 -2.1739
  108OSM    H1T11084   5.455   1.013  10.922  0.3801  0.3332 -1.8599
  108OSM     NF11085   5.423   1.065  10.671  0.3913 -0.0282 -0.0440
  108OSM    HNF11086   5.518   1.070  10.640  1.0461 -0.4081  1.7949
  108OSM    C2S11087   5.386   1.153  10.784 -0.1721  0.4926  0.8062
  108OSM    H2S11088   5.291   1.205  10.760  0.0341  0.0466 -1.1672
  108OSM    C3S11089   5.493   1.258  10.815  0.2528  0.0666 -0.3540
  108OSM    H3S11090   5.586   1.196  10.816  0.2564  0.0635 -0.6634
  108OSM     O311091   5.483   1.315  10.946  0.2197 -0.9768 -0.1549
  108OSM    HO311092   5.417   1.257  10.985 -0.1488 -1.1674 -1.0400
  108OSM    C4S11093   5.507   1.357  10.702 -0.6425 -0.2475  0.3548
  108OSM    H4S11094   5.566   1.308  10.623 -1.6476 -0.3558 -0.3517
  108OSM    C5S11095   5.455   1.477  10.685 -0.5815 -0.1581  0.4043
  108OSM    H5S11096   5.370   1.502  10.750 -1.4522  0.2934 -0.8756
  108OSM    C6S11097   5.478   1.586  10.582  0.0804  1.0682 -0.0360
  108OSM    H6S11098   5.539   1.672  10.617 -0.8668  0.5875  3.0977
  108OSM    H6T11099   5.382   1.631  10.548  0.1598  0.7200 -0.7460
  108OSM    C7S11100   5.533   1.538  10.452  0.1865  0.1051  0.2845
  108OSM    H7S11101   5.633   1.498  10.479  0.3570  0.0855 -0.3444
  108OSM    H7T11102   5.545   1.622  10.380 -3.1467  0.3104 -0.2003
  108OSM    C8S11103   5.439   1.435  10.376  0.1750 -0.0087 -0.7529
  108OSM    H8S11104   5.335   1.474  10.376  0.8129  1.9006  1.4304
  108OSM    H8T11105   5.437   1.336  10.427 -0.7805  0.5278  0.3129
  108OSM    C9S11106   5.491   1.407  10.236 -0.1216 -0.1250 -0.1219
  108OSM    H9S11107   5.570   1.329  10.239 -0.0458 -0.0260  0.9073
  108OSM    H9T11108   5.524   1.502  10.188 -1.9390  0.2964 -0.6100
  108OSM   C10S11109   5.374   1.357  10.157 -0.7026  0.6018 -0.8219
  108OSM   H10S11110   5.306   1.444  10.143 -0.6886  0.5470 -1.2689
  108OSM   H10T11111   5.318   1.281  10.214  0.9993  0.0616  0.2137
  108OSM   C11S11112   5.421   1.279  10.033 -0.2309  0.1471  0.0012
  108OSM   H11S11113   5.336   1.268   9.962  0.7639  1.1215 -1.4059
  108OSM   H11T11114   5.453   1.178  10.066  0.3055  0.5249  0.6545
  108OSM   C12S11115   5.545   1.348   9.958  0.0070 -0.4505 -0.2134
  108OSM   H12S11116   5.636   1.342  10.020  1.7667  0.7190 -2.5412
  108OSM   H12T11117   5.528   1.455   9.933  0.0577  0.1581  2.1679
  108OSM   C13S11118   5.586   1.285   9.822  0.4654  0.2846  0.5037
  108OSM   H13S11119   5.561   1.177   9.833 -1.3062  0.6203  0.1569
  108OSM   H13T11120   5.693   1.305   9.803  0.3176  0.2091 -0.4348
  108OSM   C14S11121   5.497   1.335   9.708  0.0560  0.5113  0.1784
  108OSM   H14S11122   5.494   1.446   9.703  0.3399  0.4748 -1.9051
  108OSM   H14T11123   5.397   1.299   9.739  0.5916 -0.1647  1.1985
  108OSM   C15S11124   5.543   1.292   9.567 -0.5533 -0.2447 -0.1906
  108OSM   H15S11125   5.570   1.185   9.576  1.1084  0.1689 -0.0478
  108OSM   H15T11126   5.638   1.345   9.543 -0.5930 -1.5053 -3.6769
  108OSM   C16S11127   5.428   1.304   9.468  0.1229 -0.6865 -0.1133
  108OSM   H16S11128   5.389   1.407   9.461 -0.5150 -1.0257 -2.0004
  108OSM   H16T11129   5.346   1.236   9.497 -1.1523  0.8803  0.0657
  108OSM   C17S11130   5.474   1.263   9.325 -0.1870 -0.2862 -0.8292
  108OSM   H17S11131   5.530   1.169   9.343  1.5783  1.0905  1.4157
  108OSM   H17T11132   5.552   1.336   9.294  0.1687  0.4842  1.6923
  108OSM   C18S11133   5.363   1.260   9.219  0.0456 -0.1356  0.3776
  108OSM   H18S11134   5.318   1.159   9.227 -1.3415  0.3785 -0.6584
  108OSM   H18T11135   5.403   1.265   9.115  1.5473 -0.9968  0.8728
  108OSM   H18U11136   5.283   1.336   9.231 -0.7310 -1.0187  0.8571
  108OSM    C1F11137   5.338   0.983  10.613  0.4144  0.2511 -0.4946
  108OSM     OF11138   5.219   0.970  10.645  0.4011  0.2910  0.0808
  108OSM    C2F11139   5.417   0.897  10.512 -0.1015  0.3503 -0.5114
  108OSM    H2F11140   5.404   0.790  10.540  0.0607  0.6401  0.7376
  108OSM    H2G11141   5.525   0.924  10.512  0.3545 -1.3621 -0.6866
  108OSM    C3F11142   5.372   0.914  10.366  0.4239 -0.0102 -0.4713
  108OSM    H3F11143   5.410   1.012  10.331  1.0738  0.3854  1.2529
  108OSM    H3G11144   5.261   0.911  10.359  0.3682 -0.3444  0.3779
  108OSM    C4F11145   5.430   0.803  10.279  0.4690 -0.9754  0.6357
  108OSM    H4F11146   5.405   0.707  10.329 -0.1345 -1.6028 -0.8247
  108OSM    H4G11147   5.541   0.803  10.269  0.5921  2.7997  0.5707
  108OSM    C5F11148   5.373   0.787  10.140  0.4931  0.3221  0.5159
  108OSM    H5F11149   5.264   0.803  10.146  0.5462  0.3342  1.9171
  108OSM    H5G11150   5.401   0.690  10.093  1.2316  0.3546  0.8574
  108OSM    C6F11151   5.411   0.895  10.032 -0.3438  0.2928 -0.1472
  108OSM    H6F11152   5.520   0.917  10.033 -0.7089  2.4515  2.1332
  108OSM    H6G11153   5.354   0.986  10.062 -3.1127 -1.5303  0.4954
  108OSM    C7F11154   5.365   0.866   9.889 -0.3534  0.0317  0.1364
  108OSM    H7F11155   5.358   0.968   9.846  0.2524  0.9460  2.1144
  108OSM    H7G11156   5.262   0.829   9.908 -1.0491  2.1686  0.7881
  108OSM    C8F11157   5.459   0.777   9.805  0.0947 -0.3136  0.6067
  108OSM    H8F11158   5.505   0.693   9.861  0.8133 -0.5076 -0.2712
  108OSM    H8G11159   5.544   0.840   9.772 -0.0701 -0.8437 -0.8680
  108OSM    C9F11160   5.389   0.711   9.688 -0.6355  0.4072  0.2450
  108OSM    H9F11161   5.312   0.638   9.715 -1.2739 -0.4157 -3.2715
  108OSM   C10F11162   5.395   0.748   9.558  1.0828  0.1038 -0.3340
  108OSM   H10F11163   5.343   0.679   9.490 -0.6648  1.1880 -0.1380
  108OSM   C11F11164   5.477   0.856   9.489 -0.2476  0.2711 -0.0388
  108OSM   H11F11165   5.574   0.866   9.543  0.1162 -0.5303 -0.5233
  108OSM   H11G11166   5.417   0.947   9.511  1.4091  1.6210 -0.9290
  108OSM   C12F11167   5.496   0.832   9.335  0.7395 -0.0069  0.3260
  108OSM   H12F11168   5.533   0.927   9.293  0.3125  0.3286  0.7026
  108OSM   H12G11169   5.399   0.809   9.285  0.6613  1.3930 -0.1956
  108OSM   C13F11170   5.597   0.719   9.306 -0.7970  0.0004 -0.5314
  108OSM   H13F11171   5.560   0.621   9.342  2.2345 -0.8245  0.5675
  108OSM   H13G11172   5.691   0.740   9.360 -0.0885  1.3101 -2.1748
  108OSM   C14F11173   5.621   0.723   9.160 -0.3511  0.9889  0.1171
  108OSM   H14F11174   5.539   0.669   9.108 -0.2612  1.2258 -0.2820
  108OSM   H14G11175   5.711   0.660   9.139 -0.1031  0.2016  3.0824
  108OSM   C15F11176   5.639   0.863   9.093  0.3367  0.4846  0.2404
  108OSM   H15F11177   5.724   0.915   9.142 -0.5167  2.0383  0.1191
  108OSM   H15G11178   5.542   0.916   9.081 -0.4939 -1.5999 -3.8835
  108OSM   C16F11179   5.678   0.838   8.944  0.5794  0.2674  0.7054
  108OSM   H16F11180   5.586   0.789   8.905 -0.2041  0.2265  2.4803
  108OSM   H16G11181   5.763   0.770   8.961 -0.8487 -1.7403  0.2320
  108OSM   C17F11182   5.693   0.972   8.877 -1.1502 -0.2736  0.2383
  108OSM   H17F11183   5.774   1.019   8.937 -1.1226 -3.6435  3.2039
  108OSM   H17G11184   5.596   1.026   8.882 -1.8149 -1.3575 -0.5894
  108OSM   C18F11185   5.744   0.962   8.729 -0.6388  0.1153  0.1020
  108OSM   H18F11186   5.667   0.917   8.663  0.0805  2.4626 -2.4993
  108OSM   H18G11187   5.841   0.907   8.726  0.3726  1.8926 -1.2957
  108OSM   H18H11188   5.767   1.060   8.683 -1.4909  0.8627  1.2131
  109OSM      N11189   5.370   3.864  10.669 -0.1703  0.2375  0.0550
  109OSM    C1511190   5.305   3.731  10.701 -0.4787 -0.1649  0.3097
  109OSM   H15A11191   5.287   3.678  10.608 -0.0919  0.9451 -0.4212
  109OSM   H15B11192   5.212   3.752  10.752  0.6548 -1.0471  2.9042
  109OSM   H15C11193   5.355   3.673  10.777 -0.6648  1.4942  1.7678
  109OSM    C1411194   5.289   3.923  10.562  0.5672 -0.3697  0.0186
  109OSM   H14A11195   5.190   3.955  10.588 -0.1467 -0.7523 -2.0722
  109OSM   H14B11196   5.262   3.853  10.484 -1.4827 -1.0279  1.2612
  109OSM   H14C11197   5.342   4.007  10.519 -0.1592 -0.6698 -1.5083
  109OSM    C1311198   5.377   3.939  10.797  0.5354  0.4319  0.3184
  109OSM   H13A11199   5.446   4.020  10.776  0.1053  0.7723  0.2152
  109OSM   H13B11200   5.429   3.888  10.876  0.5916 -3.6906 -2.1339
  109OSM   H13C11201   5.283   3.989  10.814 -0.8762 -1.3922 -1.6050
  109OSM    C1211202   5.513   3.834  10.617 -0.2811 -0.0310 -0.4036
  109OSM   H12A11203   5.514   3.773  10.528 -1.1664 -2.1769  0.9793
  109OSM   H12B11204   5.561   3.771  10.691 -1.0116 -1.7979 -1.3723
  109OSM    C1111205   5.611   3.955  10.604  0.0324 -0.2241 -0.0454
  109OSM   H11A11206   5.558   4.033  10.546 -0.4726 -0.2259  0.4059
  109OSM   H11B11207   5.703   3.918  10.554 -1.2427  0.0353 -2.7285
  109OSM      P11208   5.775   4.065  10.778 -0.6051  0.2249 -0.4291
  109OSM    O1311209   5.753   4.146  10.903  0.1276 -0.1163  0.1514
  109OSM    O1411210   5.879   3.955  10.795  0.2662  0.7296 -0.2037
  109OSM    O1111211   5.804   4.161  10.657  0.2992 -0.1903 -0.6418
  109OSM    O1211212   5.642   3.993  10.736  0.0228 -0.1557  0.2888
  109OSM    C1S11213   5.910   4.143  10.569 -0.3768 -0.1729  0.4855
  109OSM    H1S11214   5.962   4.048  10.594  0.2201  0.6145  2.4258
  109OSM    H1T11215   5.989   4.220  10.579  0.4309 -0.7990 -0.7526
  109OSM     NF11216   5.988   4.122  10.347 -0.8879  0.1175 -0.2896
  109OSM    HNF11217   6.034   4.209  10.333  0.3467 -0.1393  1.7325
  109OSM    C2S11218   5.868   4.144  10.417  0.5038  0.2322 -0.2437
  109OSM    H2S11219   5.802   4.057  10.399  2.3399 -1.1986 -0.4044
  109OSM    C3S11220   5.790   4.275  10.389 -0.1130  0.0339  0.1496
  109OSM    H3S11221   5.861   4.358  10.411  1.5566 -1.0925 -0.7884
  109OSM     O311222   5.676   4.298  10.474  0.1860 -0.5408  0.2897
  109OSM    HO311223   5.679   4.225  10.536 -2.5752 -0.1399  1.0436
  109OSM    C4S11224   5.747   4.280  10.245 -0.4166 -0.0652 -0.8124
  109OSM    H4S11225   5.827   4.326  10.184  0.3430 -0.0645  0.1503
  109OSM    C5S11226   5.630   4.242  10.194  1.0843  0.9452  0.3030
  109OSM    H5S11227   5.550   4.192  10.251 -0.1018 -0.3791 -2.3298
  109OSM    C6S11228   5.588   4.245  10.048  0.7809  0.4434  0.1149
  109OSM    H6S11229   5.477   4.245  10.039  0.4137 -0.8293  3.3443
  109OSM    H6T11230   5.616   4.149  10.001  0.0602  0.4640 -0.3660
  109OSM    C7S11231   5.649   4.355   9.958 -1.2987  0.1390 -0.4230
  109OSM    H7S11232   5.751   4.389   9.988 -0.5922 -2.1975  0.0371
  109OSM    H7T11233   5.597   4.449   9.987 -1.1778  0.1468 -0.2310
  109OSM    C8S11234   5.632   4.333   9.813 -0.0975 -0.2253  1.0335
  109OSM    H8S11235   5.688   4.244   9.775  0.4331  0.4366  0.2474
  109OSM    H8T11236   5.676   4.421   9.761  0.3544 -0.1302  1.5627
  109OSM    C9S11237   5.477   4.337   9.777  0.1560  0.0130 -0.5334
  109OSM    H9S11238   5.435   4.435   9.808 -1.5541 -0.3896 -1.4378
  109OSM    H9T11239   5.431   4.259   9.840  0.4934  0.2818  0.0526
  109OSM   C10S11240   5.457   4.307   9.629 -0.9563 -0.0333  0.1535
  109OSM   H10S11241   5.348   4.285   9.621 -0.7384 -0.4327 -2.4298
  109OSM   H10T11242   5.521   4.221   9.598 -2.0379 -0.8481  0.1072
  109OSM   C11S11243   5.476   4.426   9.539  0.0626  0.5013 -0.0331
  109OSM   H11S11244   5.556   4.492   9.581  1.1553 -0.6344 -0.2753
  109OSM   H11T11245   5.385   4.490   9.533 -1.5240 -1.6972 -0.2769
  109OSM   C12S11246   5.531   4.405   9.393  0.0180 -0.8083 -0.1768
  109OSM   H12S11247   5.457   4.338   9.343 -0.4122 -0.3521 -0.1570
  109OSM   H12T11248   5.626   4.347   9.393 -0.2200 -1.3264 -2.8710
  109OSM   C13S11249   5.559   4.534   9.318 -0.1434  0.6220 -0.4540
  109OSM   H13S11250   5.627   4.605   9.369 -0.2603  0.3733  0.0582
  109OSM   H13T11251   5.468   4.596   9.330 -1.5062 -1.7599  3.9191
  109OSM   C14S11252   5.609   4.512   9.174 -0.6534 -0.2006 -0.1955
  109OSM   H14S11253   5.609   4.608   9.118 -1.3537  0.8437  1.5147
  109OSM   H14T11254   5.533   4.448   9.124  1.0069 -0.8773 -2.0254
  109OSM   C15S11255   5.741   4.434   9.152  0.5107 -0.2534 -0.1807
  109OSM   H15S11256   5.734   4.332   9.196 -2.6041  0.2267  0.6826
  109OSM   H15T11257   5.816   4.486   9.216 -1.8810  3.1039  0.1569
  109OSM   C16S11258   5.805   4.447   9.013  0.4813  0.0151  0.0113
  109OSM   H16S11259   5.900   4.389   9.015  1.1144  0.9863 -0.8773
  109OSM   H16T11260   5.820   4.550   8.974 -1.5820 -0.4684 -2.3419
  109OSM   C17S11261   5.712   4.399   8.903 -0.0316 -0.0618  0.9358
  109OSM   H17S11262   5.610   4.437   8.925  0.0035  0.5789  0.0228
  109OSM   H17T11263   5.699   4.289   8.915 -0.8869 -0.2322 -1.1097
  109OSM   C18S11264   5.758   4.428   8.756  0.0073 -0.0286 -0.4432
  109OSM   H18S11265   5.659   4.417   8.706 -0.2569  0.7309 -0.0915
  109OSM   H18T11266   5.840   4.356   8.736  0.5109 -0.5495  2.9589
  109OSM   H18U11267   5.797   4.530   8.735  1.2431 -0.0308  1.5920
  109OSM    C1F11268   6.053   4.008  10.338  0.2654  0.1591 -0.2022
  109OSM     OF11269   6.005   3.899  10.373  1.0435 -0.2304  0.1479
  109OSM    C2F11270   6.198   4.012  10.290 -0.0465 -0.5995  0.3874
  109OSM    H2F11271   6.253   4.079  10.359 -0.9391  0.3107  0.2328
  109OSM    H2G11272   6.190   4.077  10.200  0.5647 -0.0128  0.7457
  109OSM    C3F11273   6.253   3.873  10.253  0.8219 -0.2556  0.1744
  109OSM    H3F11274   6.182   3.831  10.178 -0.1544 -2.0444  1.9987
  109OSM    H3G11275   6.242   3.810  10.343 -0.7532  1.9429  1.6064
  109OSM    C4F11276   6.391   3.865  10.193  0.2583  0.2438  0.7296
  109OSM    H4F11277   6.413   3.759  10.165 -0.3641  0.2849  0.0592
  109OSM    H4G11278   6.462   3.879  10.277  2.1631 -1.1502 -0.5633
  109OSM    C5F11279   6.421   3.952  10.071 -0.2058 -0.4469  0.7528
  109OSM    H5F11280   6.527   3.943  10.040 -0.8069 -1.3737 -1.2469
  109OSM    H5G11281   6.398   4.060  10.088  0.7903  0.1687 -1.3774
  109OSM    C6F11282   6.355   3.892   9.953 -0.6186 -0.6439 -0.4773
  109OSM    H6F11283   6.245   3.893   9.967 -0.4869 -2.1377  1.0599
  109OSM    H6G11284   6.387   3.786   9.942  0.1149 -0.5213  0.3212
  109OSM    C7F11285   6.386   3.966   9.824  0.3783  0.4681  0.2928
  109OSM    H7F11286   6.497   3.969   9.816  0.3922 -2.0731 -1.6039
  109OSM    H7G11287   6.347   4.069   9.838 -1.0497 -0.2158  1.6782
  109OSM    C8F11288   6.330   3.892   9.705 -0.2521  0.4423 -0.4483
  109OSM    H8F11289   6.225   3.857   9.715 -0.1667  0.3077  0.0032
  109OSM    H8G11290   6.388   3.797   9.705  0.8480  1.0765  1.0762
  109OSM    C9F11291   6.335   3.968   9.578 -0.2184  0.2548 -0.0932
  109OSM    H9F11292   6.380   4.067   9.595  0.3180 -0.1306  0.8111
  109OSM   C10F11293   6.286   3.929   9.458 -0.8040  0.5188  0.0566
  109OSM   H10F11294   6.300   3.991   9.368 -0.3917 -0.0620 -0.2857
  109OSM   C11F11295   6.217   3.801   9.427 -0.0921  0.6110 -0.4819
  109OSM   H11F11296   6.124   3.818   9.369  0.8161 -1.6688 -2.7721
  109OSM   H11G11297   6.192   3.753   9.524 -1.4357  1.2478 -0.4846
  109OSM   C12F11298   6.306   3.705   9.335 -0.4318 -0.0576 -0.4800
  109OSM   H12F11299   6.382   3.671   9.408 -1.2285 -0.0639  0.3613
  109OSM   H12G11300   6.361   3.767   9.261 -0.5207  2.0119  1.1185
  109OSM   C13F11301   6.224   3.593   9.279  0.0480 -0.3533  0.3896
  109OSM   H13F11302   6.152   3.640   9.209  0.2045  1.1017  1.1646
  109OSM   H13G11303   6.160   3.553   9.360 -1.1580  1.7170  0.5124
  109OSM   C14F11304   6.313   3.476   9.217  0.4684 -0.4834 -0.4737
  109OSM   H14F11305   6.357   3.491   9.116 -0.1226 -1.4852 -0.8926
  109OSM   H14G11306   6.249   3.385   9.221 -2.0753  1.2646  1.6249
  109OSM   C15F11307   6.435   3.429   9.296 -0.2948  0.7007 -0.0613
  109OSM   H15F11308   6.509   3.512   9.295 -1.8924  2.1845 -1.2082
  109OSM   H15G11309   6.485   3.347   9.239  0.0270  1.9156 -1.6132
  109OSM   C16F11310   6.409   3.392   9.442 -0.0384 -0.3748  0.0541
  109OSM   H16F11311   6.346   3.301   9.451  0.5776 -0.8663 -0.4834
  109OSM   H16G11312   6.338   3.463   9.489 -0.1943 -1.9034  2.3169
  109OSM   C17F11313   6.535   3.380   9.534  0.2081 -0.4307 -0.2888
  109OSM   H17F11314   6.505   3.383   9.641  0.3181 -1.3117 -0.2243
  109OSM   H17G11315   6.601   3.468   9.516  1.9911 -1.7699 -0.6100
  109OSM   C18F11316   6.610   3.244   9.506 -0.2406 -0.1933 -0.3013
  109OSM   H18F11317   6.704   3.238   9.565 -0.3933 -1.0043 -0.1215
  109OSM   H18G11318   6.638   3.236   9.399 -1.0330  0.7637 -0.5884
  109OSM   H18H11319   6.543   3.158   9.529 -0.6812  0.2296  0.0051
  110OSM      N11320   6.465   0.785  11.160 -0.6416  0.4027  0.7581
  110OSM    C1511321   6.518   0.916  11.204 -0.0100  0.1869 -0.2544
  110OSM   H15A11322   6.624   0.909  11.224  0.0782 -3.0019 -1.2065
  110OSM   H15B11323   6.466   0.949  11.293 -2.1814 -1.6234 -0.7525
  110OSM   H15C11324   6.500   0.993  11.131 -0.8556 -2.0536 -2.5366
  110OSM    C1411325   6.493   0.685  11.257 -0.2471  0.9285  0.1040
  110OSM   H14A11326   6.597   0.667  11.278 -0.5357 -2.9000 -0.9976
  110OSM   H14B11327   6.457   0.592  11.215 -0.4462  1.1311 -0.1831
  110OSM   H14C11328   6.448   0.707  11.353  1.7892  2.1670  0.8336
  110OSM    C1311329   6.321   0.821  11.149 -0.4790  0.2840  0.3715
  110OSM   H13A11330   6.287   0.870  11.240 -0.1869  0.9431  0.1323
  110OSM   H13B11331   6.274   0.726  11.128  2.1051 -0.6542 -1.8135
  110OSM   H13C11332   6.306   0.889  11.067  0.3530  0.3365  0.2588
  110OSM    C1211333   6.526   0.740  11.034 -0.2379  0.3061 -0.2722
  110OSM   H12A11334   6.495   0.802  10.951 -1.4293 -0.4573 -0.4175
  110OSM   H12B11335   6.482   0.644  11.014  1.0129 -0.1080 -1.0822
  110OSM    C1111336   6.682   0.720  11.016 -0.1031  0.1365 -0.5692
  110OSM   H11A11337   6.691   0.675  10.915 -1.0159 -0.4430 -0.4018
  110OSM   H11B11338   6.714   0.651  11.097  0.2911  0.2938 -0.5864
  110OSM      P11339   6.899   0.855  10.985  0.0987 -0.2549  0.3582
  110OSM    O1311340   6.947   0.995  11.003  0.0088  0.2849 -0.6256
  110OSM    O1411341   6.985   0.746  11.039  0.7103 -0.2419 -0.5427
  110OSM    O1111342   6.899   0.814  10.832 -0.3008 -0.0483  0.2643
  110OSM    O1211343   6.747   0.850  11.033 -0.2419  0.2274 -0.1259
  110OSM    C1S11344   6.834   0.888  10.728 -0.2734  0.1596 -0.4581
  110OSM    H1S11345   6.858   0.995  10.743 -0.5456  0.3405 -1.2749
  110OSM    H1T11346   6.724   0.882  10.746 -0.2882  1.2416 -0.1419
  110OSM     NF11347   6.797   0.909  10.484 -0.4662 -0.4564  0.1560
  110OSM    HNF11348   6.729   0.856  10.433 -0.2778  0.5425 -1.2059
  110OSM    C2S11349   6.871   0.840  10.587  0.0555 -0.5220  0.3537
  110OSM    H2S11350   6.976   0.857  10.555 -0.3131 -2.7098 -2.3690
  110OSM    C3S11351   6.856   0.685  10.583  0.7502  0.1553 -0.4146
  110OSM    H3S11352   6.760   0.658  10.632  1.4747 -1.6328  0.1154
  110OSM     O311353   6.946   0.617  10.665 -0.1094 -0.3317 -0.0316
  110OSM    HO311354   6.965   0.686  10.729  0.7337 -1.4496  0.9700
  110OSM    C4S11355   6.890   0.629  10.452 -0.6783 -0.1136  0.2815
  110OSM    H4S11356   6.996   0.648  10.428 -0.8955 -0.0769 -0.6719
  110OSM    C5S11357   6.805   0.565  10.372 -0.2662  0.0520  0.2377
  110OSM    H5S11358   6.699   0.555  10.400 -0.1984  0.5433  0.6848
  110OSM    C6S11359   6.851   0.512  10.232  0.4050 -0.4802  0.0671
  110OSM    H6S11360   6.836   0.403  10.221 -2.7989  0.0490 -2.3737
  110OSM    H6T11361   6.953   0.523  10.190 -0.2142 -0.1355 -1.4328
  110OSM    C7S11362   6.759   0.569  10.128  0.2871 -0.6532 -0.1766
  110OSM    H7S11363   6.771   0.679  10.119 -0.4439 -0.6506 -1.3400
  110OSM    H7T11364   6.655   0.561  10.166 -0.4390  0.8828 -1.7042
  110OSM    C8S11365   6.775   0.499   9.992 -0.3748 -0.9715 -0.9439
  110OSM    H8S11366   6.739   0.395  10.005  2.3691 -1.9542 -0.6247
  110OSM    H8T11367   6.882   0.501   9.962 -0.4902  1.3771 -1.3594
  110OSM    C9S11368   6.693   0.562   9.880  0.0704  0.2485 -0.1070
  110OSM    H9S11369   6.697   0.673   9.878 -0.3654  0.2548 -1.5320
  110OSM    H9T11370   6.586   0.533   9.889 -0.3978  1.4419 -1.3854
  110OSM   C10S11371   6.745   0.515   9.741  0.3373  0.1441  0.0823
  110OSM   H10S11372   6.754   0.404   9.732 -0.6739  0.0563  0.0480
  110OSM   H10T11373   6.850   0.550   9.737  0.9471 -1.6309 -0.7931
  110OSM   C11S11374   6.660   0.565   9.628  0.1322 -0.0029  0.1926
  110OSM   H11S11375   6.645   0.674   9.640  1.7520  0.6817 -2.9142
  110OSM   H11T11376   6.563   0.513   9.642  1.1158 -1.6207  1.3622
  110OSM   C12S11377   6.719   0.539   9.492 -0.3593  0.0799 -0.2689
  110OSM   H12S11378   6.770   0.440   9.490  1.5718  0.9890  0.9000
  110OSM   H12T11379   6.793   0.621   9.484 -2.7096  2.2540 -0.9756
  110OSM   C13S11380   6.621   0.562   9.372  0.2061 -0.7777 -0.0451
  110OSM   H13S11381   6.599   0.671   9.374 -1.6419 -1.0845 -0.8967
  110OSM   H13T11382   6.520   0.515   9.380 -0.6539  0.1857 -3.3596
  110OSM   C14S11383   6.673   0.514   9.239 -0.0006 -0.1141  0.0067
  110OSM   H14S11384   6.649   0.406   9.226 -0.3985 -0.1487  0.9493
  110OSM   H14T11385   6.784   0.515   9.236  0.0462 -2.1853 -2.4358
  110OSM   C15S11386   6.587   0.578   9.122 -0.8298  0.0883 -0.0135
  110OSM   H15S11387   6.596   0.688   9.128 -0.5819  0.2003 -1.7539
  110OSM   H15T11388   6.480   0.555   9.139 -0.9311  0.2181 -0.4569
  110OSM   C16S11389   6.641   0.525   8.987  0.3020 -0.0217  0.3046
  110OSM   H16S11390   6.646   0.414   8.985  1.4749  0.0163 -2.4150
  110OSM   H16T11391   6.743   0.569   8.981  0.2925 -0.1153 -0.7133
  110OSM   C17S11392   6.561   0.564   8.859  0.0270 -0.0879 -0.2731
  110OSM   H17S11393   6.612   0.521   8.770 -2.0940 -0.1747 -1.5214
  110OSM   H17T11394   6.566   0.674   8.848  0.3475 -0.1109 -0.3608
  110OSM   C18S11395   6.419   0.517   8.846 -0.3097  0.3983  0.0256
  110OSM   H18S11396   6.372   0.529   8.746  1.8424  0.3332 -1.0527
  110OSM   H18T11397   6.354   0.574   8.915  1.0060  3.0304 -0.7670
  110OSM   H18U11398   6.411   0.411   8.877 -1.5067  0.4832  0.0238
  110OSM    C1F11399   6.803   1.045  10.465 -0.3840  0.0529  0.0920
  110OSM     OF11400   6.878   1.118  10.534  0.0425  0.5583  0.5545
  110OSM    C2F11401   6.706   1.102  10.365  0.2319  0.2471  0.5154
  110OSM    H2F11402   6.696   1.212  10.362 -0.0539  0.2332  0.9593
  110OSM    H2G11403   6.604   1.060  10.378 -0.0813 -0.0947 -2.3142
  110OSM    C3F11404   6.746   1.062  10.216 -0.2133  0.2496  0.0321
  110OSM    H3F11405   6.738   0.951  10.208 -1.2525  0.2127  1.2855
  110OSM    H3G11406   6.843   1.109  10.190  0.3634 -1.1942 -0.4929
  110OSM    C4F11407   6.653   1.119  10.117  0.2298  0.3754  0.1961
  110OSM    H4F11408   6.676   1.228  10.121  2.5169  0.0751 -2.0469
  110OSM    H4G11409   6.548   1.093  10.142  0.0994 -0.8311 -1.4610
  110OSM    C5F11410   6.703   1.081   9.976 -1.0298  0.1304  0.2825
  110OSM    H5F11411   6.676   0.973   9.968  0.0851 -0.2002  0.8796
  110OSM    H5G11412   6.812   1.096   9.964 -1.1706  0.2028 -1.0635
  110OSM    C6F11413   6.649   1.169   9.856 -0.2658 -0.0823 -1.0784
  110OSM    H6F11414   6.730   1.244   9.843  1.9700 -2.2938 -0.7693
  110OSM    H6G11415   6.565   1.217   9.909  0.6773 -1.8518  2.2960
  110OSM    C7F11416   6.605   1.110   9.720 -0.1138 -0.0095  0.2677
  110OSM    H7F11417   6.547   1.021   9.754  0.3895 -1.0943 -1.5331
  110OSM    H7G11418   6.693   1.079   9.659  0.9606 -1.6915  2.5234
  110OSM    C8F11419   6.518   1.212   9.647 -0.3735 -0.2916  0.2872
  110OSM    H8F11420   6.580   1.305   9.646  0.1240 -0.5841 -2.2515
  110OSM    H8G11421   6.439   1.234   9.722  0.3796  1.4075  0.6450
  110OSM    C9F11422   6.481   1.166   9.511 -0.7269  0.1009  0.3135
  110OSM    H9F11423   6.468   1.057   9.496  0.1913 -0.0153  0.2901
  110OSM   C10F11424   6.475   1.239   9.400  0.3598  1.1647 -0.4734
  110OSM   H10F11425   6.455   1.186   9.306 -0.2713 -0.2962  0.4518
  110OSM   C11F11426   6.497   1.386   9.374 -0.4255  0.4494  0.5702
  110OSM   H11F11427   6.584   1.434   9.421 -0.9705  1.1136  0.9133
  110OSM   H11G11428   6.406   1.435   9.415  0.8712  0.7992  3.2371
  110OSM   C12F11429   6.494   1.421   9.225 -0.2650  0.4806  0.0063
  110OSM   H12F11430   6.472   1.529   9.211  1.3244  0.8103 -0.1028
  110OSM   H12G11431   6.414   1.373   9.164  0.8012  0.0073 -1.0434
  110OSM   C13F11432   6.631   1.403   9.150  0.3079 -0.0431 -0.2661
  110OSM   H13F11433   6.657   1.295   9.145  1.8191  0.2891 -0.0807
  110OSM   H13G11434   6.704   1.458   9.212  0.0143 -2.0749  2.0295
  110OSM   C14F11435   6.619   1.454   9.011 -0.7262 -0.8468 -0.2780
  110OSM   H14F11436   6.538   1.399   8.957 -0.9568 -0.2994 -0.4908
  110OSM   H14G11437   6.714   1.435   8.957  0.5468  1.0846  1.1477
  110OSM   C15F11438   6.583   1.603   8.984  0.1450 -0.7801  0.1270
  110OSM   H15F11439   6.663   1.668   9.025  0.7825 -1.2101 -0.4089
  110OSM   H15G11440   6.491   1.631   9.040  1.5599 -0.9947  2.7652
  110OSM   C16F11441   6.546   1.629   8.834  0.1527 -0.4302  0.5308
  110OSM   H16F11442   6.470   1.560   8.793  1.5461 -1.2555 -0.7824
  110OSM   H16G11443   6.640   1.617   8.776  1.5786  1.0694  2.3729
  110OSM   C17F11444   6.489   1.764   8.793 -1.0504 -0.4058 -0.2366
  110OSM   H17F11445   6.559   1.840   8.836  0.4225 -1.1337 -1.2428
  110OSM   H17G11446   6.385   1.767   8.831 -2.2749  2.2602 -3.3455
  110OSM   C18F11447   6.486   1.778   8.643  0.2130  0.8906 -0.5475
  110OSM   H18F11448   6.443   1.874   8.606  0.1194  0.1566 -2.4788
  110OSM   H18G11449   6.425   1.698   8.597  0.0036  1.2501 -0.9031
  110OSM   H18H11450   6.584   1.787   8.592  0.3382  1.4940 -0.2167
  111OSM      N11451   3.259   3.415  11.238 -0.2420  0.3869 -0.5097
  111OSM    C1511452   3.337   3.521  11.288 -0.2124 -0.6932 -0.2171
  111OSM   H15A11453   3.438   3.532  11.250 -0.3119  1.5929  0.0083
  111OSM   H15B11454   3.350   3.519  11.395 -0.5825  1.5820 -0.0806
  111OSM   H15C11455   3.286   3.615  11.272  0.1575 -0.3086  0.7759
  111OSM    C1411456   3.107   3.437  11.257 -0.2375 -0.8189 -0.0731
  111OSM   H14A11457   3.046   3.356  11.221 -0.6504  0.0763 -1.4790
  111OSM   H14B11458   3.084   3.521  11.193 -0.7314 -1.7553 -1.1468
  111OSM   H14C11459   3.076   3.461  11.358  2.3096 -0.1183  0.6200
  111OSM    C1311460   3.284   3.420  11.090 -0.1098  0.2880 -0.7137
  111OSM   H13A11461   3.229   3.502  11.045 -1.1031 -1.4886 -2.9499
  111OSM   H13B11462   3.231   3.333  11.053  0.1106  0.8363 -2.4071
  111OSM   H13C11463   3.387   3.409  11.060 -0.3054  0.6869 -1.5503
  111OSM    C1211464   3.295   3.274  11.299  0.0530 -0.5841 -0.0945
  111OSM   H12A11465   3.322   3.287  11.402  1.6035  1.6427 -0.6988
  111OSM   H12B11466   3.385   3.235  11.254  1.3595  1.2005  0.8603
  111OSM    C1111467   3.196   3.157  11.271 -0.1128  0.4020 -0.2713
  111OSM   H11A11468   3.116   3.152  11.348 -0.1376 -3.9144 -0.3405
  111OSM   H11B11469   3.252   3.063  11.287 -3.0749 -1.6848 -1.2674
  111OSM      P11470   3.210   3.063  11.028  0.2414  0.5210  0.1849
  111OSM    O1311471   3.358   3.101  11.029  0.3075  0.5133 -0.0699
  111OSM    O1411472   3.175   2.923  11.039 -0.8417 -0.5266  0.9023
  111OSM    O1111473   3.152   3.133  10.896 -0.1273 -0.3442  0.5914
  111OSM    O1211474   3.142   3.150  11.139  0.3242 -0.1575  0.5918
  111OSM    C1S11475   3.011   3.153  10.871  0.0798  1.0787 -0.1106
  111OSM    H1S11476   2.973   3.231  10.942 -3.3918 -1.6410  1.3257
  111OSM    H1T11477   2.949   3.066  10.899  1.3352  0.7800  1.9205
  111OSM     NF11478   2.871   3.265  10.691  0.2632 -0.5673 -1.0038
  111OSM    HNF11479   2.810   3.222  10.624  0.0636  0.4597 -1.4942
  111OSM    C2S11480   2.991   3.185  10.719  0.0044  0.2984 -0.7334
  111OSM    H2S11481   3.079   3.249  10.696 -0.1829  0.6303 -0.5406
  111OSM    C3S11482   3.004   3.051  10.631  0.1910 -0.1647 -0.0961
  111OSM    H3S11483   2.908   2.995  10.642 -1.3449  2.1737 -0.7738
  111OSM     O311484   3.117   2.968  10.678 -0.0315  0.3175  0.5786
  111OSM    HO311485   3.143   3.017  10.756 -1.5555 -0.0345  1.3505
  111OSM    C4S11486   3.015   3.086  10.490 -0.0147 -0.3282  0.2514
  111OSM    H4S11487   2.919   3.118  10.449  0.8888  1.1943 -0.7855
  111OSM    C5S11488   3.126   3.094  10.414 -0.4819 -0.1306  0.8970
  111OSM    H5S11489   3.222   3.080  10.465 -0.5128 -1.6431  0.5691
  111OSM    C6S11490   3.140   3.132  10.265  0.1170  0.3640  0.5152
  111OSM    H6S11491   3.141   3.033  10.214  0.0848  1.1072 -0.9471
  111OSM    H6T11492   3.232   3.191  10.249 -0.7186  1.6699  0.3682
  111OSM    C7S11493   3.020   3.196  10.184  0.5729 -0.2446 -0.2145
  111OSM    H7S11494   3.018   3.307  10.196 -0.8042 -0.0463 -1.8640
  111OSM    H7T11495   2.922   3.161  10.223 -0.2672  2.2679  0.1235
  111OSM    C8S11496   3.029   3.165  10.031  0.2457 -0.3898 -0.1057
  111OSM    H8S11497   3.032   3.055  10.015 -2.1690 -0.1715 -3.0734
  111OSM    H8T11498   3.125   3.200   9.988  0.0629 -0.0460 -0.2353
  111OSM    C9S11499   2.914   3.229   9.952 -0.5227 -0.8019 -0.6252
  111OSM    H9S11500   2.907   3.339   9.964 -4.1540 -1.0472  0.5543
  111OSM    H9T11501   2.815   3.190   9.983 -0.2215 -1.2701 -0.2198
  111OSM   C10S11502   2.932   3.215   9.799  0.0167 -0.4086  0.5527
  111OSM   H10S11503   3.008   3.285   9.760 -0.9984  0.4055 -0.0226
  111OSM   H10T11504   2.832   3.245   9.760  0.1553 -1.9397 -1.0776
  111OSM   C11S11505   2.953   3.074   9.759  0.7260 -0.0740 -0.6683
  111OSM   H11S11506   2.877   3.010   9.809 -0.0196  0.0910 -1.5537
  111OSM   H11T11507   3.053   3.032   9.785 -0.5601 -2.3152  1.1349
  111OSM   C12S11508   2.933   3.036   9.614 -0.3432  0.2551 -0.5554
  111OSM   H12S11509   2.834   3.073   9.579 -0.5854  0.3681  0.2250
  111OSM   H12T11510   2.928   2.925   9.612 -0.7478  0.2803 -1.4272
  111OSM   C13S11511   3.035   3.092   9.521  0.6730 -0.1921  0.2126
  111OSM   H13S11512   3.138   3.077   9.557 -0.2539 -0.8126  2.7905
  111OSM   H13T11513   3.014   3.201   9.521 -1.3606 -0.5147  1.3120
  111OSM   C14S11514   3.014   3.060   9.369  0.3815 -0.4696  0.7094
  111OSM   H14S11515   3.050   2.962   9.332  1.2286  0.2121 -0.3407
  111OSM   H14T11516   3.078   3.127   9.307  0.9716 -0.1211  1.6833
  111OSM   C15S11517   2.869   3.082   9.317  0.6338  0.0754  0.1088
  111OSM   H15S11518   2.819   3.170   9.363 -3.0947  0.1866 -3.6150
  111OSM   H15T11519   2.816   2.991   9.352 -2.8389  2.3867  1.3637
  111OSM   C16S11520   2.873   3.099   9.170  0.3777  0.3313 -0.5373
  111OSM   H16S11521   2.920   3.190   9.127 -0.4241 -0.4520 -3.2565
  111OSM   H16T11522   2.770   3.132   9.143  0.5354  0.8786 -0.4847
  111OSM   C17S11523   2.902   2.966   9.091  0.4419 -0.0816 -0.3402
  111OSM   H17S11524   2.845   2.877   9.125  0.1374  0.9315  2.0324
  111OSM   H17T11525   3.010   2.947   9.109 -0.2627 -2.6143  1.9546
  111OSM   C18S11526   2.869   2.983   8.943 -0.2631 -0.1922  0.5081
  111OSM   H18S11527   2.967   3.012   8.898  0.4006 -1.4444  1.1088
  111OSM   H18T11528   2.795   3.062   8.916 -0.2517 -0.1695  0.5413
  111OSM   H18U11529   2.842   2.893   8.885  2.5947 -0.1586 -1.0945
  111OSM    C1F11530   2.859   3.389  10.723 -0.3313  0.2531  0.1184
  111OSM     OF11531   2.944   3.446  10.789  0.2174 -0.2565  0.3763
  111OSM    C2F11532   2.734   3.455  10.680 -0.0970  0.5461  0.6306
  111OSM    H2F11533   2.650   3.449  10.753  0.0298  1.2419  0.8380
  111OSM    H2G11534   2.689   3.407  10.591 -0.7357  2.3330 -0.0387
  111OSM    C3F11535   2.760   3.601  10.635 -0.0791  0.5698 -0.2930
  111OSM    H3F11536   2.819   3.659  10.709 -0.0445 -0.4256  0.4851
  111OSM    H3G11537   2.658   3.643  10.622 -1.2871 -1.3524  2.1800
  111OSM    C4F11538   2.836   3.630  10.500 -0.2416 -0.1735 -0.1707
  111OSM    H4F11539   2.937   3.585  10.513  0.4487  1.3855  0.0612
  111OSM    H4G11540   2.857   3.738  10.515  0.1709 -0.5307  2.2072
  111OSM    C5F11541   2.763   3.592  10.374  0.5560  0.4817 -0.6879
  111OSM    H5F11542   2.670   3.653  10.372  0.5959  0.7798  2.3649
  111OSM    H5G11543   2.725   3.488  10.381  1.3746  0.0455 -2.2568
  111OSM    C6F11544   2.844   3.624  10.243  0.5615 -0.1065 -0.8419
  111OSM    H6F11545   2.942   3.572  10.240 -1.0216 -3.7320  1.9092
  111OSM    H6G11546   2.855   3.735  10.247  0.1560 -0.0925  1.4127
  111OSM    C7F11547   2.762   3.597  10.118  0.1538 -0.1015  0.0967
  111OSM    H7F11548   2.655   3.618  10.139  0.6897  1.5047  1.4780
  111OSM    H7G11549   2.769   3.489  10.096  1.5846 -0.2103  0.9578
  111OSM    C8F11550   2.801   3.696   9.997  0.3914 -0.4060 -0.4054
  111OSM    H8F11551   2.908   3.680   9.974 -0.2516 -0.6112 -3.6122
  111OSM    H8G11552   2.781   3.802  10.025  0.4924 -0.6365  0.5740
  111OSM    C9F11553   2.720   3.671   9.871 -0.3629  0.3769  0.1281
  111OSM    H9F11554   2.615   3.701   9.878 -0.1469  2.7946 -3.6663
  111OSM   C10F11555   2.772   3.640   9.750 -0.3101  0.3971  0.7166
  111OSM   H10F11556   2.704   3.643   9.663 -0.5196 -0.2114  0.8479
  111OSM   C11F11557   2.917   3.613   9.717  0.5917 -0.5772  0.0201
  111OSM   H11F11558   2.958   3.518   9.757 -2.0223 -1.6759  0.2330
  111OSM   H11G11559   2.989   3.690   9.754  1.3094 -1.4196  0.4285
  111OSM   C12F11560   2.945   3.624   9.568 -0.0531 -0.0300 -0.0179
  111OSM   H12F11561   3.054   3.630   9.546 -0.2658  1.6155 -0.8223
  111OSM   H12G11562   2.903   3.721   9.533  0.4585  0.2319  0.0834
  111OSM   C13F11563   2.902   3.498   9.499  0.1251  0.1014 -0.3431
  111OSM   H13F11564   2.795   3.468   9.503  0.3549 -0.8601 -1.0230
  111OSM   H13G11565   2.958   3.416   9.549  1.4784  0.3772 -1.3583
  111OSM   C14F11566   2.947   3.501   9.347  0.2504 -0.1169 -0.7411
  111OSM   H14F11567   2.938   3.397   9.308 -0.4634 -0.0796 -0.7006
  111OSM   H14G11568   3.053   3.531   9.339  0.3470 -0.7524 -2.1275
  111OSM   C15F11569   2.861   3.591   9.253 -0.2358  0.5027  0.3627
  111OSM   H15F11570   2.898   3.694   9.273  3.5076 -0.9033  1.7234
  111OSM   H15G11571   2.751   3.591   9.263 -0.3035 -2.1787  0.3982
  111OSM   C16F11572   2.874   3.543   9.106 -0.7882  0.3506  0.1433
  111OSM   H16F11573   2.808   3.601   9.039  0.7378 -1.0518 -2.7253
  111OSM   H16G11574   2.847   3.436   9.102  1.0757 -0.1386 -0.4836
  111OSM   C17F11575   3.016   3.571   9.058  0.1986 -0.3982 -0.0223
  111OSM   H17F11576   3.082   3.493   9.101 -0.5717 -1.0850 -0.0430
  111OSM   H17G11577   3.046   3.672   9.091 -1.2151  0.4780 -1.2716
  111OSM   C18F11578   3.013   3.566   8.903 -0.3052 -0.0113  0.6628
  111OSM   H18F11579   2.978   3.464   8.877 -3.5345  1.3647 -0.9695
  111OSM   H18G11580   3.111   3.578   8.852 -0.6624 -1.8905 -0.5654
  111OSM   H18H11581   2.933   3.635   8.871  0.0456 -0.3053 -0.9081
  112OSM      N11582   4.636   2.797  11.126 -0.0551 -0.8333  0.2495
  112OSM    C1511583   4.530   2.709  11.181 -0.6822 -0.0403  0.3679
  112OSM   H15A11584   4.443   2.768  11.206 -0.5754  0.9581 -1.4082
  112OSM   H15B11585   4.571   2.637  11.250  3.3308  1.8518  0.2261
  112OSM   H15C11586   4.488   2.638  11.110 -0.3547 -0.4274  0.5567
  112OSM    C1411587   4.662   2.892  11.238 -0.9963  0.4984 -0.3991
  112OSM   H14A11588   4.717   2.979  11.206 -1.2815  1.1631  0.8263
  112OSM   H14B11589   4.689   2.842  11.330 -3.3737  2.1102  1.2967
  112OSM   H14C11590   4.571   2.947  11.256 -1.4848  0.5906 -2.8107
  112OSM    C1311591   4.755   2.720  11.093 -0.4712  0.8048  0.7279
  112OSM   H13A11592   4.771   2.647  11.170  0.9131  1.3068  0.9488
  112OSM   H13B11593   4.842   2.783  11.098  0.3998 -0.4666  2.2767
  112OSM   H13C11594   4.749   2.664  11.000 -0.5970 -1.4242  2.0098
  112OSM    C1211595   4.584   2.870  11.001  0.6956 -0.1658  0.3038
  112OSM   H12A11596   4.491   2.921  11.022  0.7845 -0.0151  0.3312
  112OSM   H12B11597   4.560   2.791  10.931 -0.0811  0.7264 -0.4640
  112OSM    C1111598   4.667   2.966  10.923 -0.2747 -0.9873  0.6187
  112OSM   H11A11599   4.613   2.990  10.830  0.4896 -1.0095  0.1565
  112OSM   H11B11600   4.763   2.923  10.884 -1.3615 -3.1978  0.2061
  112OSM      P11601   4.596   3.202  11.020 -0.2225 -0.1903  0.5465
  112OSM    O1311602   4.525   3.174  11.147  0.0243 -0.0246 -0.0294
  112OSM    O1411603   4.661   3.331  11.008 -0.2498  0.1324  0.2689
  112OSM    O1111604   4.487   3.185  10.909  0.1817 -0.1040  0.3843
  112OSM    O1211605   4.698   3.085  10.997 -0.2167 -0.0932  0.0353
  112OSM    C1S11606   4.517   3.236  10.777  0.0750  0.2485 -0.4935
  112OSM    H1S11607   4.593   3.167  10.736 -0.1190 -2.6710  3.4181
  112OSM    H1T11608   4.555   3.340  10.779 -0.3335  0.3922  1.2565
  112OSM     NF11609   4.435   3.228  10.546 -0.1336 -0.2289 -0.0985
  112OSM    HNF11610   4.436   3.315  10.498 -2.9201  0.3611  0.6902
  112OSM    C2S11611   4.394   3.225  10.681 -0.2987  0.0500  0.1551
  112OSM    H2S11612   4.352   3.125  10.705  1.4610 -0.4760  1.2152
  112OSM    C3S11613   4.290   3.329  10.716  0.5394 -0.2905  0.3396
  112OSM    H3S11614   4.325   3.433  10.702 -1.1628  0.7504  3.0401
  112OSM     O311615   4.257   3.326  10.857  0.1892 -0.1288 -0.2871
  112OSM    HO311616   4.328   3.276  10.898 -1.4270 -1.1149  1.4512
  112OSM    C4S11617   4.166   3.313  10.631  0.1505  0.2090  0.7006
  112OSM    H4S11618   4.122   3.213  10.620 -1.6578  1.1887 -2.4543
  112OSM    C5S11619   4.086   3.407  10.566  0.1852 -0.4872 -0.1358
  112OSM    H5S11620   4.094   3.515  10.584  1.5285 -0.5592 -0.1943
  112OSM    C6S11621   3.972   3.367  10.474 -0.3212  0.0650 -0.5550
  112OSM    H6S11622   3.883   3.428  10.498 -0.1133  0.3248 -0.4374
  112OSM    H6T11623   3.947   3.258  10.480 -2.8009  0.4378 -2.4786
  112OSM    C7S11624   4.010   3.389  10.328 -0.0048 -0.3175  0.5680
  112OSM    H7S11625   4.056   3.483  10.292 -3.2246  0.6301 -1.4665
  112OSM    H7T11626   3.912   3.385  10.276 -0.4224 -2.9502  1.3710
  112OSM    C8S11627   4.100   3.275  10.276 -0.3206  0.0767 -0.6527
  112OSM    H8S11628   4.082   3.181  10.332  1.3429 -0.7165 -1.4131
  112OSM    H8T11629   4.202   3.308  10.303 -0.9110  0.5274  1.1935
  112OSM    C9S11630   4.093   3.249  10.122  1.0438  0.0799  0.1153
  112OSM    H9S11631   4.003   3.185  10.109  0.0736  0.9684  2.0950
  112OSM    H9T11632   4.190   3.198  10.100  1.3578  0.0845  1.4114
  112OSM   C10S11633   4.065   3.377  10.046  0.5689 -0.4249  0.1038
  112OSM   H10S11634   4.144   3.452  10.066 -0.2614 -0.2228  3.1562
  112OSM   H10T11635   3.965   3.419  10.068  0.1303 -0.9541 -0.8092
  112OSM   C11S11636   4.063   3.356   9.892 -0.1578  0.0851 -0.6843
  112OSM   H11S11637   3.972   3.294   9.879 -1.1960  1.3820  0.1335
  112OSM   H11T11638   4.150   3.288   9.883  0.6039  1.0664 -0.9550
  112OSM   C12S11639   4.080   3.481   9.821  0.0341 -0.0903  0.0258
  112OSM   H12S11640   4.167   3.539   9.858  1.6957 -1.6665 -1.2362
  112OSM   H12T11641   3.993   3.549   9.822  0.6786  0.7742 -0.9804
  112OSM   C13S11642   4.101   3.459   9.672  0.3823  0.0219  0.0232
  112OSM   H13S11643   4.181   3.382   9.660  0.9263  0.6256 -0.2407
  112OSM   H13T11644   4.134   3.550   9.618  0.1819 -0.8264 -1.6123
  112OSM   C14S11645   3.981   3.394   9.603  0.1349 -0.0790 -0.4117
  112OSM   H14S11646   3.964   3.299   9.659  1.9051 -0.8600 -1.1213
  112OSM   H14T11647   4.006   3.369   9.498  3.2138  3.1631 -0.6390
  112OSM   C15S11648   3.852   3.476   9.603 -0.2551  0.6273  0.3495
  112OSM   H15S11649   3.838   3.507   9.709 -0.2422  0.2731  0.4561
  112OSM   H15T11650   3.766   3.414   9.572  0.2740 -0.1868  0.4715
  112OSM   C16S11651   3.851   3.603   9.516  0.1864  0.6877  0.1493
  112OSM   H16S11652   3.869   3.586   9.408  0.2112  2.4945 -0.1707
  112OSM   H16T11653   3.935   3.669   9.547  2.6699 -1.6853 -1.1420
  112OSM   C17S11654   3.718   3.680   9.527  0.2173 -0.0508  0.0246
  112OSM   H17S11655   3.651   3.624   9.457  0.7329 -2.1923  1.1483
  112OSM   H17T11656   3.724   3.784   9.489  0.0542  1.0167  2.6663
  112OSM   C18S11657   3.653   3.691   9.671 -0.0183 -0.2607 -0.2446
  112OSM   H18S11658   3.731   3.719   9.746  1.7519 -0.2902 -1.9944
  112OSM   H18T11659   3.613   3.592   9.701  0.0312  0.4880  2.6553
  112OSM   H18U11660   3.568   3.763   9.676  0.4312  0.3834 -1.4570
  112OSM    C1F11661   4.477   3.119  10.478  0.3265  0.3045 -0.2485
  112OSM     OF11662   4.512   3.014  10.536  0.4518 -0.0310 -0.6954
  112OSM    C2F11663   4.490   3.138  10.324 -0.6396  0.6484 -0.6259
  112OSM    H2F11664   4.577   3.206  10.317 -1.3800  1.5391 -1.5752
  112OSM    H2G11665   4.397   3.195  10.302 -0.6316  0.9407  0.0483
  112OSM    C3F11666   4.509   3.012  10.241 -0.1207 -0.2384 -0.2944
  112OSM    H3F11667   4.419   2.948  10.248 -0.7887  0.7643  0.7934
  112OSM    H3G11668   4.597   2.960  10.284 -0.0295 -0.1951 -0.4294
  112OSM    C4F11669   4.547   3.037  10.095  0.5716  0.0754  0.5175
  112OSM    H4F11670   4.560   2.938  10.047  1.1887 -0.3005  1.4386
  112OSM    H4G11671   4.640   3.097  10.089  0.1312  0.6064 -1.6848
  112OSM    C5F11672   4.430   3.110  10.023  0.0452  0.2529  0.4138
  112OSM    H5F11673   4.425   3.216  10.055 -0.3466  0.0302  1.0937
  112OSM    H5G11674   4.339   3.054  10.053  1.3904 -1.8130  0.8904
  112OSM    C6F11675   4.453   3.112   9.869  0.1395 -0.2216 -0.0002
  112OSM    H6F11676   4.492   3.010   9.845 -1.9930 -1.3512  1.0412
  112OSM    H6G11677   4.517   3.198   9.841 -1.0335  0.4072 -0.7988
  112OSM    C7F11678   4.320   3.115   9.779 -1.0663 -0.6517  0.2186
  112OSM    H7F11679   4.299   3.224   9.771 -0.4666 -0.3267  2.5044
  112OSM    H7G11680   4.256   3.051   9.843  0.6237 -0.4651  2.1895
  112OSM    C8F11681   4.337   3.055   9.637 -0.2588 -0.0232  0.0290
  112OSM    H8F11682   4.350   2.945   9.649  2.1121  0.4308  2.4946
  112OSM    H8G11683   4.437   3.086   9.602 -0.9594  0.0309 -2.0518
  112OSM    C9F11684   4.232   3.113   9.548  0.5221  0.0442  0.0175
  112OSM    H9F11685   4.129   3.075   9.550 -0.2041  1.7543 -1.3816
  112OSM   C10F11686   4.236   3.206   9.456  0.3512 -0.3536  0.7113
  112OSM   H10F11687   4.143   3.226   9.401 -0.9227  0.0191  2.9156
  112OSM   C11F11688   4.363   3.273   9.414 -0.1345  0.1124 -0.0762
  112OSM   H11F11689   4.429   3.286   9.502  1.0900  0.7994 -1.0594
  112OSM   H11G11690   4.339   3.375   9.379 -0.1407  0.3954  0.7334
  112OSM   C12F11691   4.433   3.186   9.306 -0.6729 -0.8964 -0.0264
  112OSM   H12F11692   4.368   3.190   9.216  0.0068 -1.1165 -0.5391
  112OSM   H12G11693   4.439   3.083   9.347  2.1928 -0.7419  0.1629
  112OSM   C13F11694   4.575   3.241   9.256  0.3994  0.4096  0.0462
  112OSM   H13F11695   4.643   3.214   9.340  0.0083  0.4572  0.3784
  112OSM   H13G11696   4.572   3.352   9.250 -0.6808  0.3857  0.0347
  112OSM   C14F11697   4.631   3.183   9.121 -0.3080 -0.0006  0.3531
  112OSM   H14F11698   4.580   3.232   9.035 -0.0288  0.8032  0.6411
  112OSM   H14G11699   4.609   3.074   9.123  1.1365 -0.3032  1.4782
  112OSM   C15F11700   4.778   3.222   9.110  1.0481  0.1044 -0.2302
  112OSM   H15F11701   4.822   3.202   9.210 -0.9305 -0.2495  0.6110
  112OSM   H15G11702   4.794   3.328   9.079  0.0627 -0.3268 -2.3889
  112OSM   C16F11703   4.860   3.135   9.018 -0.1679 -0.3963  0.2762
  112OSM   H16F11704   4.814   3.122   8.918  1.0459 -1.4391 -0.1812
  112OSM   H16G11705   4.857   3.033   9.064 -1.7939 -0.2259  0.6301
  112OSM   C17F11706   5.010   3.170   9.000  0.3850 -0.4291  0.3747
  112OSM   H17F11707   5.023   3.272   8.958 -0.5293 -0.1495  0.7464
  112OSM   H17G11708   5.051   3.101   8.924 -0.4910 -0.8894  0.2996
  112OSM   C18F11709   5.079   3.150   9.134 -0.5392  0.3002 -0.4286
  112OSM   H18F11710   5.185   3.183   9.127 -0.2491 -0.4283  0.3117
  112OSM   H18G11711   5.081   3.044   9.167  0.8704  0.8989  1.6029
  112OSM   H18H11712   5.042   3.222   9.210  1.3873  0.5204  0.3698
  113OSM      N11713   0.809   0.503  11.157  0.8632  0.1055  0.5798
  113OSM    C1511714   0.914   0.538  11.065  0.2360  0.0523 -0.5147
  113OSM   H15A11715   0.870   0.564  10.971  0.8838  1.9170 -0.3331
  113OSM   H15B11716   0.983   0.458  11.041 -0.3011 -0.2296 -1.1427
  113OSM   H15C11717   0.977   0.623  11.086  1.0596 -1.0164  1.6561
  113OSM    C1411718   0.847   0.497  11.300 -0.4993  0.5808  0.5633
  113OSM   H14A11719   0.891   0.594  11.323 -0.9584  0.3593  2.5344
  113OSM   H14B11720   0.910   0.421  11.344 -0.8598 -0.7597 -1.1662
  113OSM   H14C11721   0.757   0.496  11.360 -0.5121  1.5000  0.5764
  113OSM    C1311722   0.711   0.622  11.148 -0.3347  0.1733 -0.2388
  113OSM   H13A11723   0.623   0.607  11.208 -0.7242 -0.7155 -1.0169
  113OSM   H13B11724   0.674   0.642  11.049  0.4350  0.0246 -0.5673
  113OSM   H13C11725   0.769   0.704  11.189 -1.1080  0.5085  0.1993
  113OSM    C1211726   0.740   0.376  11.117 -0.3046  0.1546 -1.0091
  113OSM   H12A11727   0.702   0.389  11.017 -1.3370 -1.5239 -0.8749
  113OSM   H12B11728   0.660   0.362  11.187  2.2011 -1.4169  1.7884
  113OSM    C1111729   0.823   0.242  11.122  0.0198 -0.4091 -0.3250
  113OSM   H11A11730   0.761   0.151  11.104 -2.2705  1.0946 -0.5138
  113OSM   H11B11731   0.859   0.234  11.226 -0.0191 -2.1249 -0.4101
  113OSM      P11732   0.970   0.166  10.916 -0.1600  0.5482 -0.0595
  113OSM    O1311733   0.993   0.256  10.802  0.2813  0.5822  0.1885
  113OSM    O1411734   1.084   0.080  10.952 -0.1669 -0.0317 -0.2687
  113OSM    O1111735   0.836   0.085  10.886 -0.2876 -0.8112 -0.2709
  113OSM    O1211736   0.938   0.251  11.043 -0.3641  0.6518  0.8651
  113OSM    C1S11737   0.726   0.160  10.823 -0.3472  0.0603  0.3100
  113OSM    H1S11738   0.719   0.258  10.875 -0.7930  0.3854 -0.3469
  113OSM    H1T11739   0.630   0.113  10.855  0.0460 -0.9284  0.0625
  113OSM     NF11740   0.615   0.262  10.609  0.1066 -0.3366  0.4994
  113OSM    HNF11741   0.536   0.213  10.573  1.2701 -0.0496 -2.7075
  113OSM    C2S11742   0.722   0.175  10.661 -0.4070 -0.8581 -0.4888
  113OSM    H2S11743   0.821   0.221  10.637 -0.9671  1.1616  0.7937
  113OSM    C3S11744   0.709   0.039  10.596  0.1286 -0.5025 -0.3613
  113OSM    H3S11745   0.618  -0.009  10.638 -0.6258  0.0582 -1.3077
  113OSM     O311746   0.808  -0.055  10.639  0.8005  0.4498 -0.2940
  113OSM    HO311747   0.845  -0.020  10.720  0.8488 -0.6371  0.1814
  113OSM    C4S11748   0.709   0.050  10.447  0.2370  0.0220  1.0566
  113OSM    H4S11749   0.604   0.061  10.416 -0.6320  2.8383  4.2968
  113OSM    C5S11750   0.807   0.051  10.352 -0.9048  0.1776 -0.5647
  113OSM    H5S11751   0.911   0.039  10.384 -0.3771  0.9791 -1.8969
  113OSM    C6S11752   0.803   0.052  10.204 -0.1235 -0.3429  0.9303
  113OSM    H6S11753   0.747   0.139  10.164 -3.5278 -2.0735  1.5227
  113OSM    H6T11754   0.745  -0.033  10.164 -1.4113  0.8844  0.1008
  113OSM    C7S11755   0.950   0.037  10.152  0.0952  0.0907  0.1271
  113OSM    H7S11756   0.990  -0.059  10.191  0.2070  0.2547  0.4201
  113OSM    H7T11757   1.005   0.128  10.183  0.8567 -0.6964  1.1674
  113OSM    C8S11758   0.958   0.041   9.999 -0.1226  0.2408  0.4112
  113OSM    H8S11759   0.905   0.130   9.959 -3.0923 -0.5027  2.3916
  113OSM    H8T11760   0.895  -0.036   9.951  0.8802 -0.5772  0.3826
  113OSM    C9S11761   1.108   0.042   9.948  0.2695 -0.1447 -0.8384
  113OSM    H9S11762   1.139  -0.064   9.933 -0.3357 -0.5530  0.5731
  113OSM    H9T11763   1.165   0.088  10.032 -1.2967 -1.6799  1.1809
  113OSM   C10S11764   1.130   0.116   9.817  0.0407 -0.2917 -0.1377
  113OSM   H10S11765   1.103   0.223   9.816  0.7141 -0.0909  1.1033
  113OSM   H10T11766   1.063   0.069   9.742 -0.7581 -0.4959  0.6952
  113OSM   C11S11767   1.277   0.102   9.775  0.3790 -0.8506 -0.0941
  113OSM   H11S11768   1.349   0.107   9.859  2.9121 -2.5397 -2.0176
  113OSM   H11T11769   1.307   0.177   9.699  1.8477 -0.4357  0.8661
  113OSM   C12S11770   1.306  -0.036   9.701  0.8281 -0.0403 -0.5749
  113OSM   H12S11771   1.272  -0.122   9.763  1.2347  0.1572 -0.0758
  113OSM   H12T11772   1.415  -0.058   9.697  0.8254 -0.3408  0.5713
  113OSM   C13S11773   1.255  -0.053   9.558  0.2934 -0.5378  0.0254
  113OSM   H13S11774   1.289   0.030   9.492  0.3068  1.1674  2.0508
  113OSM   H13T11775   1.145  -0.042   9.575  0.8225 -0.3477  4.5039
  113OSM   C14S11776   1.289  -0.189   9.509 -0.1851  0.3369 -0.0283
  113OSM   H14S11777   1.273  -0.254   9.597  2.6992  1.5984  1.5608
  113OSM   H14T11778   1.392  -0.190   9.467 -0.0747  1.7557  0.1873
  113OSM   C15S11779   1.196  -0.231   9.389 -0.3890 -0.5824  0.1427
  113OSM   H15S11780   1.197  -0.148   9.314 -1.6267  2.0073  2.7875
  113OSM   H15T11781   1.091  -0.226   9.426 -0.3554  0.6545  0.1356
  113OSM   C16S11782   1.207  -0.373   9.335  0.1761 -1.1423  0.2561
  113OSM   H16S11783   1.169  -0.431   9.422 -2.3006  0.8008  0.5690
  113OSM   H16T11784   1.307  -0.417   9.314 -0.2954 -1.4051 -1.5593
  113OSM   C17S11785   1.120  -0.407   9.218 -0.2544  0.4227  0.0580
  113OSM   H17S11786   1.014  -0.374   9.220 -0.1061  0.9635 -0.6169
  113OSM   H17T11787   1.108  -0.518   9.219 -1.4664  0.5260 -0.7107
  113OSM   C18S11788   1.171  -0.371   9.077  0.1215  0.5800 -0.3918
  113OSM   H18S11789   1.193  -0.263   9.066 -1.9250  0.9219 -1.4387
  113OSM   H18T11790   1.103  -0.415   9.002 -0.5995  0.6296  0.2242
  113OSM   H18U11791   1.272  -0.417   9.066 -0.3855 -0.5733 -0.4034
  113OSM    C1F11792   0.607   0.391  10.644  0.6859 -0.5710  0.4050
  113OSM     OF11793   0.701   0.438  10.713  0.9751  0.3515  0.1921
  113OSM    C2F11794   0.481   0.465  10.607 -0.4078  0.4171 -0.1552
  113OSM    H2F11795   0.430   0.515  10.692 -4.4298 -1.0883 -1.4443
  113OSM    H2G11796   0.399   0.394  10.579 -0.9904  0.1351  2.0902
  113OSM    C3F11797   0.517   0.562  10.493  0.3162  0.2641 -0.4013
  113OSM    H3F11798   0.598   0.633  10.519 -0.1648  0.7520 -0.2382
  113OSM    H3G11799   0.432   0.633  10.483 -0.9794 -0.8315  1.9543
  113OSM    C4F11800   0.559   0.491  10.366 -0.8477 -0.3543  0.6490
  113OSM    H4F11801   0.657   0.441  10.384 -1.6675 -1.9345  0.9766
  113OSM    H4G11802   0.575   0.574  10.294 -0.8483 -0.1652  0.8680
  113OSM    C5F11803   0.469   0.387  10.305 -0.5309 -1.1859  0.2873
  113OSM    H5F11804   0.365   0.425  10.300  0.5647  1.8830 -1.8169
  113OSM    H5G11805   0.480   0.290  10.359 -0.0702 -1.6692 -0.6304
  113OSM    C6F11806   0.513   0.368  10.154  0.2439  0.1709  0.1372
  113OSM    H6F11807   0.618   0.335  10.163 -0.6932 -2.7240  1.6874
  113OSM    H6G11808   0.515   0.458  10.089  1.4494  0.4072  0.4801
  113OSM    C7F11809   0.441   0.248  10.074 -0.0965 -0.0736  0.2483
  113OSM    H7F11810   0.333   0.274  10.071 -0.3836 -1.2809 -1.2505
  113OSM    H7G11811   0.459   0.148  10.119  0.8221  0.1021  0.2919
  113OSM    C8F11812   0.474   0.234   9.928 -0.0434  0.1892 -0.1999
  113OSM    H8F11813   0.419   0.142   9.898  0.8134 -0.8558  1.3444
  113OSM    H8G11814   0.582   0.211   9.931 -0.1922 -0.4184  2.2461
  113OSM    C9F11815   0.441   0.353   9.839 -0.3934 -0.4666  0.3844
  113OSM    H9F11816   0.491   0.446   9.869  1.7551 -0.5325 -2.5140
  113OSM   C10F11817   0.369   0.351   9.730 -0.3015 -0.4331 -0.2884
  113OSM   H10F11818   0.352   0.444   9.674  2.7742 -0.6111 -1.6890
  113OSM   C11F11819   0.308   0.224   9.662 -0.3083 -0.0890 -0.1589
  113OSM   H11F11820   0.203   0.246   9.632 -0.5474 -1.0891 -0.0772
  113OSM   H11G11821   0.302   0.136   9.729 -1.4359  0.6058  0.7040
  113OSM   C12F11822   0.386   0.181   9.540  0.0617 -0.4476 -0.0239
  113OSM   H12F11823   0.321   0.114   9.479 -2.0461 -0.0521  1.6937
  113OSM   H12G11824   0.483   0.145   9.581 -0.4799  1.6933  3.4686
  113OSM   C13F11825   0.438   0.291   9.438 -0.0187 -1.0524 -0.0184
  113OSM   H13F11826   0.492   0.248   9.351 -1.3896  0.6784 -1.7985
  113OSM   H13G11827   0.502   0.353   9.504  0.7145 -1.3544 -0.4431
  113OSM   C14F11828   0.327   0.367   9.365  0.3603 -0.3086  0.4012
  113OSM   H14F11829   0.249   0.405   9.434  0.4495  2.3146 -0.8267
  113OSM   H14G11830   0.286   0.300   9.287  0.8774 -1.1243  0.8206
  113OSM   C15F11831   0.381   0.482   9.286  0.6215 -0.3120  0.0652
  113OSM   H15F11832   0.467   0.440   9.229 -0.4446  1.1051 -2.8188
  113OSM   H15G11833   0.427   0.556   9.354 -0.6719  2.0520 -1.5075
  113OSM   C16F11834   0.285   0.566   9.206  0.5115 -0.5056 -0.1460
  113OSM   H16F11835   0.211   0.627   9.263  1.4114 -0.5990  1.1447
  113OSM   H16G11836   0.231   0.498   9.136 -1.7546 -1.2042  2.1251
  113OSM   C17F11837   0.357   0.668   9.118  0.3109  0.0932 -0.2812
  113OSM   H17F11838   0.430   0.618   9.050 -1.6964 -2.3286 -0.7899
  113OSM   H17G11839   0.411   0.741   9.182 -0.7179  1.1881 -0.6328
  113OSM   C18F11840   0.266   0.748   9.022 -0.3000  0.1824 -0.7857
  113OSM   H18F11841   0.211   0.690   8.945  0.1216 -0.9244 -0.2682
  113OSM   H18G11842   0.308   0.838   8.971 -1.6235  0.5404 -1.2740
  113OSM   H18H11843   0.180   0.783   9.083 -0.9396 -1.1656 -0.8931
  114OSM      N11844   0.216   0.202  11.444  0.8366 -0.5832  0.2491
  114OSM    C1511845   0.331   0.152  11.525  0.0215  0.3617  0.2610
  114OSM   H15A11846   0.303   0.071  11.591  1.9990 -2.6272 -2.2528
  114OSM   H15B11847   0.364   0.230  11.592 -0.0442  0.3497  0.3072
  114OSM   H15C11848   0.418   0.127  11.466  0.5916  0.6641  0.9515
  114OSM    C1411849   0.107   0.231  11.547 -0.3562 -0.2182  0.3151
  114OSM   H14A11850   0.155   0.267  11.637  0.6475 -0.3944 -0.1323
  114OSM   H14B11851   0.058   0.138  11.572  0.4010 -0.9720 -0.9031
  114OSM   H14C11852   0.034   0.297  11.502  0.7639  0.6310 -0.3013
  114OSM    C1311853   0.251   0.331  11.376  0.2996 -0.3589  0.3853
  114OSM   H13A11854   0.332   0.312  11.307  0.3799  3.3264 -0.7229
  114OSM   H13B11855   0.281   0.409  11.445 -0.9970  1.5728 -1.1323
  114OSM   H13C11856   0.163   0.360  11.321  0.3008 -1.1071 -0.0197
  114OSM    C1211857   0.169   0.102  11.339  0.1257  0.1416  0.4485
  114OSM   H12A11858   0.079   0.134  11.288  1.0720  1.8367 -0.2509
  114OSM   H12B11859   0.146   0.007  11.385  0.5689 -0.0637  0.2484
  114OSM    C1111860   0.265   0.080  11.225  0.0887  0.0294  0.6687
  114OSM   H11A11861   0.232  -0.009  11.168  4.5984 -2.2726  1.2613
  114OSM   H11B11862   0.363   0.049  11.266 -0.1305 -0.6015  0.7218
  114OSM      P11863   0.386   0.244  11.074 -0.1965  0.1026 -0.3330
  114OSM    O1311864   0.361   0.366  10.998 -0.5837  0.0616 -0.7590
  114OSM    O1411865   0.489   0.249  11.177 -0.0453  0.4774 -0.0818
  114OSM    O1111866   0.415   0.125  10.972  0.0032  0.4346  0.0728
  114OSM    O1211867   0.255   0.188  11.139 -0.3090  0.1409 -0.5371
  114OSM    C1S11868   0.328   0.108  10.860  0.8059  0.0702  0.1495
  114OSM    H1S11869   0.330   0.196  10.793  1.3455  0.8127  1.1204
  114OSM    H1T11870   0.222   0.097  10.891  0.6665  1.2536  0.1210
  114OSM     NF11871   0.265  -0.017  10.658 -0.8713  0.6138 -0.1666
  114OSM    HNF11872   0.192  -0.085  10.657  0.3560 -0.8027  1.5482
  114OSM    C2S11873   0.358  -0.015  10.774 -0.3126  0.7404 -0.8716
  114OSM    H2S11874   0.461  -0.007  10.734  0.6597 -1.7990  0.8890
  114OSM    C3S11875   0.368  -0.147  10.859 -0.9291  0.6612  0.6993
  114OSM    H3S11876   0.282  -0.172  10.926 -0.8339 -0.9693  0.2428
  114OSM     O311877   0.468  -0.153  10.959  0.0884 -0.0578  0.1740
  114OSM    HO311878   0.480  -0.059  10.975  1.5650  0.3299 -2.6629
  114OSM    C4S11879   0.380  -0.267  10.764 -0.6327  0.2735 -0.0237
  114OSM    H4S11880   0.280  -0.289  10.725  0.3781 -0.4197 -2.3823
  114OSM    C5S11881   0.481  -0.351  10.721  0.1726 -0.4542  0.0338
  114OSM    H5S11882   0.582  -0.336  10.763  0.2652  0.2873 -0.4417
  114OSM    C6S11883   0.470  -0.462  10.618  0.0988 -0.2912 -0.2346
  114OSM    H6S11884   0.398  -0.542  10.648 -3.2236  2.1629 -1.0614
  114OSM    H6T11885   0.571  -0.508  10.616  0.5886  0.7911 -0.9519
  114OSM    C7S11886   0.422  -0.433  10.475  1.0635 -0.6243 -0.1634
  114OSM    H7S11887   0.324  -0.381  10.475  1.7574  0.7391 -1.3434
  114OSM    H7T11888   0.396  -0.527  10.422  0.2603  0.6167 -2.0816
  114OSM    C8S11889   0.509  -0.340  10.396 -0.1695  0.3520  0.0045
  114OSM    H8S11890   0.601  -0.396  10.369 -1.4762 -1.4142 -0.9449
  114OSM    H8T11891   0.543  -0.254  10.458  2.2173 -1.8840  2.0055
  114OSM    C9S11892   0.436  -0.281  10.267 -0.1914 -0.0512 -0.6086
  114OSM    H9S11893   0.501  -0.211  10.209 -0.0505  0.8920  0.6465
  114OSM    H9T11894   0.344  -0.231  10.304 -1.0558 -1.7285 -0.4026
  114OSM   C10S11895   0.391  -0.386  10.158 -1.2190 -0.5531 -0.9385
  114OSM   H10S11896   0.321  -0.454  10.212 -0.1999 -0.9953 -0.1518
  114OSM   H10T11897   0.480  -0.442  10.121  0.3064  0.1180  1.5184
  114OSM   C11S11898   0.306  -0.323  10.039  0.1034  0.0833  0.2715
  114OSM   H11S11899   0.207  -0.285  10.072 -0.5178 -0.6186 -0.7230
  114OSM   H11T11900   0.277  -0.404   9.968 -1.1174  0.2965  0.4971
  114OSM   C12S11901   0.373  -0.209   9.965 -0.1013  0.3089  0.2590
  114OSM   H12S11902   0.429  -0.135  10.025  1.8641  0.4206 -1.5946
  114OSM   H12T11903   0.298  -0.142   9.919 -0.2839  0.4902  0.8213
  114OSM   C13S11904   0.463  -0.253   9.851 -0.0593  0.2192 -0.3162
  114OSM   H13S11905   0.418  -0.302   9.762 -0.0748 -1.3497  0.5193
  114OSM   H13T11906   0.544  -0.323   9.881  2.6307  3.4164  0.3961
  114OSM   C14S11907   0.524  -0.130   9.779  0.4027 -0.1973  0.0870
  114OSM   H14S11908   0.577  -0.069   9.855  0.3654 -0.9230  0.7036
  114OSM   H14T11909   0.441  -0.071   9.734  0.2187 -1.0287 -0.6930
  114OSM   C15S11910   0.623  -0.175   9.674  0.1576  0.2434 -0.1413
  114OSM   H15S11911   0.598  -0.250   9.596  1.3822  0.5185 -0.8292
  114OSM   H15T11912   0.712  -0.212   9.729  1.5666  0.4076 -2.1723
  114OSM   C16S11913   0.681  -0.054   9.591  0.0524 -0.1054 -0.1570
  114OSM   H16S11914   0.709   0.036   9.650 -1.3518  0.9265 -1.0017
  114OSM   H16T11915   0.599  -0.028   9.522 -0.1830  0.4609  0.3262
  114OSM   C17S11916   0.813  -0.081   9.512  0.0917 -0.5856  0.3166
  114OSM   H17S11917   0.789  -0.155   9.433 -2.2327 -0.0479  0.4658
  114OSM   H17T11918   0.892  -0.125   9.576  1.7771 -0.0775 -1.3065
  114OSM   C18S11919   0.886   0.040   9.445 -0.1157 -0.1029  0.3417
  114OSM   H18S11920   0.898   0.112   9.529 -0.2393  0.5192 -0.1640
  114OSM   H18T11921   0.819   0.083   9.368  0.4416 -2.7851 -1.7735
  114OSM   H18U11922   0.984   0.009   9.404 -1.3264 -2.2843 -1.1427
  114OSM    C1F11923   0.285   0.066  10.559  1.2932 -0.1241  1.0560
  114OSM     OF11924   0.391   0.118  10.537 -0.0234  0.0592  0.2693
  114OSM    C2F11925   0.168   0.085  10.472  0.4016  0.0821  0.0939
  114OSM    H2F11926   0.145   0.194  10.477 -0.5595 -0.0005 -1.7811
  114OSM    H2G11927   0.078   0.029  10.505 -0.2048  0.8731 -0.1982
  114OSM    C3F11928   0.197   0.034  10.326 -0.1656 -0.2226  1.1166
  114OSM    H3F11929   0.212  -0.076  10.318 -3.5789 -0.7691  0.7795
  114OSM    H3G11930   0.285   0.088  10.287 -0.5106 -1.7354 -2.0176
  114OSM    C4F11931   0.085   0.072  10.230  0.3388 -0.0806 -0.6531
  114OSM    H4F11932   0.088   0.182  10.214 -0.6545  0.7133  3.5235
  114OSM    H4G11933  -0.003   0.041  10.290  1.1264 -0.1173  0.5171
  114OSM    C5F11934   0.091  -0.010  10.096 -0.2621  0.1926 -0.9530
  114OSM    H5F11935   0.110  -0.117  10.121 -5.3605 -0.6240  0.7009
  114OSM    H5G11936   0.167   0.042  10.035  2.1035 -0.9224  0.8609
  114OSM    C6F11937  -0.046  -0.009  10.026  0.0765 -0.6075 -0.2654
  114OSM    H6F11938  -0.072   0.099  10.017  0.7617 -0.3386  0.8434
  114OSM    H6G11939  -0.123  -0.051  10.095  0.0995  0.9031  0.7196
  114OSM    C7F11940  -0.048  -0.079   9.891  0.2680  0.0621  0.0197
  114OSM    H7F11941  -0.155  -0.083   9.862 -0.6594  1.3387  2.8327
  114OSM    H7G11942  -0.012  -0.183   9.903  0.4310  0.0546 -0.5195
  114OSM    C8F11943   0.038  -0.002   9.784 -0.0349  0.3473  0.4278
  114OSM    H8F11944   0.068  -0.076   9.707  1.4428  1.5540 -0.2053
  114OSM    H8G11945   0.134   0.022   9.834  0.5291  0.5537 -0.7193
  114OSM    C9F11946  -0.039   0.113   9.732 -0.1455 -0.2105  0.5395
  114OSM    H9F11947  -0.063   0.186   9.810  3.5305 -0.5091  2.1723
  114OSM   C10F11948  -0.073   0.136   9.603 -0.0819 -0.2430  0.9114
  114OSM   H10F11949  -0.133   0.225   9.580  1.8629  1.2220  1.2505
  114OSM   C11F11950  -0.052   0.045   9.480  0.6466 -0.4715  0.6983
  114OSM   H11F11951  -0.156   0.027   9.443  1.3246 -2.3944 -0.3634
  114OSM   H11G11952   0.002  -0.049   9.504  0.9623 -0.3232  0.5757
  114OSM   C12F11953   0.016   0.114   9.357 -0.3340 -0.1457  0.0157
  114OSM   H12F11954   0.118   0.150   9.383  1.0435 -1.9264 -2.5456
  114OSM   H12G11955  -0.034   0.207   9.324  0.5400  0.0735 -0.7335
  114OSM   C13F11956   0.029   0.026   9.229  0.2860  0.6586 -0.6280
  114OSM   H13F11957  -0.058  -0.042   9.220  1.6126 -1.3220  0.7925
  114OSM   H13G11958   0.117  -0.041   9.234  0.4813  0.9924  1.1791
  114OSM   C14F11959   0.013   0.112   9.101  0.0555 -0.0134 -0.7482
  114OSM   H14F11960  -0.071   0.185   9.108 -0.2044 -0.1195 -2.4202
  114OSM   H14G11961  -0.016   0.046   9.016 -0.1639  0.4858 -1.0635
  114OSM   C15F11962   0.138   0.203   9.064 -0.5251  0.0952 -0.0094
  114OSM   H15F11963   0.222   0.147   9.110  0.2667 -0.1190 -1.6312
  114OSM   H15G11964   0.120   0.299   9.116 -3.1412  0.5797 -1.5855
  114OSM   C16F11965   0.143   0.236   8.912  0.0230 -0.2027 -0.2201
  114OSM   H16F11966   0.046   0.279   8.881  1.0846  3.2195  0.7609
  114OSM   H16G11967   0.159   0.142   8.855  0.4882  0.9489 -2.0632
  114OSM   C17F11968   0.261   0.329   8.883 -0.6783  0.4232  0.2378
  114OSM   H17F11969   0.232   0.426   8.928  0.7183  0.7758  0.4325
  114OSM   H17G11970   0.261   0.348   8.773 -0.5363  0.6630  0.2789
  114OSM   C18F11971   0.403   0.280   8.931  0.8787 -0.1387  0.4402
  114OSM   H18F11972   0.442   0.197   8.869  1.4767  0.3316  0.1792
  114OSM   H18G11973   0.411   0.252   9.038 -1.0342 -2.4120  0.0744
  114OSM   H18H11974   0.480   0.360   8.921  1.1870 -0.4678  0.1134
  115OSM      N11975   3.803   2.528  11.314 -0.1927  0.7954 -0.1247
  115OSM    C1511976   3.684   2.520  11.406 -0.2790  0.3684  0.5300
  115OSM   H15A11977   3.622   2.594  11.358 -2.6683 -1.0771  1.2085
  115OSM   H15B11978   3.690   2.541  11.511  1.9997  0.2687  0.4674
  115OSM   H15C11979   3.633   2.425  11.399 -0.5291  0.3733  2.0210
  115OSM    C1411980   3.893   2.638  11.346 -0.5238 -0.1018 -0.4115
  115OSM   H14A11981   3.926   2.611  11.446  0.0383 -2.1393 -1.0881
  115OSM   H14B11982   3.839   2.731  11.352  2.4833  1.6773  2.3883
  115OSM   H14C11983   3.977   2.647  11.278  0.5516 -0.2993  0.8436
  115OSM    C1311984   3.892   2.412  11.349  0.3603 -0.0182 -0.5985
  115OSM   H13A11985   3.832   2.322  11.349 -0.3091  0.4139  0.0433
  115OSM   H13B11986   3.922   2.423  11.453 -1.5270 -0.0224 -0.0242
  115OSM   H13C11987   3.981   2.399  11.289  1.0644 -1.9045  0.7586
  115OSM    C1211988   3.755   2.514  11.169 -0.6629  0.4177  0.8178
  115OSM   H12A11989   3.692   2.426  11.169  0.1876 -0.1947 -0.2164
  115OSM   H12B11990   3.834   2.484  11.103 -1.7863 -1.8877  0.3952
  115OSM    C1111991   3.675   2.630  11.106 -0.1661 -0.0270  0.6861
  115OSM   H11A11992   3.684   2.618  10.996  0.7628 -2.2658  0.9662
  115OSM   H11B11993   3.718   2.727  11.139 -0.1964 -0.6625  2.7013
  115OSM      P11994   3.428   2.535  11.088  0.1790 -0.6955  0.2592
  115OSM    O1311995   3.462   2.393  11.088 -0.1090  0.2796  0.8507
  115OSM    O1411996   3.304   2.557  11.163  0.5192 -0.1475 -0.5360
  115OSM    O1111997   3.413   2.588  10.936 -0.0096  0.2199  0.3156
  115OSM    O1211998   3.537   2.627  11.152 -0.0928  0.0913  0.0645
  115OSM    C1S11999   3.429   2.721  10.877 -0.4505  0.0477 -0.1433
  115OSM    H1S12000   3.538   2.742  10.872 -0.4591 -0.1116 -1.3503
  115OSM    H1T12001   3.360   2.786  10.934 -2.6353 -1.4139 -0.9842
  115OSM     NF12002   3.398   2.838  10.655 -0.1541  0.4242 -0.9030
  115OSM    HNF12003   3.322   2.902  10.667 -1.1234 -0.7835 -0.3114
  115OSM    C2S12004   3.381   2.709  10.725 -0.2538  0.7643 -0.2684
  115OSM    H2S12005   3.453   2.641  10.674  0.5632 -0.2569  2.1265
  115OSM    C3S12006   3.246   2.644  10.710  0.2522  0.3070 -0.2180
  115OSM    H3S12007   3.185   2.694  10.788  0.1947  1.1194 -0.7675
  115OSM     O312008   3.238   2.504  10.751 -0.3890  0.5753  0.2064
  115OSM    HO312009   3.317   2.485  10.803 -1.4706  0.0117  1.7135
  115OSM    C4S12010   3.195   2.647  10.571 -0.0170  0.1785 -0.4722
  115OSM    H4S12011   3.278   2.625  10.501  0.2873  1.6632 -0.6135
  115OSM    C5S12012   3.072   2.683  10.532  0.3437 -0.0168 -0.5496
  115OSM    H5S12013   2.995   2.723  10.600  1.0275 -0.9070  0.7771
  115OSM    C6S12014   3.024   2.688  10.386  0.4962  0.0055 -0.7184
  115OSM    H6S12015   2.945   2.765  10.375 -0.5712 -1.1088 -1.1440
  115OSM    H6T12016   2.976   2.592  10.357  0.7407  0.1369 -1.5962
  115OSM    C7S12017   3.132   2.706  10.273  0.6465  0.0226  0.4429
  115OSM    H7S12018   3.222   2.643  10.285  1.2101  0.8682  0.7676
  115OSM    H7T12019   3.168   2.810  10.288  1.3820 -0.3679  1.5633
  115OSM    C8S12020   3.076   2.685  10.131 -0.4127 -0.4361 -0.5163
  115OSM    H8S12021   3.008   2.772  10.116 -1.6557 -1.4487 -0.9287
  115OSM    H8T12022   3.022   2.589  10.119  0.1849 -0.7338 -0.8616
  115OSM    C9S12023   3.184   2.691  10.031 -0.2961  0.1009  0.3909
  115OSM    H9S12024   3.246   2.601  10.049  0.0875  0.3543  0.3554
  115OSM    H9T12025   3.252   2.775  10.057  1.7230 -1.6195  0.9817
  115OSM   C10S12026   3.141   2.719   9.891  0.4755 -0.7613  0.0638
  115OSM   H10S12027   3.098   2.822   9.891  0.4022 -0.7872 -0.5578
  115OSM   H10T12028   3.063   2.646   9.861 -1.6676  1.1261  0.7495
  115OSM   C11S12029   3.262   2.707   9.801 -0.0566  0.0535  0.0983
  115OSM   H11S12030   3.306   2.605   9.803 -2.9920 -1.3330 -0.5082
  115OSM   H11T12031   3.339   2.779   9.835  1.0384 -0.5407 -1.0181
  115OSM   C12S12032   3.212   2.730   9.656 -0.1890 -0.2070  0.0924
  115OSM   H12S12033   3.164   2.830   9.650  0.4873  0.0807 -0.7008
  115OSM   H12T12034   3.140   2.646   9.647 -2.0356  1.3391 -0.2574
  115OSM   C13S12035   3.324   2.720   9.551 -0.0721  0.5980  0.4339
  115OSM   H13S12036   3.375   2.622   9.563  3.4042  1.7346 -3.1285
  115OSM   H13T12037   3.403   2.796   9.570  0.8189  0.3917 -2.1495
  115OSM   C14S12038   3.278   2.747   9.411  1.1498  0.2483 -0.1481
  115OSM   H14S12039   3.224   2.844   9.408 -0.3547 -0.5884 -1.2217
  115OSM   H14T12040   3.201   2.676   9.375  0.3810  0.0201  1.8016
  115OSM   C15S12041   3.393   2.737   9.309  0.1910 -0.4271 -0.2545
  115OSM   H15S12042   3.421   2.633   9.282  2.3148  0.1305 -0.3471
  115OSM   H15T12043   3.477   2.794   9.353  0.3910 -1.3222  0.5462
  115OSM   C16S12044   3.369   2.801   9.176  0.0602 -0.0817  0.4401
  115OSM   H16S12045   3.335   2.906   9.173 -0.7875 -0.3663 -1.4857
  115OSM   H16T12046   3.288   2.740   9.130  2.5734 -1.4382 -2.6179
  115OSM   C17S12047   3.497   2.798   9.092  0.1479 -1.1434 -0.2473
  115OSM   H17S12048   3.582   2.829   9.157 -0.4910  2.3764 -0.9132
  115OSM   H17T12049   3.480   2.877   9.016 -1.4737 -1.0903  0.1215
  115OSM   C18S12050   3.530   2.671   9.027  0.5527 -0.2055  0.2025
  115OSM   H18S12051   3.457   2.621   8.959  2.8738 -4.1546  0.3523
  115OSM   H18T12052   3.550   2.596   9.106 -0.5464 -0.1909  0.5126
  115OSM   H18U12053   3.631   2.679   8.982  1.0824 -0.1591  1.3608
  115OSM    C1F12054   3.515   2.891  10.638  0.2486  0.7609  0.4317
  115OSM     OF12055   3.615   2.819  10.651  0.0326 -0.1336  0.3698
  115OSM    C2F12056   3.519   3.040  10.627 -0.5777 -0.1640 -0.9766
  115OSM    H2F12057   3.550   3.077  10.727  1.3600 -2.1124 -0.7869
  115OSM    H2G12058   3.416   3.075  10.603 -0.7333  0.7591  0.8665
  115OSM    C3F12059   3.619   3.092  10.522 -0.7365 -1.1523 -0.0369
  115OSM    H3F12060   3.724   3.073  10.553 -0.8986  0.6792  1.8943
  115OSM    H3G12061   3.617   3.203  10.529  0.4367 -1.0773 -0.6555
  115OSM    C4F12062   3.585   3.038  10.388  0.5281  0.2345 -0.5951
  115OSM    H4F12063   3.477   3.061  10.374  0.4782  1.8456  1.8621
  115OSM    H4G12064   3.608   2.930  10.390  1.4995  0.4273 -0.6007
  115OSM    C5F12065   3.656   3.126  10.277 -0.0214 -0.3763 -0.0130
  115OSM    H5F12066   3.766   3.117  10.290 -0.0227  2.7298  3.8791
  115OSM    H5G12067   3.634   3.233  10.296  3.8218  0.8928 -1.7205
  115OSM    C6F12068   3.611   3.083  10.139 -0.0815 -0.4724  0.1934
  115OSM    H6F12069   3.502   3.106  10.131  0.2950  1.9048  1.1588
  115OSM    H6G12070   3.626   2.974  10.125 -1.0789 -0.8905  2.0020
  115OSM    C7F12071   3.677   3.171  10.022  0.1688  0.8724  0.0569
  115OSM    H7F12072   3.788   3.163  10.015  0.2906  1.6537  0.9645
  115OSM    H7G12073   3.649   3.277  10.041  2.2130  1.2927  1.0073
  115OSM    C8F12074   3.627   3.138   9.882  0.5395  0.1271  0.1414
  115OSM    H8F12075   3.666   3.213   9.809 -0.2207  0.6964  0.3058
  115OSM    H8G12076   3.518   3.156   9.868  0.5313 -0.7641 -1.1690
  115OSM    C9F12077   3.667   2.998   9.836  0.2004  0.3743  0.2156
  115OSM    H9F12078   3.624   2.920   9.900 -0.7458  0.4829 -0.2767
  115OSM   C10F12079   3.753   2.961   9.735  0.4743 -1.1658 -0.0749
  115OSM   H10F12080   3.771   2.854   9.718 -0.5425 -1.1303 -1.5191
  115OSM   C11F12081   3.822   3.055   9.644  0.1174  0.0350 -0.4311
  115OSM   H11F12082   3.925   3.016   9.628 -0.5156 -1.4433 -1.0786
  115OSM   H11G12083   3.826   3.157   9.687 -1.0528 -0.1056  0.0256
  115OSM   C12F12084   3.754   3.049   9.506  0.3635 -0.0501  0.0381
  115OSM   H12F12085   3.646   3.074   9.507 -0.0326 -1.6950  0.8715
  115OSM   H12G12086   3.753   2.941   9.482 -0.0520 -0.4066  1.5702
  115OSM   C13F12087   3.821   3.147   9.401  0.6873 -0.3246  0.3052
  115OSM   H13F12088   3.930   3.126   9.406  0.3844 -1.6465  2.1295
  115OSM   H13G12089   3.799   3.244   9.449  1.2650 -0.3379  0.5988
  115OSM   C14F12090   3.742   3.141   9.272 -0.5254 -0.4764  0.2435
  115OSM   H14F12091   3.645   3.188   9.298 -1.2808 -2.4776  1.3209
  115OSM   H14G12092   3.708   3.038   9.245 -1.8804  0.3664 -1.4318
  115OSM   C15F12093   3.813   3.207   9.151 -0.4210  0.8067 -0.3281
  115OSM   H15F12094   3.752   3.197   9.059  0.1895 -1.3539 -0.5654
  115OSM   H15G12095   3.909   3.154   9.133 -0.9374 -0.8051  1.3311
  115OSM   C16F12096   3.852   3.352   9.176 -0.0314  0.1110  0.0885
  115OSM   H16F12097   3.944   3.353   9.238  0.0948  2.0987 -0.0410
  115OSM   H16G12098   3.765   3.389   9.235 -1.3937 -1.0732 -1.1127
  115OSM   C17F12099   3.861   3.433   9.047  0.3445  0.1455 -0.3293
  115OSM   H17F12100   3.757   3.432   9.007  0.4768  1.6658 -0.7515
  115OSM   H17G12101   3.935   3.388   8.979  0.6406  0.4909 -0.2383
  115OSM   C18F12102   3.882   3.585   9.065  1.1644  0.8339 -0.4379
  115OSM   H18F12103   3.793   3.629   9.115  2.0827 -0.1930  2.3134
  115OSM   H18G12104   3.912   3.639   8.973  0.8342  0.8246 -0.5495
  115OSM   H18H12105   3.964   3.590   9.140 -0.3179  1.1758  1.2395
  116OSM      N12106   0.989   1.676  10.906  0.1312  0.6405 -0.1073
  116OSM    C1512107   0.938   1.577  10.997 -0.4814  0.9095 -0.1656
  116OSM   H15A12108   1.005   1.492  11.002 -2.1678 -0.4416  0.6980
  116OSM   H15B12109   0.853   1.530  10.948  1.2857 -0.6589 -1.8886
  116OSM   H15C12110   0.901   1.620  11.089 -0.5176 -1.6036  1.0891
  116OSM    C1412111   1.115   1.720  10.959  0.0375 -0.2256 -0.1897
  116OSM   H14A12112   1.106   1.772  11.053  2.0197  0.1599 -0.1609
  116OSM   H14B12113   1.169   1.779  10.886 -1.1364  0.4621 -0.5261
  116OSM   H14C12114   1.183   1.639  10.978  0.5271 -0.0707 -1.2186
  116OSM    C1312115   1.009   1.624  10.771  0.1343  0.6303 -0.1039
  116OSM   H13A12116   1.060   1.703  10.718 -0.1178 -0.4570 -2.0863
  116OSM   H13B12117   0.914   1.601  10.725 -1.0176  1.9399  1.5042
  116OSM   H13C12118   1.059   1.529  10.769 -1.1009 -0.0619 -2.5121
  116OSM    C1212119   0.900   1.802  10.908  0.5004  0.4252 -0.0275
  116OSM   H12A12120   0.807   1.774  10.861  2.0044 -0.6115 -2.5651
  116OSM   H12B12121   0.945   1.878  10.846 -2.3271  0.9527 -1.6159
  116OSM    C1112122   0.866   1.857  11.051 -1.0937 -0.4580 -0.9243
  116OSM   H11A12123   0.833   1.785  11.130 -0.4963  1.0273  0.7400
  116OSM   H11B12124   0.775   1.918  11.032  0.6432  1.8188 -2.3676
  116OSM      P12125   0.998   2.088  11.049 -0.3478  0.3782  0.2195
  116OSM    O1312126   0.912   2.168  11.139  0.2407  0.1344  0.1154
  116OSM    O1412127   1.143   2.128  11.061 -0.2847  0.7951  0.2143
  116OSM    O1112128   0.948   2.103  10.903 -0.2561  0.2128  0.7471
  116OSM    O1212129   0.976   1.936  11.096 -0.0886  0.1827  0.0368
  116OSM    C1S12130   0.935   2.229  10.833  0.5185 -0.5823  0.6477
  116OSM    H1S12131   1.022   2.297  10.849 -0.6220  0.8219  1.1350
  116OSM    H1T12132   0.855   2.294  10.873 -0.5419 -0.2578 -1.8335
  116OSM     NF12133   0.945   2.330  10.606  0.4334  0.2927  0.6556
  116OSM    HNF12134   0.874   2.395  10.580  0.6176  0.5434  0.7691
  116OSM    C2S12135   0.915   2.210  10.679  0.8591  0.0783  0.0225
  116OSM    H2S12136   0.986   2.137  10.635  0.7965  1.0254 -1.7508
  116OSM    C3S12137   0.769   2.155  10.659  0.0794 -0.2412 -0.1928
  116OSM    H3S12138   0.707   2.237  10.701  2.8379  1.5124  0.8218
  116OSM     O312139   0.733   2.038  10.737  0.1711 -0.0864  0.4639
  116OSM    HO312140   0.810   2.028  10.793  0.9564  0.0066 -0.5644
  116OSM    C4S12141   0.749   2.140  10.509 -0.1410 -0.0224  0.3298
  116OSM    H4S12142   0.839   2.105  10.456  0.2731 -1.6300  2.0060
  116OSM    C5S12143   0.635   2.176  10.446 -0.3123 -0.6169 -0.0475
  116OSM    H5S12144   0.565   2.236  10.506  2.0406  1.7323  0.5303
  116OSM    C6S12145   0.607   2.166  10.294  0.1861 -0.2058  0.3691
  116OSM    H6S12146   0.572   2.263  10.253 -0.4450 -1.5097 -2.3813
  116OSM    H6T12147   0.522   2.099  10.272 -0.3086  0.5047  0.0999
  116OSM    C7S12148   0.728   2.111  10.207 -0.3269  0.1889  0.2401
  116OSM    H7S12149   0.757   2.011  10.245 -0.0988  1.0979  2.6478
  116OSM    H7T12150   0.821   2.170  10.222 -0.1099  0.4555 -1.8709
  116OSM    C8S12151   0.700   2.093  10.057  0.1567  0.3129  0.1757
  116OSM    H8S12152   0.789   2.037  10.019  0.1645  0.9736 -0.8044
  116OSM    H8T12153   0.694   2.190  10.005  3.5381 -0.4012 -1.8786
  116OSM    C9S12154   0.590   1.989  10.037 -0.5754 -0.9441 -0.0345
  116OSM    H9S12155   0.489   2.032  10.051 -1.3687 -2.2631 -1.4853
  116OSM    H9T12156   0.590   1.908  10.113  0.8949  0.1916  1.2387
  116OSM   C10S12157   0.583   1.932   9.897 -0.2402 -0.5191  0.3304
  116OSM   H10S12158   0.600   2.018   9.829  2.5934 -0.6891  0.7174
  116OSM   H10T12159   0.481   1.887   9.891 -0.1108 -0.6142 -2.0794
  116OSM   C11S12160   0.689   1.822   9.854 -0.3555 -0.0913 -0.0912
  116OSM   H11S12161   0.689   1.740   9.930 -2.1893 -0.4260 -0.3986
  116OSM   H11T12162   0.785   1.877   9.849 -0.9895  0.9804 -0.7091
  116OSM   C12S12163   0.668   1.758   9.719  0.0840 -0.3468  0.5835
  116OSM   H12S12164   0.583   1.687   9.716 -0.7589  0.6389  0.4615
  116OSM   H12T12165   0.753   1.691   9.694  0.9521  0.1512  2.0218
  116OSM   C13S12166   0.657   1.849   9.599  0.3625  0.4231 -0.0796
  116OSM   H13S12167   0.757   1.891   9.574  0.7257  0.2865  1.0942
  116OSM   H13T12168   0.590   1.934   9.624 -1.0491 -0.0906 -1.8460
  116OSM   C14S12169   0.588   1.780   9.478  0.8708  0.4432  0.2654
  116OSM   H14S12170   0.478   1.789   9.492  0.8889  0.2909  0.5081
  116OSM   H14T12171   0.628   1.677   9.470 -2.7609 -1.0387 -0.9447
  116OSM   C15S12172   0.634   1.847   9.340  0.0097  0.2748  0.1178
  116OSM   H15S12173   0.744   1.837   9.329 -0.0304 -0.0019 -0.0273
  116OSM   H15T12174   0.614   1.954   9.361  0.4608 -0.1974  3.5653
  116OSM   C16S12175   0.556   1.787   9.217 -0.4133 -0.6627  0.0431
  116OSM   H16S12176   0.450   1.816   9.233 -0.7895 -1.8203 -0.1747
  116OSM   H16T12177   0.564   1.677   9.230  0.7605 -0.5441  0.4790
  116OSM   C17S12178   0.607   1.839   9.086 -0.2885  0.8797  0.3553
  116OSM   H17S12179   0.602   1.758   9.010  3.4872 -0.1114  0.9656
  116OSM   H17T12180   0.711   1.875   9.103  0.4132 -0.4320 -0.9578
  116OSM   C18S12181   0.516   1.951   9.038 -0.6710  0.0882  0.6722
  116OSM   H18S12182   0.423   1.917   8.988  1.1168  0.5911 -3.3779
  116OSM   H18T12183   0.577   1.999   8.958  0.5117  0.0918  1.5477
  116OSM   H18U12184   0.486   2.022   9.119  0.1635  0.3513  0.7609
  116OSM    C1F12185   1.065   2.375  10.592  0.3536 -0.0956  0.6082
  116OSM     OF12186   1.165   2.310  10.623 -0.5398 -0.4088  0.0231
  116OSM    C2F12187   1.077   2.516  10.534  0.1530 -0.2934  0.2216
  116OSM    H2F12188   1.147   2.580  10.591  0.5287 -0.0848 -0.4674
  116OSM    H2G12189   0.980   2.568  10.521 -0.7668 -2.3569 -1.8210
  116OSM    C3F12190   1.146   2.515  10.395  0.3418 -0.0396  0.9862
  116OSM    H3F12191   1.244   2.463  10.397  0.3512 -0.0971 -0.3252
  116OSM    H3G12192   1.155   2.622  10.367 -0.9011  0.0591  0.8761
  116OSM    C4F12193   1.061   2.445  10.287 -0.4600 -0.8246 -0.0830
  116OSM    H4F12194   1.017   2.349  10.321 -0.7563 -0.8280 -0.4686
  116OSM    H4G12195   1.119   2.417  10.196  1.0092  1.1460  0.1749
  116OSM    C5F12196   0.959   2.541  10.218  0.7183  0.3674 -0.5010
  116OSM    H5F12197   1.025   2.600  10.150  0.9151 -0.0347 -0.6653
  116OSM    H5G12198   0.905   2.600  10.295  1.1878  0.1426  0.0153
  116OSM    C6F12199   0.847   2.470  10.135  0.0672  0.2507 -1.1163
  116OSM    H6F12200   0.794   2.405  10.207  0.0247  0.5327 -0.8935
  116OSM    H6G12201   0.892   2.394  10.068  1.1007 -1.0166  0.9142
  116OSM    C7F12202   0.741   2.570  10.082  0.3013 -0.4637 -0.6919
  116OSM    H7F12203   0.794   2.663  10.053 -0.4842  0.8217  1.6825
  116OSM    H7G12204   0.670   2.598  10.163 -0.1831  0.7094 -1.4879
  116OSM    C8F12205   0.661   2.529   9.960 -0.0957  0.2627  0.1743
  116OSM    H8F12206   0.572   2.590   9.934 -0.4883 -1.5101 -3.1350
  116OSM    H8G12207   0.606   2.435   9.979 -0.7644  0.7699  0.7927
  116OSM    C9F12208   0.751   2.511   9.837 -0.0860  0.1580  0.0858
  116OSM    H9F12209   0.832   2.585   9.831 -2.0240  2.4886  0.7242
  116OSM   C10F12210   0.729   2.425   9.738  0.1277  0.5608 -0.3766
  116OSM   H10F12211   0.793   2.422   9.649 -1.7371  0.9669 -1.7995
  116OSM   C11F12212   0.606   2.336   9.728  0.4458  0.0224  0.3130
  116OSM   H11F12213   0.517   2.395   9.759 -0.1587 -1.0694  0.7315
  116OSM   H11G12214   0.609   2.251   9.800  0.4713 -0.5143 -0.3003
  116OSM   C12F12215   0.586   2.271   9.588 -0.2506  0.3247 -0.1529
  116OSM   H12F12216   0.491   2.213   9.596 -0.1046  0.1315  0.1987
  116OSM   H12G12217   0.666   2.199   9.561 -0.3558  0.9132 -2.1384
  116OSM   C13F12218   0.554   2.371   9.479 -0.6597  0.4504  0.3810
  116OSM   H13F12219   0.648   2.412   9.435 -1.2027  2.5508  1.0488
  116OSM   H13G12220   0.489   2.449   9.525 -0.8015  1.5266 -1.5252
  116OSM   C14F12221   0.480   2.323   9.360 -0.6917  0.3884  0.4468
  116OSM   H14F12222   0.377   2.296   9.394 -2.1742 -0.0294 -3.7857
  116OSM   H14G12223   0.525   2.229   9.322 -0.9052 -0.2197  1.6413
  116OSM   C15F12224   0.455   2.418   9.244  0.4566 -0.1329  0.4336
  116OSM   H15F12225   0.552   2.452   9.202  1.4784 -1.5427  1.5672
  116OSM   H15G12226   0.395   2.508   9.269  0.7365  0.7127 -1.7075
  116OSM   C16F12227   0.371   2.354   9.124  0.0317  0.0459  0.2649
  116OSM   H16F12228   0.266   2.352   9.162 -0.2171  2.5445 -0.1016
  116OSM   H16G12229   0.405   2.250   9.106 -0.4733  0.2977 -2.7043
  116OSM   C17F12230   0.387   2.437   8.997 -0.5599 -0.4619  0.6422
  116OSM   H17F12231   0.339   2.537   9.003 -1.3434 -0.6929 -1.2281
  116OSM   H17G12232   0.338   2.384   8.912 -0.6796 -0.1696  0.5288
  116OSM   C18F12233   0.531   2.461   8.957 -0.4666 -0.9779 -0.1767
  116OSM   H18F12234   0.528   2.517   8.861 -0.5389  0.3077  0.5452
  116OSM   H18G12235   0.592   2.368   8.961  1.7803  0.4520  2.6351
  116OSM   H18H12236   0.575   2.542   9.020 -2.5506 -0.0085  0.1212
  117OSM      N12237   4.176   1.767  11.128 -0.5473 -0.6267  0.7815
  117OSM    C1512238   4.228   1.898  11.074  0.1569 -0.3229  0.2956
  117OSM   H15A12239   4.169   1.935  10.992 -0.1300  1.3645  1.2134
  117OSM   H15B12240   4.332   1.886  11.044  0.4420 -0.3021  1.2390
  117OSM   H15C12241   4.225   1.977  11.147 -1.3272  0.5250 -0.6506
  117OSM    C1412242   4.265   1.714  11.234  0.3735 -0.0543  0.1650
  117OSM   H14A12243   4.245   1.747  11.335  0.9618 -1.0568  0.6228
  117OSM   H14B12244   4.366   1.740  11.205 -0.0267  2.0734  0.5038
  117OSM   H14C12245   4.269   1.607  11.247 -1.0502 -0.0002  1.3649
  117OSM    C1312246   4.028   1.797  11.166 -0.3917 -0.2385 -0.1348
  117OSM   H13A12247   3.985   1.844  11.079  1.3220  0.3904 -0.6898
  117OSM   H13B12248   4.017   1.862  11.251 -0.8820 -1.7061  0.9612
  117OSM   H13C12249   3.972   1.709  11.194  1.5795 -0.9772  1.8416
  117OSM    C1212250   4.180   1.666  11.015  0.1756  0.7510 -0.0548
  117OSM   H12A12251   4.273   1.686  10.964  0.8955 -1.9905  0.0545
  117OSM   H12B12252   4.099   1.692  10.948 -0.2906 -0.4917  0.0019
  117OSM    C1112253   4.168   1.513  11.053 -0.6256 -1.2321 -0.6408
  117OSM   H11A12254   4.266   1.488  11.101 -0.0551  0.9529 -0.5719
  117OSM   H11B12255   4.164   1.450  10.961 -0.4693 -1.8645 -0.2238
  117OSM      P12256   3.925   1.418  11.121  0.1888 -0.6154  0.3814
  117OSM    O1312257   3.935   1.273  11.145 -0.4648 -0.0681 -0.1032
  117OSM    O1412258   3.820   1.500  11.185  0.8951  0.0116 -0.3254
  117OSM    O1112259   3.910   1.442  10.958 -0.1935 -0.3777  0.4128
  117OSM    O1212260   4.068   1.478  11.145  0.3804 -0.5824  0.6549
  117OSM    C1S12261   3.807   1.381  10.882 -0.0287  0.5416  0.1841
  117OSM    H1S12262   3.735   1.459  10.851  0.0516  1.2631  1.7228
  117OSM    H1T12263   3.754   1.307  10.946  0.2361 -1.3282 -1.6406
  117OSM     NF12264   3.760   1.294  10.655  0.4877  0.3680 -0.4470
  117OSM    HNF12265   3.689   1.224  10.659  2.5031 -1.7930  0.2131
  117OSM    C2S12266   3.856   1.293  10.761  0.2755 -0.0884  0.8282
  117OSM    H2S12267   3.946   1.342  10.719 -1.1076  3.1105  1.3003
  117OSM    C3S12268   3.901   1.157  10.814 -0.9179  0.1080  0.3142
  117OSM    H3S12269   3.836   1.097  10.882  0.2324 -1.5780 -0.0140
  117OSM     O312270   4.019   1.158  10.900 -0.1278 -0.0505  0.1756
  117OSM    HO312271   4.016   1.244  10.942  0.2045 -0.7216  1.6305
  117OSM    C4S12272   3.918   1.069  10.693  0.2296  0.7072 -0.4538
  117OSM    H4S12273   3.819   1.047  10.652 -0.5932 -0.9357  2.2043
  117OSM    C5S12274   4.030   1.037  10.624 -0.1996  0.1380  0.1556
  117OSM    H5S12275   4.122   1.079  10.667 -1.0219  0.1670  1.9760
  117OSM    C6S12276   4.052   0.966  10.489  0.1953 -0.5382 -0.1477
  117OSM    H6S12277   4.138   0.896  10.499  1.1116  0.5346 -0.4202
  117OSM    H6T12278   4.075   1.044  10.414 -0.1775 -0.7590 -0.4984
  117OSM    C7S12279   3.929   0.880  10.442 -0.5051 -0.4497  0.4202
  117OSM    H7S12280   3.846   0.949  10.416  0.8819  0.6882 -1.2865
  117OSM    H7T12281   3.909   0.808  10.524 -0.8717  0.4952  1.1810
  117OSM    C8S12282   3.960   0.803  10.311 -0.2241  0.3584  0.3716
  117OSM    H8S12283   4.055   0.745  10.316  0.8761  1.8794 -1.4722
  117OSM    H8T12284   3.975   0.880  10.233 -1.6708  0.6525  0.3530
  117OSM    C9S12285   3.851   0.698  10.262 -0.6998 -0.0656 -0.3072
  117OSM    H9S12286   3.747   0.737  10.266 -0.2752  1.1267 -0.2527
  117OSM    H9T12287   3.846   0.621  10.341 -2.9823  0.3705  0.0305
  117OSM   C10S12288   3.888   0.630  10.130  0.7185  0.1602 -0.3601
  117OSM   H10S12289   3.840   0.530  10.132  1.8205 -0.3758 -0.1569
  117OSM   H10T12290   3.997   0.606  10.131  0.6056 -0.3619 -0.4208
  117OSM   C11S12291   3.861   0.710  10.006 -0.0425  0.1164 -0.2644
  117OSM   H11S12292   3.920   0.804  10.004 -1.0507  0.7597 -1.8889
  117OSM   H11T12293   3.753   0.735  10.015 -0.1747 -0.7118  0.6656
  117OSM   C12S12294   3.875   0.619   9.885  0.0057  0.0388 -0.6649
  117OSM   H12S12295   3.820   0.524   9.899 -0.0488  0.4773  2.7452
  117OSM   H12T12296   3.984   0.599   9.876  0.1429  0.1431  0.6703
  117OSM   C13S12297   3.837   0.688   9.754  0.0320  0.3991 -0.0691
  117OSM   H13S12298   3.862   0.794   9.774  1.0379 -0.4041  3.6760
  117OSM   H13T12299   3.730   0.686   9.722  0.5479 -1.5227 -1.9343
  117OSM   C14S12300   3.910   0.629   9.630 -0.6797  0.6116 -0.8037
  117OSM   H14S12301   3.887   0.521   9.616  1.1820 -0.3423  2.3389
  117OSM   H14T12302   4.018   0.626   9.659 -1.0735  0.3012  0.7385
  117OSM   C15S12303   3.880   0.724   9.517  0.4754  1.0633  0.0951
  117OSM   H15S12304   3.907   0.824   9.555 -1.8343  1.5572  0.6015
  117OSM   H15T12305   3.770   0.719   9.503  0.1766 -2.6742  2.2115
  117OSM   C16S12306   3.950   0.686   9.386 -0.1405 -0.1932 -0.3633
  117OSM   H16S12307   3.917   0.590   9.342  2.6554 -1.3349 -0.1646
  117OSM   H16T12308   4.058   0.663   9.392 -0.4173 -2.1455 -1.9859
  117OSM   C17S12309   3.937   0.797   9.282 -0.3743  0.4958  0.3315
  117OSM   H17S12310   3.973   0.890   9.330  1.6330  0.4495 -0.9571
  117OSM   H17T12311   3.829   0.813   9.262  0.1395  2.8978 -0.9696
  117OSM   C18S12312   4.020   0.769   9.159  0.0653  0.7183  0.7396
  117OSM   H18S12313   4.021   0.665   9.119  3.6207 -0.0436  2.3477
  117OSM   H18T12314   4.125   0.778   9.194  0.5903  1.6858 -0.9522
  117OSM   H18U12315   4.005   0.839   9.074  0.0072 -0.5607 -0.3411
  117OSM    C1F12316   3.766   1.388  10.559  0.1199 -0.5643 -0.5277
  117OSM     OF12317   3.859   1.472  10.556  0.5661  0.3608 -0.4595
  117OSM    C2F12318   3.655   1.382  10.446  0.4222 -0.5853 -0.1321
  117OSM    H2F12319   3.585   1.468  10.449 -0.9253 -1.6014 -1.1900
  117OSM    H2G12320   3.599   1.287  10.467 -0.1368  0.2736  2.8351
  117OSM    C3F12321   3.724   1.380  10.300 -0.3415  0.5583 -0.3752
  117OSM    H3F12322   3.801   1.459  10.286  1.6464 -1.1556  0.3377
  117OSM    H3G12323   3.639   1.402  10.232 -0.4718 -0.8748 -0.7182
  117OSM    C4F12324   3.795   1.249  10.263  0.3413 -0.2596 -0.4165
  117OSM    H4F12325   3.865   1.240  10.348 -3.4695 -0.8832  2.9504
  117OSM    H4G12326   3.845   1.259  10.164 -0.7999 -1.8903 -1.2062
  117OSM    C5F12327   3.693   1.134  10.254  0.1710  0.0016 -0.0495
  117OSM    H5F12328   3.650   1.116  10.355 -2.9185  1.3673 -0.9970
  117OSM    H5G12329   3.754   1.049  10.217  0.7097  1.0166 -1.6088
  117OSM    C6F12330   3.585   1.156  10.133  0.3315 -0.5493 -0.6780
  117OSM    H6F12331   3.528   1.242  10.174  1.6990  0.6852 -1.2670
  117OSM    H6G12332   3.519   1.068  10.115 -1.6420  1.2303 -2.7627
  117OSM    C7F12333   3.647   1.201   9.995 -0.0398  0.5002 -0.2244
  117OSM    H7F12334   3.718   1.284  10.015 -1.2062  1.8660 -1.5466
  117OSM    H7G12335   3.564   1.256   9.947  0.6582 -0.9483 -3.3185
  117OSM    C8F12336   3.703   1.086   9.907  0.2646 -0.6697 -0.0198
  117OSM    H8F12337   3.613   1.035   9.865 -0.9835  0.3170  1.3563
  117OSM    H8G12338   3.744   1.010   9.977 -0.7037  1.4901  3.1017
  117OSM    C9F12339   3.812   1.115   9.805  0.2469  0.6852 -0.0084
  117OSM    H9F12340   3.914   1.100   9.843  0.2965  1.6681  0.2746
  117OSM   C10F12341   3.789   1.152   9.675 -0.0904 -1.2398  0.3409
  117OSM   H10F12342   3.872   1.183   9.608  0.6179 -2.5248  0.5841
  117OSM   C11F12343   3.650   1.181   9.620 -0.1653 -0.3573  0.1851
  117OSM   H11F12344   3.665   1.272   9.559  0.5837  0.7764  1.9951
  117OSM   H11G12345   3.582   1.204   9.705 -1.0398  0.4579 -0.7162
  117OSM   C12F12346   3.594   1.070   9.524 -0.7269 -0.3511 -0.6368
  117OSM   H12F12347   3.488   1.089   9.497 -1.0491  0.9305  1.3477
  117OSM   H12G12348   3.585   0.972   9.577 -0.4971 -0.0226  0.0092
  117OSM   C13F12349   3.670   1.045   9.390  0.5079 -0.0497  0.5845
  117OSM   H13F12350   3.765   0.991   9.410 -0.0781 -2.0649 -1.5877
  117OSM   H13G12351   3.680   1.148   9.349 -3.4027  0.0550 -0.5346
  117OSM   C14F12352   3.587   0.959   9.298  0.1349 -0.3735 -0.4452
  117OSM   H14F12353   3.480   0.986   9.308  0.2061 -0.1960 -0.1403
  117OSM   H14G12354   3.592   0.854   9.336  1.2885  0.3804  1.6351
  117OSM   C15F12355   3.620   0.981   9.147 -0.2400 -0.4854 -0.5727
  117OSM   H15F12356   3.730   0.983   9.135 -0.3208  1.3667 -1.3092
  117OSM   H15G12357   3.580   1.083   9.130 -0.6598 -0.3323  1.0957
  117OSM   C16F12358   3.548   0.887   9.055 -0.5494  0.4594 -0.6096
  117OSM   H16F12359   3.437   0.894   9.051 -0.4898  1.0748 -1.5060
  117OSM   H16G12360   3.572   0.785   9.091 -1.6570 -0.3742 -2.1289
  117OSM   C17F12361   3.590   0.890   8.907 -0.0653  0.2336 -0.7161
  117OSM   H17F12362   3.528   0.820   8.847 -1.3870 -1.2757  2.1825
  117OSM   H17G12363   3.696   0.855   8.918  1.0001  3.5817  0.9993
  117OSM   C18F12364   3.597   1.029   8.834  0.5412  0.4067 -0.6753
  117OSM   H18F12365   3.491   1.055   8.810 -0.1561 -2.9560 -1.7038
  117OSM   H18G12366   3.652   1.034   8.738 -0.6936  2.1542 -1.3472
  117OSM   H18H12367   3.634   1.098   8.913 -1.5370  0.4843  0.3215
  118OSM      N12368   4.607   0.857  11.403 -0.0237  0.9154  0.4336
  118OSM    C1512369   4.710   0.891  11.506 -0.0686 -0.2158 -0.1115
  118OSM   H15A12370   4.664   0.896  11.604  3.6959 -1.9190  1.9549
  118OSM   H15B12371   4.759   0.987  11.492  2.1571 -1.6778 -3.5287
  118OSM   H15C12372   4.781   0.812  11.524  1.2853  1.1336  0.7800
  118OSM    C1412373   4.575   0.712  11.418  0.4993  0.7436  0.8808
  118OSM   H14A12374   4.554   0.705  11.524 -2.2367  1.5223  0.4799
  118OSM   H14B12375   4.656   0.655  11.376 -0.2065 -0.0454  0.5840
  118OSM   H14C12376   4.480   0.693  11.370  0.5416  0.4274  0.9247
  118OSM    C1312377   4.480   0.940  11.427 -0.3904  0.0292  1.2143
  118OSM   H13A12378   4.503   1.046  11.431  2.3136 -0.4718  1.1361
  118OSM   H13B12379   4.417   0.913  11.510 -1.1515 -1.6207  0.1396
  118OSM   H13C12380   4.418   0.934  11.339  1.4285  3.5364 -0.5241
  118OSM    C1212381   4.676   0.869  11.261  0.8577 -0.2558  0.4001
  118OSM   H12A12382   4.782   0.846  11.267  0.6210 -0.9913  2.7313
  118OSM   H12B12383   4.677   0.971  11.227  0.3380 -0.3437  0.1095
  118OSM    C1112384   4.615   0.789  11.139 -0.0429  0.0406 -0.2753
  118OSM   H11A12385   4.514   0.835  11.129  0.0813  0.3550 -0.1064
  118OSM   H11B12386   4.603   0.685  11.175 -1.3986  0.3257  0.1823
  118OSM      P12387   4.784   0.677  10.971 -0.0283 -0.0116 -0.5145
  118OSM    O1312388   4.864   0.722  10.852 -0.1526  0.5321  0.6018
  118OSM    O1412389   4.863   0.625  11.087  0.1257 -0.7434  0.1990
  118OSM    O1112390   4.684   0.563  10.928  0.4602 -0.4004  0.5870
  118OSM    O1212391   4.694   0.804  11.023  0.0010 -0.0305  0.0529
  118OSM    C1S12392   4.573   0.606  10.841 -0.7676  0.1580  0.4573
  118OSM    H1S12393   4.565   0.716  10.835 -2.0103  0.0662  0.3193
  118OSM    H1T12394   4.482   0.570  10.893 -1.9912  0.7615 -1.1909
  118OSM     NF12395   4.500   0.579  10.602  0.5973  0.5099  0.6672
  118OSM    HNF12396   4.407   0.544  10.599 -0.2099  2.4927  0.7119
  118OSM    C2S12397   4.584   0.525  10.705  0.3580  0.6491  0.4764
  118OSM    H2S12398   4.689   0.531  10.670  0.0793 -0.1610 -0.5463
  118OSM    C3S12399   4.547   0.372  10.736 -0.6620  0.3039  0.0847
  118OSM    H3S12400   4.438   0.377  10.761 -0.3224  2.0881  1.4552
  118OSM     O312401   4.604   0.316  10.851  0.1410  0.2189  0.2251
  118OSM    HO312402   4.644   0.391  10.895  0.8984  0.1846 -0.3815
  118OSM    C4S12403   4.575   0.290  10.613 -0.1052 -0.0496  0.3756
  118OSM    H4S12404   4.677   0.283  10.573  0.2427 -1.0863  1.4304
  118OSM    C5S12405   4.478   0.236  10.539  0.6817 -0.3721 -0.1826
  118OSM    H5S12406   4.377   0.244  10.583  1.0529 -1.2663  0.8986
  118OSM    C6S12407   4.493   0.163  10.411 -0.0580  0.6178  0.8070
  118OSM    H6S12408   4.418   0.196  10.336  0.7062  1.4717  0.3935
  118OSM    H6T12409   4.459   0.062  10.443 -2.2515  0.8730 -0.4890
  118OSM    C7S12410   4.631   0.159  10.353  0.1593  0.1974  0.8384
  118OSM    H7S12411   4.694   0.087  10.410 -0.6033  0.3012  1.8255
  118OSM    H7T12412   4.675   0.260  10.365  1.0634 -0.1516  0.5462
  118OSM    C8S12413   4.631   0.106  10.212  0.4724  0.6394 -0.4401
  118OSM    H8S12414   4.553   0.027  10.208  0.0441  0.8760  1.9734
  118OSM    H8T12415   4.731   0.061  10.197  0.5392  0.2942  0.9629
  118OSM    C9S12416   4.603   0.219  10.108  0.3289 -0.3535  0.1748
  118OSM    H9S12417   4.686   0.286  10.078 -1.4451  1.3989 -1.0021
  118OSM    H9T12418   4.528   0.287  10.152  0.5808 -0.9967  1.6637
  118OSM   C10S12419   4.542   0.168   9.980  0.1762 -0.1627  0.3758
  118OSM   H10S12420   4.482   0.253   9.941  0.1611  2.4127  5.2557
  118OSM   H10T12421   4.464   0.091  10.001 -0.5933 -0.0724 -1.8454
  118OSM   C11S12422   4.642   0.111   9.874 -0.1370  0.4073 -0.4221
  118OSM   H11S12423   4.678   0.015   9.916  0.6897  1.9022  2.5454
  118OSM   H11T12424   4.732   0.176   9.864  0.6874 -0.1530  2.4224
  118OSM   C12S12425   4.579   0.091   9.737 -0.3004  0.5008 -0.2883
  118OSM   H12S12426   4.531   0.187   9.710 -0.9018  0.6749  1.2899
  118OSM   H12T12427   4.489   0.024   9.735 -0.0444  0.0652  1.2903
  118OSM   C13S12428   4.685   0.041   9.629 -0.1004 -0.5717  0.0462
  118OSM   H13S12429   4.745  -0.044   9.670  2.2926  0.6241 -0.7837
  118OSM   H13T12430   4.765   0.115   9.608  0.7632 -2.2291 -3.0634
  118OSM   C14S12431   4.622   0.005   9.499  0.2959 -0.2740  0.9343
  118OSM   H14S12432   4.558  -0.084   9.514 -2.2507  1.9783  5.0353
  118OSM   H14T12433   4.704  -0.019   9.428  1.3144  1.3131  1.5068
  118OSM   C15S12434   4.554   0.125   9.437 -0.2765 -0.0182 -0.2784
  118OSM   H15S12435   4.608   0.222   9.446  1.1974 -0.8938  0.8309
  118OSM   H15T12436   4.449   0.137   9.472 -0.3693 -2.2907  0.3323
  118OSM   C16S12437   4.524   0.117   9.277 -0.0288  0.0358 -0.7348
  118OSM   H16S12438   4.466   0.209   9.254 -1.7016 -1.9405 -5.5235
  118OSM   H16T12439   4.456   0.033   9.256 -0.6391  0.4229 -0.3372
  118OSM   C17S12440   4.651   0.113   9.188  0.1308  0.4645  0.1753
  118OSM   H17S12441   4.696   0.011   9.190 -0.3149  0.1288 -2.5734
  118OSM   H17T12442   4.726   0.189   9.221  0.7656 -0.5086  1.0454
  118OSM   C18S12443   4.614   0.139   9.042 -0.2358 -0.3919 -0.3440
  118OSM   H18S12444   4.564   0.238   9.031 -0.0313 -0.1379  0.8570
  118OSM   H18T12445   4.554   0.055   9.001  1.6487 -1.9064 -0.1029
  118OSM   H18U12446   4.705   0.134   8.978 -0.2037 -1.9312 -0.1920
  118OSM    C1F12447   4.525   0.701  10.552 -0.1174 -0.8921  0.3351
  118OSM     OF12448   4.612   0.778  10.578 -0.4942  0.0762  0.2940
  118OSM    C2F12449   4.421   0.748  10.447 -0.1759  0.5737  0.1634
  118OSM    H2F12450   4.427   0.856  10.421 -2.4358  0.4846 -0.9104
  118OSM    H2G12451   4.319   0.723  10.482  0.1703 -1.0701  0.0838
  118OSM    C3F12452   4.455   0.676  10.310  0.0935  0.3597  0.5377
  118OSM    H3F12453   4.450   0.565  10.313 -0.7997  0.3878  0.3986
  118OSM    H3G12454   4.553   0.709  10.270  0.2407  0.1544  0.7308
  118OSM    C4F12455   4.339   0.707  10.203 -0.1475  0.3755 -0.3984
  118OSM    H4F12456   4.355   0.812  10.172 -0.0496  0.2721 -0.7032
  118OSM    H4G12457   4.241   0.707  10.255 -0.6941 -2.6533 -1.2418
  118OSM    C5F12458   4.322   0.602  10.079  0.1535  0.3892 -0.0145
  118OSM    H5F12459   4.218   0.623  10.046  0.4255  1.9376  0.0246
  118OSM    H5G12460   4.341   0.498  10.112 -1.4342 -0.2474 -0.9987
  118OSM    C6F12461   4.411   0.631   9.964 -0.3884 -0.7947 -0.7723
  118OSM    H6F12462   4.514   0.598   9.991 -1.7105 -3.8035  1.1892
  118OSM    H6G12463   4.420   0.741   9.953 -0.3026 -0.2579  3.2547
  118OSM    C7F12464   4.378   0.547   9.837 -0.6819  0.0396  0.3929
  118OSM    H7F12465   4.279   0.586   9.805 -0.1820  2.6576  1.7711
  118OSM    H7G12466   4.356   0.442   9.867 -1.2623 -0.7231 -2.4449
  118OSM    C8F12467   4.468   0.579   9.713  0.5506 -0.0220 -0.3466
  118OSM    H8F12468   4.570   0.541   9.738  0.2593 -1.1445 -0.8042
  118OSM    H8G12469   4.474   0.690   9.705  0.0819  0.1614  1.4619
  118OSM    C9F12470   4.416   0.517   9.585 -0.0302 -0.1427 -0.3281
  118OSM    H9F12471   4.309   0.489   9.581 -0.0904 -0.0419  0.5400
  118OSM   C10F12472   4.489   0.494   9.476 -0.1888  0.1522  0.5866
  118OSM   H10F12473   4.432   0.450   9.393  0.1288 -0.3918  0.6564
  118OSM   C11F12474   4.635   0.524   9.454  0.1671  0.1536  0.6246
  118OSM   H11F12475   4.695   0.442   9.498 -1.3485 -0.5748  1.4078
  118OSM   H11G12476   4.674   0.607   9.518  1.3500  1.6954 -1.9491
  118OSM   C12F12477   4.667   0.579   9.309 -0.9233  0.3253  0.1565
  118OSM   H12F12478   4.774   0.607   9.303 -1.2697  1.6300 -0.2391
  118OSM   H12G12479   4.605   0.669   9.290 -1.9662 -1.0105 -3.7755
  118OSM   C13F12480   4.647   0.479   9.198  0.1113  0.3704  0.4294
  118OSM   H13F12481   4.561   0.412   9.217  1.0870 -1.4402 -1.1755
  118OSM   H13G12482   4.728   0.404   9.190  1.6358  1.8834  1.1221
  118OSM   C14F12483   4.638   0.543   9.052 -0.5570  0.5267 -0.0185
  118OSM   H14F12484   4.554   0.614   9.059 -1.8369 -0.9069 -0.3702
  118OSM   H14G12485   4.606   0.461   8.984  0.6235  0.3199 -0.3543
  118OSM   C15F12486   4.779   0.596   9.011  0.1782  0.7728  0.4804
  118OSM   H15F12487   4.849   0.515   9.043 -0.5305 -0.0980 -0.1296
  118OSM   H15G12488   4.796   0.690   9.068  0.9592  1.0018 -0.1045
  118OSM   C16F12489   4.797   0.615   8.861  0.3704  0.4961  0.0171
  118OSM   H16F12490   4.769   0.527   8.801  0.2272 -0.1424  0.9991
  118OSM   H16G12491   4.906   0.625   8.839  0.0824  1.4243 -1.0757
  118OSM   C17F12492   4.717   0.727   8.796  0.0978  0.5126 -0.3881
  118OSM   H17F12493   4.757   0.828   8.822 -3.3076  1.8170  0.3870
  118OSM   H17G12494   4.620   0.724   8.851  0.8736 -0.1926  0.9840
  118OSM   C18F12495   4.699   0.707   8.641  0.8728  0.6996 -0.7530
  118OSM   H18F12496   4.802   0.691   8.601  0.4837 -0.9551 -1.1481
  118OSM   H18G12497   4.649   0.794   8.593 -1.7012  1.0953  2.3782
  118OSM   H18H12498   4.644   0.612   8.628  0.8954  0.2710  1.8478
  119OSM      N12499   0.132   4.973  11.453  0.6224  0.2174 -0.4460
  119OSM    C1512500   0.200   5.105  11.459  0.9444  0.0240 -0.3652
  119OSM   H15A12501   0.150   5.175  11.394 -2.6636  0.3429  2.4430
  119OSM   H15B12502   0.305   5.099  11.434  0.9802  1.1137 -0.5249
  119OSM   H15C12503   0.204   5.151  11.557  1.9055 -0.7244 -0.0366
  119OSM    C1412504   0.202   4.873  11.538  0.1422  0.3506  0.0251
  119OSM   H14A12505   0.212   4.915  11.637 -0.1096  1.1238 -0.2698
  119OSM   H14B12506   0.304   4.858  11.506  0.0917  1.9615 -1.0046
  119OSM   H14C12507   0.144   4.782  11.537 -0.8111  0.9373  0.6785
  119OSM    C1312508  -0.008   4.999  11.511  0.1267  0.1503  0.1760
  119OSM   H13A12509  -0.082   5.021  11.436  1.3653 -0.6156 -1.3355
  119OSM   H13B12510  -0.010   5.082  11.580  0.7095  0.3108  0.0076
  119OSM   H13C12511  -0.047   4.912  11.561  2.0425 -1.2706 -0.6484
  119OSM    C1212512   0.124   4.926  11.305  0.5359  0.3931 -0.4512
  119OSM   H12A12513   0.057   4.841  11.311  0.7879  0.2925  2.9435
  119OSM   H12B12514   0.220   4.884  11.281  0.0533 -0.9925 -0.0605
  119OSM    C1112515   0.097   5.022  11.196  0.5267 -0.6992 -0.1379
  119OSM   H11A12516   0.004   5.075  11.228  0.5985 -0.4438 -0.3454
  119OSM   H11B12517   0.063   4.983  11.098 -0.3949 -0.7114  0.1685
  119OSM      P12518   0.334   5.100  11.089 -0.1492 -0.4346  0.4245
  119OSM    O1312519   0.412   5.219  11.097 -0.3669 -0.5435 -0.3711
  119OSM    O1412520   0.403   4.968  11.117 -0.0861 -0.3039  0.3732
  119OSM    O1112521   0.276   5.093  10.943  0.0996  0.1596  0.0751
  119OSM    O1212522   0.207   5.110  11.180 -0.1306  0.2289 -0.1298
  119OSM    C1S12523   0.293   5.215  10.864 -0.5915 -0.1578 -0.0915
  119OSM    H1S12524   0.399   5.217  10.830 -0.7287  0.4660 -0.4896
  119OSM    H1T12525   0.281   5.308  10.923 -2.2670 -1.1849  1.2814
  119OSM     NF12526   0.232   5.326  10.644 -0.1197 -0.2786  0.1980
  119OSM    HNF12527   0.215   5.425  10.638 -0.5862 -0.4295 -2.2838
  119OSM    C2S12528   0.188   5.235  10.751 -0.5784 -0.8205 -0.3695
  119OSM    H2S12529   0.178   5.135  10.705  1.3797  0.6024 -4.3988
  119OSM    C3S12530   0.050   5.262  10.819  1.1240 -0.1224 -0.0353
  119OSM    H3S12531   0.056   5.365  10.862  1.2973  0.6808 -1.8807
  119OSM     O312532   0.016   5.154  10.911 -0.1854  0.0387  0.2509
  119OSM    HO312533   0.103   5.116  10.924 -0.6964 -0.8084  1.3326
  119OSM    C4S12534  -0.062   5.260  10.711 -0.4278 -0.1649 -0.2998
  119OSM    H4S12535  -0.100   5.162  10.679 -2.8881  0.7296 -0.3883
  119OSM    C5S12536  -0.122   5.365  10.654  0.1678  0.2778 -0.4612
  119OSM    H5S12537  -0.119   5.465  10.701 -1.1334 -0.1941  0.7025
  119OSM    C6S12538  -0.229   5.346  10.546  0.2271  0.3587  0.3328
  119OSM    H6S12539  -0.327   5.391  10.573 -0.4206 -0.4268 -0.6429
  119OSM    H6T12540  -0.243   5.237  10.532  0.6192  0.2916  0.4614
  119OSM    C7S12541  -0.190   5.422  10.419  0.4456  0.3265 -0.1630
  119OSM    H7S12542  -0.104   5.381  10.361  0.4718  1.1384 -0.7137
  119OSM    H7T12543  -0.169   5.526  10.450  0.0166  0.9163 -1.7362
  119OSM    C8S12544  -0.316   5.435  10.319  0.1135 -0.0943  0.0637
  119OSM    H8S12545  -0.403   5.487  10.363  1.2868  1.5348  0.5197
  119OSM    H8T12546  -0.346   5.333  10.287  0.9298 -0.1118 -0.6966
  119OSM    C9S12547  -0.271   5.510  10.191  0.7774 -0.0103 -0.3748
  119OSM    H9S12548  -0.194   5.438  10.154 -1.4688 -1.7625 -1.9157
  119OSM    H9T12549  -0.218   5.606  10.208 -0.9616  0.9055  0.0183
  119OSM   C10S12550  -0.386   5.532  10.094 -0.9589 -0.0868 -0.5129
  119OSM   H10S12551  -0.465   5.583  10.153 -1.2619 -0.8417 -0.2529
  119OSM   H10T12552  -0.440   5.440  10.063 -0.6174 -0.2202 -0.7197
  119OSM   C11S12553  -0.366   5.619   9.972  0.2015 -0.8281 -0.9864
  119OSM   H11S12554  -0.335   5.724   9.993  1.0833 -0.8371 -2.1246
  119OSM   H11T12555  -0.455   5.627   9.907 -0.9866 -0.4437  0.6291
  119OSM   C12S12556  -0.256   5.571   9.881 -0.3549  0.0309 -0.2878
  119OSM   H12S12557  -0.264   5.461   9.865  2.8181 -0.1938 -0.9826
  119OSM   H12T12558  -0.156   5.579   9.929  0.8609  0.4180 -2.7475
  119OSM   C13S12559  -0.269   5.629   9.734  0.1065  0.1721  0.9011
  119OSM   H13S12560  -0.209   5.720   9.710 -0.9763  0.0345 -3.1425
  119OSM   H13T12561  -0.374   5.664   9.718 -0.6519 -1.1077  2.8126
  119OSM   C14S12562  -0.221   5.523   9.639 -0.5380  0.1510  0.2871
  119OSM   H14S12563  -0.262   5.420   9.647  1.5414 -0.8863 -1.2825
  119OSM   H14T12564  -0.112   5.512   9.656 -0.4982  2.3895  1.9373
  119OSM   C15S12565  -0.251   5.560   9.495  0.1860  0.4121 -0.0544
  119OSM   H15S12566  -0.228   5.669   9.500 -2.0020  0.8847  0.8764
  119OSM   H15T12567  -0.356   5.538   9.465  0.6609 -0.0222 -1.4997
  119OSM   C16S12568  -0.153   5.496   9.398 -0.0948  0.1221 -0.6587
  119OSM   H16S12569  -0.146   5.387   9.416 -0.4464  0.1701 -0.2233
  119OSM   H16T12570  -0.046   5.521   9.418  0.0800  0.9033 -2.3686
  119OSM   C17S12571  -0.187   5.530   9.248 -0.5286  0.1598  0.7890
  119OSM   H17S12572  -0.188   5.640   9.232  0.8781  0.0444 -0.3179
  119OSM   H17T12573  -0.292   5.502   9.224 -0.4472  1.3036 -1.1209
  119OSM   C18S12574  -0.092   5.456   9.152 -0.4310  0.4830  0.1792
  119OSM   H18S12575   0.010   5.500   9.162 -0.9926  2.0013 -0.3723
  119OSM   H18T12576  -0.119   5.460   9.044 -0.2674 -0.0133  0.1204
  119OSM   H18U12577  -0.076   5.351   9.183  2.0578  0.3774 -1.1591
  119OSM    C1F12578   0.321   5.284  10.555  0.0542 -0.4813  1.6181
  119OSM     OF12579   0.362   5.171  10.559  0.5593 -0.5000  0.5488
  119OSM    C2F12580   0.369   5.389  10.456 -0.5746 -0.3562 -0.3624
  119OSM    H2F12581   0.440   5.452  10.513  0.2677 -1.4900 -0.1167
  119OSM    H2G12582   0.276   5.442  10.426 -1.2315 -0.0783  1.9754
  119OSM    C3F12583   0.434   5.323  10.331  0.3417 -0.4052 -0.2805
  119OSM    H3F12584   0.349   5.275  10.277  1.3338 -0.4781 -1.8275
  119OSM    H3G12585   0.510   5.248  10.362  0.7558 -0.1469 -0.6807
  119OSM    C4F12586   0.502   5.418  10.239 -0.5037 -0.2912  0.5732
  119OSM    H4F12587   0.561   5.487  10.304  1.3312 -1.3800  0.1333
  119OSM    H4G12588   0.429   5.486  10.190 -1.3930 -1.2046  0.5985
  119OSM    C5F12589   0.591   5.343  10.144 -0.7055 -0.3069  0.5901
  119OSM    H5F12590   0.528   5.276  10.082 -1.7336  1.1643  0.0068
  119OSM    H5G12591   0.664   5.276  10.196  1.1879  0.3074 -1.1654
  119OSM    C6F12592   0.665   5.443  10.053  0.2065 -0.1872 -0.7626
  119OSM    H6F12593   0.733   5.389   9.983  0.8123 -0.4191  0.0008
  119OSM    H6G12594   0.726   5.514  10.112  0.4245 -0.5598 -0.5366
  119OSM    C7F12595   0.575   5.536   9.956  0.6060  0.6873 -0.3586
  119OSM    H7F12596   0.575   5.635  10.007  0.4761  1.1867 -1.2867
  119OSM    H7G12597   0.475   5.492   9.937  0.5605  0.4390  0.4260
  119OSM    C8F12598   0.647   5.566   9.824 -0.1502 -0.1307 -0.7450
  119OSM    H8F12599   0.649   5.466   9.776  2.0143 -0.4968  0.0279
  119OSM    H8G12600   0.749   5.607   9.839  0.1417 -1.2579  0.4533
  119OSM    C9F12601   0.557   5.646   9.740  0.4748  0.4842  0.5769
  119OSM    H9F12602   0.463   5.685   9.782  0.2067  2.0979 -1.3301
  119OSM   C10F12603   0.585   5.688   9.616 -0.0234  0.0963 -0.1037
  119OSM   H10F12604   0.513   5.746   9.556 -0.0098  0.7461  0.5008
  119OSM   C11F12605   0.713   5.671   9.537 -0.5170 -0.1673 -0.1092
  119OSM   H11F12606   0.753   5.568   9.538 -0.3326 -0.0970 -0.2674
  119OSM   H11G12607   0.796   5.732   9.578 -0.5126  1.8200 -2.8707
  119OSM   C12F12608   0.712   5.723   9.391 -0.5243 -0.3052  0.4411
  119OSM   H12F12609   0.812   5.701   9.349 -1.7805  0.4441 -3.3876
  119OSM   H12G12610   0.697   5.832   9.381  0.9127 -0.0953  0.3672
  119OSM   C13F12611   0.616   5.645   9.306  0.4959  0.4575 -0.5224
  119OSM   H13F12612   0.519   5.660   9.357  1.0895  2.0023  0.2025
  119OSM   H13G12613   0.645   5.537   9.307 -0.5403  0.1711  0.8858
  119OSM   C14F12614   0.609   5.703   9.155 -0.1822 -0.0746 -0.1366
  119OSM   H14F12615   0.712   5.685   9.118 -0.1671 -0.2594 -0.0090
  119OSM   H14G12616   0.587   5.811   9.161  1.2391  0.4119 -2.3273
  119OSM   C15F12617   0.503   5.629   9.071  0.2920 -0.5533 -0.0969
  119OSM   H15F12618   0.402   5.653   9.111  0.1132 -0.2127 -0.7390
  119OSM   H15G12619   0.496   5.518   9.080  2.3981 -0.9468 -2.3338
  119OSM   C16F12620   0.509   5.663   8.923 -0.7255  0.7227  0.0424
  119OSM   H16F12621   0.453   5.590   8.859  0.9065 -1.2180  0.7185
  119OSM   H16G12622   0.613   5.645   8.890 -1.3005  2.2000 -2.9748
  119OSM   C17F12623   0.479   5.808   8.880  0.4248 -0.5169 -0.0636
  119OSM   H17F12624   0.572   5.864   8.902 -1.5040  2.5937  0.8796
  119OSM   H17G12625   0.395   5.844   8.943  0.7579  0.1909 -0.0053
  119OSM   C18F12626   0.454   5.830   8.725 -0.5788  0.5585 -0.4339
  119OSM   H18F12627   0.544   5.794   8.670  0.6559  1.9858  0.5367
  119OSM   H18G12628   0.428   5.931   8.687 -1.3449  0.5296 -0.0008
  119OSM   H18H12629   0.368   5.765   8.701 -0.6297  0.4054  0.1432
  120OSM      N12630   6.198   3.550  10.859  0.0669  0.4172  0.3763
  120OSM    C1512631   6.181   3.656  10.961  0.2181 -0.5713  0.3306
  120OSM   H15A12632   6.113   3.630  11.041  0.5636 -2.3149  0.0833
  120OSM   H15B12633   6.160   3.748  10.909  2.1212 -1.5229 -2.3527
  120OSM   H15C12634   6.279   3.666  11.006  0.1789 -1.6123  0.6610
  120OSM    C1412635   6.268   3.433  10.918 -0.3970 -0.6580 -0.7220
  120OSM   H14A12636   6.214   3.376  10.992  0.9071  0.5035  1.1757
  120OSM   H14B12637   6.361   3.459  10.966 -0.7574 -0.0467 -0.3465
  120OSM   H14C12638   6.282   3.362  10.837  0.9104  0.0824 -1.1799
  120OSM    C1312639   6.054   3.515  10.825 -0.1590  0.8389 -0.2629
  120OSM   H13A12640   5.996   3.487  10.912 -0.5806  0.9157 -0.5151
  120OSM   H13B12641   6.054   3.432  10.756  2.8121  0.1705  0.4110
  120OSM   H13C12642   6.001   3.603  10.792  0.1314  0.3627 -2.0934
  120OSM    C1212643   6.270   3.606  10.734 -0.1938 -0.0993 -0.0286
  120OSM   H12A12644   6.367   3.641  10.765  0.9408 -0.0251 -3.3149
  120OSM   H12B12645   6.222   3.698  10.706 -0.4510 -0.4671 -0.8206
  120OSM    C1112646   6.289   3.511  10.612  0.5314  0.1276 -0.4223
  120OSM   H11A12647   6.335   3.583  10.541 -3.6479  1.9491 -1.5589
  120OSM   H11B12648   6.185   3.493  10.577  0.5615 -0.3532 -0.2682
  120OSM      P12649   6.522   3.401  10.639  0.2231  0.3253 -0.1257
  120OSM    O1312650   6.568   3.530  10.699 -0.5335 -0.9439  0.6475
  120OSM    O1412651   6.564   3.277  10.703 -0.0921 -0.0770 -0.2276
  120OSM    O1112652   6.554   3.392  10.485  0.1578  0.2208  0.1714
  120OSM    O1212653   6.363   3.400  10.651  0.5720  0.0069  0.5198
  120OSM    C1S12654   6.691   3.382  10.444  0.0471 -0.4291 -0.2146
  120OSM    H1S12655   6.717   3.276  10.430  1.8919  0.0475 -0.5613
  120OSM    H1T12656   6.760   3.429  10.518 -0.3122  0.4988 -0.4450
  120OSM     NF12657   6.858   3.426  10.274  0.1617  0.1691 -0.6082
  120OSM    HNF12658   6.922   3.500  10.295 -0.3453  0.1986  1.0297
  120OSM    C2S12659   6.724   3.449  10.318 -0.3315 -0.5040  0.3256
  120OSM    H2S12660   6.650   3.413  10.243 -1.4084  1.9789  0.0799
  120OSM    C3S12661   6.682   3.609  10.324 -0.8171  0.5190  0.2938
  120OSM    H3S12662   6.755   3.652  10.396 -0.3516 -3.1230  2.2158
  120OSM     O312663   6.560   3.650  10.372  0.4566  0.9381 -0.0084
  120OSM    HO312664   6.527   3.578  10.427  1.2262  1.3089  0.9628
  120OSM    C4S12665   6.704   3.673  10.188 -0.0386  0.5876 -0.1397
  120OSM    H4S12666   6.776   3.756  10.189 -0.0987  0.7220 -2.1532
  120OSM    C5S12667   6.654   3.648  10.067 -0.4104 -0.4806 -0.4062
  120OSM    H5S12668   6.574   3.574  10.054 -0.0735 -0.5804 -2.0227
  120OSM    C6S12669   6.697   3.727   9.945 -0.8568 -0.3451  0.0018
  120OSM    H6S12670   6.712   3.831   9.981  0.7287 -0.1616 -1.1142
  120OSM    H6T12671   6.623   3.734   9.862 -1.3928 -0.7316  0.4359
  120OSM    C7S12672   6.834   3.685   9.891 -0.3287 -0.6350  0.1124
  120OSM    H7S12673   6.838   3.575   9.874 -2.9082 -0.5396 -1.6967
  120OSM    H7T12674   6.918   3.711   9.959  0.9722  0.5115 -1.8310
  120OSM    C8S12675   6.869   3.760   9.760  0.3791 -0.6064 -0.5266
  120OSM    H8S12676   6.975   3.741   9.735  0.7227  2.6520 -2.1213
  120OSM    H8T12677   6.852   3.867   9.785  1.0083 -0.8251  0.9512
  120OSM    C9S12678   6.787   3.704   9.641  0.2030  0.4046 -0.0546
  120OSM    H9S12679   6.682   3.692   9.675 -0.0418  0.5454 -0.7451
  120OSM    H9T12680   6.826   3.603   9.613 -0.3741  1.0092 -3.4656
  120OSM   C10S12681   6.811   3.792   9.517 -0.1489 -0.1990 -0.0641
  120OSM   H10S12682   6.919   3.786   9.492  0.0158  0.6241  0.4231
  120OSM   H10T12683   6.796   3.896   9.553 -1.6691  0.1852 -1.6625
  120OSM   C11S12684   6.714   3.749   9.409  0.6358 -0.8758  0.3765
  120OSM   H11S12685   6.613   3.740   9.453 -0.4485 -1.0408 -1.9599
  120OSM   H11T12686   6.744   3.649   9.370  0.6513  0.0662 -2.2341
  120OSM   C12S12687   6.726   3.831   9.277  0.7166 -0.1931  0.3949
  120OSM   H12S12688   6.833   3.854   9.260  0.6336 -0.9243 -1.3474
  120OSM   H12T12689   6.676   3.930   9.288 -0.1256 -0.6743  1.0377
  120OSM   C13S12690   6.678   3.765   9.146 -0.2884 -0.6565 -0.6811
  120OSM   H13S12691   6.570   3.740   9.159 -0.0868 -0.4222  1.7375
  120OSM   H13T12692   6.731   3.667   9.145  0.3680 -0.3182  0.2143
  120OSM   C14S12693   6.715   3.837   9.019  0.6248 -0.3546  0.5078
  120OSM   H14S12694   6.823   3.863   9.029  0.8242 -1.2207  0.6565
  120OSM   H14T12695   6.653   3.929   9.012  2.2128  0.7396  0.1966
  120OSM   C15S12696   6.708   3.769   8.879  0.4394  0.2513 -0.3861
  120OSM   H15S12697   6.599   3.756   8.865 -0.3334  3.1006  2.0782
  120OSM   H15T12698   6.753   3.667   8.878 -0.3675 -0.1132 -1.4402
  120OSM   C16S12699   6.763   3.852   8.758 -0.3524  0.3560 -0.2100
  120OSM   H16S12700   6.872   3.834   8.767 -0.5686 -0.5863  0.7457
  120OSM   H16T12701   6.735   3.959   8.760  0.5955  0.6096  0.5119
  120OSM   C17S12702   6.724   3.787   8.621  0.2149  0.0904  0.3126
  120OSM   H17S12703   6.617   3.809   8.601 -0.8068 -3.6671  0.6933
  120OSM   H17T12704   6.743   3.677   8.624  0.0093 -0.0113 -1.4541
  120OSM   C18S12705   6.809   3.844   8.506 -0.5220  0.3096 -0.3960
  120OSM   H18S12706   6.824   3.951   8.530 -1.3634  0.0898  1.2695
  120OSM   H18T12707   6.754   3.838   8.409  2.3391 -0.1389 -2.0967
  120OSM   H18U12708   6.904   3.787   8.507  0.2469  1.4732 -2.0891
  120OSM    C1F12709   6.893   3.310  10.212 -0.0887 -0.0896 -0.5604
  120OSM     OF12710   6.806   3.234  10.176  0.0626  0.4035 -0.1783
  120OSM    C2F12711   7.041   3.282  10.187  0.5973  0.1615 -0.9142
  120OSM    H2F12712   7.031   3.173  10.169 -2.5363  0.3722 -1.0392
  120OSM    H2G12713   7.090   3.295  10.286  0.7228 -0.3213 -0.9095
  120OSM    C3F12714   7.101   3.360  10.068  0.1062 -0.1792  0.5611
  120OSM    H3F12715   7.203   3.316  10.059  1.1649  2.4532 -1.3170
  120OSM    H3G12716   7.120   3.466  10.096  0.9174  0.1660 -1.1911
  120OSM    C4F12717   7.021   3.344   9.939  0.2916 -0.4244 -0.2325
  120OSM    H4F12718   6.935   3.414   9.934 -0.5011 -1.4556 -1.8772
  120OSM    H4G12719   6.975   3.243   9.939  0.2779 -0.4266  0.6184
  120OSM    C5F12720   7.112   3.361   9.814  0.9124 -0.6430 -0.3626
  120OSM    H5F12721   7.188   3.282   9.828  2.0333  0.5679  0.6724
  120OSM    H5G12722   7.165   3.459   9.816 -0.5329  0.2153  2.8203
  120OSM    C6F12723   7.029   3.344   9.686 -0.5022 -0.1011 -0.0507
  120OSM    H6F12724   6.975   3.439   9.667  0.5433  0.9944  2.1556
  120OSM    H6G12725   6.959   3.258   9.694  1.3405 -1.5847  1.1811
  120OSM    C7F12726   7.120   3.321   9.554  1.1642  0.3920 -0.2067
  120OSM    H7F12727   7.192   3.240   9.582  1.2245  0.1913 -0.9248
  120OSM    H7G12728   7.185   3.409   9.534  1.0898  0.5582  0.2548
  120OSM    C8F12729   7.036   3.271   9.447 -0.1373  0.6359  0.0890
  120OSM    H8F12730   6.969   3.356   9.420  1.7274  2.2875  0.4698
  120OSM    H8G12731   6.966   3.193   9.485  0.2024  0.9529  1.4085
  120OSM    C9F12732   7.116   3.221   9.329 -0.7225 -0.2209 -0.0976
  120OSM    H9F12733   7.213   3.176   9.355 -0.2770  0.3943 -0.6701
  120OSM   C10F12734   7.088   3.245   9.196 -0.3285 -0.1529 -0.7525
  120OSM   H10F12735   7.153   3.216   9.112 -2.7912 -1.4156 -2.3349
  120OSM   C11F12736   6.962   3.309   9.146  0.0190 -0.3008 -0.6455
  120OSM   H11F12737   6.991   3.413   9.119  1.9983 -0.4092  0.8424
  120OSM   H11G12738   6.884   3.310   9.225  1.0771  0.9982  0.4512
  120OSM   C12F12739   6.905   3.251   9.023  0.4435  1.2030  0.2940
  120OSM   H12F12740   6.892   3.141   9.028  2.4913  0.8710 -0.5058
  120OSM   H12G12741   6.975   3.262   8.937 -1.1069 -0.6748 -1.3048
  120OSM   C13F12742   6.792   3.327   8.963 -0.1802  0.0341 -0.0431
  120OSM   H13F12743   6.826   3.425   8.923  1.7894  0.1366  1.6982
  120OSM   H13G12744   6.725   3.364   9.044 -0.8293 -0.9573 -0.1061
  120OSM   C14F12745   6.718   3.252   8.857 -0.0158  0.0590 -0.3369
  120OSM   H14F12746   6.623   3.301   8.827 -0.2751 -0.7924 -0.9480
  120OSM   H14G12747   6.679   3.153   8.890 -0.6506  0.7802  1.1411
  120OSM   C15F12748   6.786   3.240   8.717 -0.3307 -0.0941  0.1990
  120OSM   H15F12749   6.726   3.181   8.645 -1.3468  0.0276  0.9204
  120OSM   H15G12750   6.881   3.182   8.712 -0.4787 -0.4598  1.2145
  120OSM   C16F12751   6.817   3.380   8.654  0.0889 -0.1149 -0.0844
  120OSM   H16F12752   6.906   3.429   8.699 -0.1115  2.8472 -2.4984
  120OSM   H16G12753   6.728   3.441   8.681 -1.7999 -2.5530 -0.4063
  120OSM   C17F12754   6.851   3.375   8.501  0.2168  0.2496 -0.2600
  120OSM   H17F12755   6.835   3.472   8.451 -1.0612  0.3583  0.3300
  120OSM   H17G12756   6.785   3.304   8.446 -0.6989  1.3436 -0.6192
  120OSM   C18F12757   6.994   3.323   8.485 -0.5824  0.1597 -0.2036
  120OSM   H18F12758   7.054   3.403   8.533  0.6988 -0.8576 -0.0410
  120OSM   H18G12759   7.021   3.314   8.378  1.1753 -3.2288  0.3781
  120OSM   H18H12760   7.018   3.229   8.539  0.0861 -0.0396 -0.8333
  121OSM      N12761   5.055   0.276  10.933  0.0440  0.2174  0.4837
  121OSM    C1512762   5.055   0.416  10.997  0.3000  0.0290 -0.7882
  121OSM   H15A12763   5.075   0.485  10.917  1.5381  0.9109  0.2283
  121OSM   H15B12764   5.133   0.415  11.072  0.1166 -1.4195 -0.5811
  121OSM   H15C12765   4.972   0.442  11.061  2.5112  0.6088  2.0885
  121OSM    C1412766   4.960   0.270  10.821  0.2022 -0.7034 -0.0460
  121OSM   H14A12767   4.876   0.333  10.844  1.5015  1.9130 -1.8438
  121OSM   H14B12768   4.929   0.172  10.789  1.6448 -0.8638 -1.0719
  121OSM   H14C12769   5.007   0.308  10.731 -0.6824 -2.0678 -1.1198
  121OSM    C1312770   5.192   0.249  10.879  0.2029 -0.0198 -0.3785
  121OSM   H13A12771   5.265   0.223  10.955 -0.8977 -2.3130 -0.0037
  121OSM   H13B12772   5.223   0.335  10.823 -1.4612  1.4701  0.8469
  121OSM   H13C12773   5.196   0.158  10.821  1.4432 -0.4989  0.4348
  121OSM    C1212774   5.022   0.170  11.041 -0.2988 -0.1874  0.4289
  121OSM   H12A12775   4.920   0.172  11.077  0.3499 -0.3647  2.4008
  121OSM   H12B12776   5.095   0.173  11.121  0.0024 -1.4594  0.2228
  121OSM    C1112777   5.036   0.021  10.990 -0.7052  0.0670 -0.1902
  121OSM   H11A12778   5.136  -0.004  10.950 -1.0872 -1.7341 -0.0736
  121OSM   H11B12779   4.962   0.008  10.908  0.3597 -0.5486 -1.0710
  121OSM      P12780   5.098  -0.127  11.189 -0.3567  0.0772  0.0336
  121OSM    O1312781   5.183  -0.017  11.235  0.2493 -0.1305  0.0101
  121OSM    O1412782   5.016  -0.200  11.291 -0.1728  0.7887  0.0053
  121OSM    O1112783   5.174  -0.225  11.087  0.0038 -0.5420 -0.3450
  121OSM    O1212784   4.993  -0.060  11.096 -0.7171 -0.2289 -0.1966
  121OSM    C1S12785   5.110  -0.334  11.019 -0.1987  0.0153  0.5066
  121OSM    H1S12786   4.999  -0.329  11.025 -0.2518  1.1523 -0.7047
  121OSM    H1T12787   5.145  -0.429  11.063  0.6437  0.6509  1.2472
  121OSM     NF12788   5.068  -0.405  10.769  0.2212 -0.0867  0.4453
  121OSM    HNF12789   5.108  -0.480  10.717 -1.7752 -0.6488 -0.3604
  121OSM    C2S12790   5.151  -0.330  10.860 -0.3508 -0.7035 -0.0831
  121OSM    H2S12791   5.151  -0.221  10.835  1.1425  0.1516  3.1502
  121OSM    C3S12792   5.302  -0.370  10.851  0.2367 -0.2805  0.1999
  121OSM    H3S12793   5.316  -0.474  10.889 -0.3726  0.3400  2.2547
  121OSM     O312794   5.374  -0.282  10.942 -0.5824 -0.1156  0.2650
  121OSM    HO312795   5.301  -0.245  10.991 -0.5271  1.0955 -0.5287
  121OSM    C4S12796   5.355  -0.355  10.713 -0.2860  0.8088  0.1911
  121OSM    H4S12797   5.342  -0.253  10.676 -0.9787  1.2813  1.6637
  121OSM    C5S12798   5.419  -0.453  10.639  0.1841 -0.4802 -0.5233
  121OSM    H5S12799   5.444  -0.550  10.684  3.5785  1.0539  1.2682
  121OSM    C6S12800   5.471  -0.434  10.503 -0.7059 -0.0027  0.6829
  121OSM    H6S12801   5.571  -0.484  10.503 -1.1786 -1.0351  2.4925
  121OSM    H6T12802   5.471  -0.327  10.475  2.6140 -0.3975 -1.4116
  121OSM    C7S12803   5.400  -0.514  10.388  0.1676  0.5743 -0.6103
  121OSM    H7S12804   5.296  -0.475  10.385 -0.5013 -1.1903 -1.7716
  121OSM    H7T12805   5.380  -0.615  10.430  0.4476  1.1426  0.9570
  121OSM    C8S12806   5.486  -0.510  10.259  0.0972  0.4620  0.0700
  121OSM    H8S12807   5.586  -0.557  10.272  0.6219  1.6058  0.2867
  121OSM    H8T12808   5.507  -0.405  10.229  1.9135  1.0028  2.8321
  121OSM    C9S12809   5.426  -0.590  10.152 -0.1267  0.1388 -0.1472
  121OSM    H9S12810   5.319  -0.561  10.164 -0.1600 -0.2030  0.4051
  121OSM    H9T12811   5.432  -0.696  10.184  0.3763  0.1755 -0.1127
  121OSM   C10S12812   5.489  -0.571  10.015 -0.4240 -0.2974 -0.1213
  121OSM   H10S12813   5.591  -0.614  10.026 -0.9704 -2.2933 -2.1953
  121OSM   H10T12814   5.495  -0.463   9.990  0.6724 -0.4222 -0.4332
  121OSM   C11S12815   5.435  -0.652   9.895  0.0199  0.0563 -0.3397
  121OSM   H11S12816   5.327  -0.625   9.898 -0.3527 -1.3669  0.0853
  121OSM   H11T12817   5.432  -0.760   9.924 -0.7382  0.5838  1.7389
  121OSM   C12S12818   5.496  -0.626   9.758 -0.5451 -0.6271 -0.0252
  121OSM   H12S12819   5.606  -0.638   9.748 -0.3785  1.8769 -2.1404
  121OSM   H12T12820   5.478  -0.520   9.729  0.9880 -0.5915 -0.9605
  121OSM   C13S12821   5.445  -0.714   9.641  0.6834 -0.6588 -0.4043
  121OSM   H13S12822   5.337  -0.710   9.616  1.1688  2.7057 -2.7677
  121OSM   H13T12823   5.463  -0.817   9.677 -0.4206 -0.6427  0.2166
  121OSM   C14S12824   5.516  -0.686   9.502 -0.4269 -1.0048  0.0106
  121OSM   H14S12825   5.623  -0.713   9.513  0.4139  2.3485  1.3706
  121OSM   H14T12826   5.509  -0.576   9.487 -1.4615 -0.8079  1.6796
  121OSM   C15S12827   5.437  -0.758   9.386  0.1692 -0.4923 -0.4208
  121OSM   H15S12828   5.330  -0.728   9.385  0.1496 -0.4264  1.1264
  121OSM   H15T12829   5.454  -0.866   9.404 -0.3076 -0.1447  2.6268
  121OSM   C16S12830   5.488  -0.725   9.241 -0.9870 -0.5643  0.3293
  121OSM   H16S12831   5.592  -0.763   9.234 -2.2116 -4.1137 -0.7567
  121OSM   H16T12832   5.486  -0.615   9.225  3.0306 -0.2273  1.0963
  121OSM   C17S12833   5.388  -0.779   9.138 -0.0105 -0.0561  0.2572
  121OSM   H17S12834   5.293  -0.722   9.148 -1.0208 -1.5073 -0.7234
  121OSM   H17T12835   5.375  -0.888   9.152 -2.3494  0.0528 -0.5798
  121OSM   C18S12836   5.425  -0.756   8.990  0.5869 -0.4795  0.4672
  121OSM   H18S12837   5.404  -0.652   8.960  1.0093 -0.6711 -0.5224
  121OSM   H18T12838   5.375  -0.837   8.933 -1.1834 -0.3626  1.7482
  121OSM   H18U12839   5.535  -0.774   8.989  0.8691  1.0086  1.5201
  121OSM    C1F12840   4.938  -0.376  10.733 -0.6496  0.2412 -0.3971
  121OSM     OF12841   4.880  -0.282  10.787 -0.7485  0.7537  0.0644
  121OSM    C2F12842   4.873  -0.465  10.632  0.3648 -0.9728  1.1078
  121OSM    H2F12843   4.780  -0.493  10.685  1.1510 -0.7389  2.6576
  121OSM    H2G12844   4.943  -0.551  10.626  0.5834 -0.7212 -0.2910
  121OSM    C3F12845   4.845  -0.390  10.496  0.6592  0.4927 -0.0488
  121OSM    H3F12846   4.934  -0.411  10.433  0.4921 -0.1850 -0.0655
  121OSM    H3G12847   4.824  -0.282  10.512  2.1418  0.5959  1.4884
  121OSM    C4F12848   4.725  -0.457  10.422 -0.6526 -0.1399 -0.3396
  121OSM    H4F12849   4.627  -0.430  10.467 -0.8772  0.6120 -1.2441
  121OSM    H4G12850   4.721  -0.568  10.423  0.0376 -0.1892  1.7933
  121OSM    C5F12851   4.729  -0.414  10.277  0.1059  0.0297  0.5959
  121OSM    H5F12852   4.819  -0.450  10.222 -2.2866 -1.1116 -2.9655
  121OSM    H5G12853   4.725  -0.304  10.261 -1.1327 -0.3542 -2.5960
  121OSM    C6F12854   4.607  -0.479  10.203 -0.0109 -0.2362 -0.9504
  121OSM    H6F12855   4.524  -0.478  10.277  0.7471  2.5903 -0.0204
  121OSM    H6G12856   4.639  -0.584  10.183 -0.1069 -0.5459  0.4435
  121OSM    C7F12857   4.574  -0.403  10.068 -0.1666  0.6384  0.1237
  121OSM    H7F12858   4.554  -0.297  10.094 -1.8332  0.8416 -1.7362
  121OSM    H7G12859   4.485  -0.450  10.021 -0.8072  1.4363  0.5030
  121OSM    C8F12860   4.689  -0.411   9.954 -0.1952  0.1731 -0.1469
  121OSM    H8F12861   4.691  -0.515   9.916  0.4945  0.8286 -2.0007
  121OSM    H8G12862   4.790  -0.393   9.995 -0.7901  0.9391  1.0602
  121OSM    C9F12863   4.677  -0.320   9.836  0.3079 -0.6178 -0.3303
  121OSM    H9F12864   4.643  -0.223   9.876  1.8989  0.7008 -1.9964
  121OSM   C10F12865   4.683  -0.340   9.698  0.1840  0.4534 -0.8925
  121OSM   H10F12866   4.662  -0.257   9.628  1.1560  1.5938  0.1237
  121OSM   C11F12867   4.718  -0.472   9.631  0.2708 -0.5059  0.5055
  121OSM   H11F12868   4.625  -0.521   9.593  0.0584  1.7089 -2.1329
  121OSM   H11G12869   4.759  -0.540   9.709 -0.5291  0.9594  2.3004
  121OSM   C12F12870   4.819  -0.440   9.515  0.2964  0.4735  0.3875
  121OSM   H12F12871   4.832  -0.543   9.476 -0.9611  0.4314  0.0325
  121OSM   H12G12872   4.920  -0.414   9.553  0.2227  0.5985  0.5008
  121OSM   C13F12873   4.776  -0.345   9.397 -0.2271  0.2070 -0.6641
  121OSM   H13F12874   4.794  -0.243   9.437 -0.6128  0.2917 -0.7042
  121OSM   H13G12875   4.665  -0.351   9.394 -0.2776  1.3741 -1.4760
  121OSM   C14F12876   4.838  -0.358   9.264 -0.3224  0.3606 -0.2126
  121OSM   H14F12877   4.813  -0.457   9.222  0.3108  0.2925 -0.4391
  121OSM   H14G12878   4.946  -0.350   9.288 -0.4497  0.0867  0.4760
  121OSM   C15F12879   4.801  -0.251   9.167  0.5670  0.1401  0.5834
  121OSM   H15F12880   4.832  -0.148   9.197  2.2196 -0.0948 -0.2023
  121OSM   H15G12881   4.692  -0.242   9.147  0.7319 -1.0771 -1.0376
  121OSM   C16F12882   4.852  -0.286   9.026  0.5089 -0.1356  0.7168
  121OSM   H16F12883   4.788  -0.368   8.986 -2.3664  1.7154  1.2543
  121OSM   H16G12884   4.953  -0.333   9.032 -0.1943 -1.6263  1.3734
  121OSM   C17F12885   4.848  -0.163   8.941  0.1050  0.4645 -0.0516
  121OSM   H17F12886   4.926  -0.100   8.989  0.0709  0.5904 -0.1613
  121OSM   H17G12887   4.748  -0.115   8.943  0.3883  1.9164 -5.5147
  121OSM   C18F12888   4.879  -0.188   8.798 -0.0030 -0.1280  0.1873
  121OSM   H18F12889   4.975  -0.241   8.784 -1.0296 -2.1281  0.4010
  121OSM   H18G12890   4.883  -0.090   8.745 -0.3010 -1.0988 -1.7166
  121OSM   H18H12891   4.803  -0.252   8.749  1.3163 -2.0533  0.5213
  122OSM      N12892   6.169   4.455  10.919  0.2491  0.7198 -0.4076
  122OSM    C1512893   6.233   4.440  10.783 -0.0386  0.1576 -0.2086
  122OSM   H15A12894   6.155   4.431  10.708 -0.9914 -2.1829  0.9516
  122OSM   H15B12895   6.292   4.350  10.770 -0.2103  0.1088 -0.7031
  122OSM   H15C12896   6.295   4.525  10.761  0.3496  0.2567  1.1693
  122OSM    C1412897   6.035   4.518  10.906 -0.2357 -0.0542  0.3432
  122OSM   H14A12898   5.990   4.547  11.000  0.6503 -0.7616  1.0034
  122OSM   H14B12899   5.966   4.455  10.851  0.0442  0.0407 -0.1201
  122OSM   H14C12900   6.037   4.603  10.840 -1.8948  0.4827  0.9213
  122OSM    C1312901   6.156   4.304  10.959  0.2782  1.0336 -0.5698
  122OSM   H13A12902   6.114   4.257  10.872  1.0351 -0.7027 -0.0365
  122OSM   H13B12903   6.093   4.298  11.047 -0.7518 -0.5667 -1.3739
  122OSM   H13C12904   6.259   4.276  10.978  0.4582  2.7486  1.3810
  122OSM    C1212905   6.251   4.524  11.025 -0.1180  0.6218 -0.0491
  122OSM   H12A12906   6.339   4.466  11.049 -0.4392  0.3390  0.4701
  122OSM   H12B12907   6.188   4.532  11.112 -0.4126  1.9090 -0.3615
  122OSM    C1112908   6.295   4.672  10.990 -0.7894 -1.2223  0.1533
  122OSM   H11A12909   6.342   4.729  11.073 -1.5318 -0.0827 -0.1837
  122OSM   H11B12910   6.218   4.744  10.955  1.4622  0.9632 -0.5882
  122OSM      P12911   6.538   4.652  10.905 -0.2128  0.0529 -0.1745
  122OSM    O1312912   6.586   4.764  10.989  0.6448  0.1614 -0.4822
  122OSM    O1412913   6.547   4.516  10.964  0.7659 -0.6680 -0.5654
  122OSM    O1112914   6.599   4.656  10.764  0.2110 -0.3304 -0.3569
  122OSM    O1212915   6.385   4.684  10.878  0.2764 -0.4079 -0.3452
  122OSM    C1S12916   6.592   4.764  10.673  0.1325  0.3383 -0.5227
  122OSM    H1S12917   6.681   4.826  10.698  1.1446 -1.1085 -0.3799
  122OSM    H1T12918   6.506   4.829  10.699  0.6882  0.0968  2.2975
  122OSM     NF12919   6.607   4.856  10.438 -0.6097  0.2817  0.0011
  122OSM    HNF12920   6.539   4.873  10.367  1.5270 -0.0362 -2.2584
  122OSM    C2S12921   6.590   4.736  10.519 -0.1180  0.1250 -0.2258
  122OSM    H2S12922   6.670   4.662  10.502  1.2267  1.6905 -1.0718
  122OSM    C3S12923   6.458   4.664  10.483 -0.3997 -0.0989  0.4593
  122OSM    H3S12924   6.380   4.743  10.473 -0.0150  0.1846 -0.4999
  122OSM     O312925   6.407   4.565  10.574 -0.3286  0.2448 -0.8103
  122OSM    HO312926   6.457   4.588  10.653  0.7561  2.9415 -2.1654
  122OSM    C4S12927   6.481   4.603  10.344  0.2578  0.9669 -0.8498
  122OSM    H4S12928   6.439   4.655  10.257 -2.5467 -0.9219 -0.7629
  122OSM    C5S12929   6.541   4.485  10.328  0.5429  0.1063 -0.2739
  122OSM    H5S12930   6.592   4.430  10.408  2.8039 -0.0308 -1.7152
  122OSM    C6S12931   6.567   4.416  10.202 -0.3974  0.2407 -0.5541
  122OSM    H6S12932   6.501   4.327  10.192  1.8390 -1.4438 -1.1226
  122OSM    H6T12933   6.674   4.385  10.199 -0.5805 -0.4013 -0.7015
  122OSM    C7S12934   6.545   4.491  10.073  0.5996  0.2046 -0.1916
  122OSM    H7S12935   6.597   4.588  10.089 -1.2418  1.1072  0.5457
  122OSM    H7T12936   6.438   4.517  10.064  0.3076 -0.2939  1.4894
  122OSM    C8S12937   6.594   4.417   9.949  0.7578 -0.0709 -0.0315
  122OSM    H8S12938   6.559   4.312   9.952  0.9665 -0.1377  0.1527
  122OSM    H8T12939   6.705   4.417   9.938  0.8579  0.0712  0.8416
  122OSM    C9S12940   6.537   4.468   9.818 -0.1499  0.3181  0.4414
  122OSM    H9S12941   6.605   4.552   9.794 -1.5553  1.5444  0.5951
  122OSM    H9T12942   6.435   4.508   9.834 -0.0117  1.4591 -1.2203
  122OSM   C10S12943   6.537   4.360   9.703 -0.3463 -0.2285  0.8730
  122OSM   H10S12944   6.451   4.295   9.730  0.3956 -1.0973  1.2136
  122OSM   H10T12945   6.622   4.288   9.704 -0.5571 -0.5004 -0.0507
  122OSM   C11S12946   6.518   4.420   9.563  0.3422 -0.0718  0.0425
  122OSM   H11S12947   6.598   4.489   9.530 -0.1250 -0.0555 -1.1103
  122OSM   H11T12948   6.421   4.474   9.562  0.5423  0.2996  0.5004
  122OSM   C12S12949   6.511   4.306   9.454  0.1325  0.3701 -0.6289
  122OSM   H12S12950   6.419   4.247   9.476  0.9539 -2.2026 -3.3572
  122OSM   H12T12951   6.595   4.237   9.477 -0.4917  0.1179  1.0469
  122OSM   C13S12952   6.525   4.348   9.307  0.2567 -0.7480 -0.7150
  122OSM   H13S12953   6.559   4.260   9.248  0.5987 -0.2571 -1.2613
  122OSM   H13T12954   6.604   4.424   9.290  0.0083  0.3916  2.4539
  122OSM   C14S12955   6.397   4.420   9.260  0.2143 -0.2493 -0.7249
  122OSM   H14S12956   6.385   4.511   9.323  0.3883 -1.2567  0.8472
  122OSM   H14T12957   6.305   4.360   9.281 -1.3541  2.2811  0.0745
  122OSM   C15S12958   6.391   4.453   9.117 -0.5140 -0.1336  0.1930
  122OSM   H15S12959   6.405   4.359   9.058  1.8037  1.9469 -2.9353
  122OSM   H15T12960   6.475   4.511   9.072 -1.3697 -0.4655 -1.9582
  122OSM   C16S12961   6.262   4.525   9.080  0.4135 -0.1160  0.8414
  122OSM   H16S12962   6.246   4.611   9.149  2.7493 -0.2088  1.5807
  122OSM   H16T12963   6.184   4.452   9.109  0.2410 -0.9856 -1.5974
  122OSM   C17S12964   6.262   4.564   8.930 -0.7429  0.4746 -0.0658
  122OSM   H17S12965   6.270   4.477   8.861  2.0340  1.2352 -0.8404
  122OSM   H17T12966   6.347   4.634   8.911  0.1036 -0.6435 -0.4899
  122OSM   C18S12967   6.129   4.631   8.893 -0.1996 -0.2733 -0.5718
  122OSM   H18S12968   6.047   4.556   8.893 -2.0173  1.5919  1.4683
  122OSM   H18T12969   6.132   4.662   8.786  1.3491 -1.2488 -0.8572
  122OSM   H18U12970   6.116   4.714   8.965  0.9990 -0.8845  0.3950
  122OSM    C1F12971   6.708   4.939  10.455 -0.1836 -0.2300  0.1388
  122OSM     OF12972   6.807   4.904  10.518 -0.0175  0.3017  0.4613
  122OSM    C2F12973   6.704   5.077  10.390  0.6481 -0.4645  0.6083
  122OSM    H2F12974   6.741   5.149  10.466  0.2293  0.7131 -0.2810
  122OSM    H2G12975   6.601   5.101  10.357 -0.2878  0.1752  3.6518
  122OSM    C3F12976   6.807   5.070  10.274  0.0328 -0.0002 -0.2914
  122OSM    H3F12977   6.777   4.988  10.205 -2.5718 -0.0632  0.8213
  122OSM    H3G12978   6.913   5.058  10.306  0.7209  1.8593 -1.6740
  122OSM    C4F12979   6.817   5.200  10.191  0.3430  0.5166  0.1423
  122OSM    H4F12980   6.871   5.268  10.261  0.9047 -1.3013  1.5777
  122OSM    H4G12981   6.718   5.246  10.170 -0.8899 -2.0224  0.1020
  122OSM    C5F12982   6.891   5.184  10.064 -0.3071  0.4192  0.0747
  122OSM    H5F12983   6.849   5.101  10.003  2.3352  0.0525 -1.4004
  122OSM    H5G12984   6.996   5.157  10.087 -0.7465 -1.6052 -0.1293
  122OSM    C6F12985   6.884   5.311   9.967  0.4918 -0.6376 -0.2196
  122OSM    H6F12986   6.924   5.399  10.022  0.7914  0.4490 -2.0663
  122OSM    H6G12987   6.781   5.340   9.935  0.5860  1.2377  1.0346
  122OSM    C7F12988   6.967   5.290   9.835  0.0094  0.8975 -0.7799
  122OSM    H7F12989   6.901   5.240   9.760 -0.6372  0.8553 -0.1972
  122OSM    H7G12990   7.054   5.227   9.861  0.0645  1.2223 -0.1551
  122OSM    C8F12991   7.013   5.422   9.759  0.7199 -0.7010  0.1636
  122OSM    H8F12992   7.049   5.502   9.828 -3.5176  2.7801 -1.2074
  122OSM    H8G12993   6.923   5.474   9.720 -0.3033 -1.7444  1.0338
  122OSM    C9F12994   7.111   5.384   9.650  0.2648  0.2605 -0.7793
  122OSM    H9F12995   7.210   5.369   9.696 -1.1362 -1.0157  2.0513
  122OSM   C10F12996   7.083   5.367   9.519 -0.4968 -0.0713  0.0510
  122OSM   H10F12997   7.164   5.336   9.452  0.6536 -0.1978  1.4633
  122OSM   C11F12998   6.942   5.374   9.453  0.1413  0.2153 -0.7110
  122OSM   H11F12999   6.940   5.451   9.373 -0.8768  0.0393 -0.8692
  122OSM   H11G13000   6.859   5.387   9.526 -0.9739 -0.8034 -1.7332
  122OSM   C12F13001   6.913   5.243   9.373  0.4162  0.1702 -0.5107
  122OSM   H12F13002   6.806   5.246   9.343  0.1985  0.1362  0.2643
  122OSM   H12G13003   6.941   5.154   9.432  1.9088  1.0074  0.1028
  122OSM   C13F13004   6.993   5.235   9.242  0.1193  0.2559 -0.6061
  122OSM   H13F13005   7.103   5.244   9.254  0.1683  1.2048 -1.5494
  122OSM   H13G13006   6.952   5.318   9.180 -1.4043  1.4336  1.8140
  122OSM   C14F13007   6.975   5.104   9.163 -0.6956 -0.4292 -0.2517
  122OSM   H14F13008   6.869   5.072   9.153 -0.8806 -0.0002  0.2690
  122OSM   H14G13009   7.023   5.029   9.229 -1.3022 -0.2754  0.3756
  122OSM   C15F13010   7.049   5.106   9.026  0.3770  0.5430 -0.0613
  122OSM   H15F13011   7.055   5.002   8.986  0.6462  1.4057 -2.4251
  122OSM   H15G13012   7.152   5.147   9.028  0.5968  0.0092 -0.2718
  122OSM   C16F13013   6.971   5.179   8.917 -0.1158  0.0337 -0.1793
  122OSM   H16F13014   6.958   5.281   8.959  2.3363 -0.8749  3.2255
  122OSM   H16G13015   6.871   5.136   8.896  0.5187 -1.0219 -1.1506
  122OSM   C17F13016   7.035   5.186   8.775 -0.1026  0.9345 -0.0775
  122OSM   H17F13017   6.970   5.239   8.702 -1.2275 -1.0739 -0.6260
  122OSM   H17G13018   7.040   5.079   8.743 -1.0735  0.7397  0.3838
  122OSM   C18F13019   7.171   5.247   8.773 -0.6890  0.4172 -0.1487
  122OSM   H18F13020   7.248   5.178   8.813 -1.2595  0.3437  0.8719
  122OSM   H18G13021   7.176   5.336   8.840 -0.0244 -0.5453  1.1432
  122OSM   H18H13022   7.201   5.280   8.672 -3.5585 -0.6330 -1.4462
  123OSM      N13023   6.087   3.587   6.359 -0.6673  0.8205  0.9178
  123OSM    C1513024   6.007   3.517   6.467 -0.2549 -1.0522  0.4260
  123OSM   H15A13025   6.048   3.540   6.564  1.3306  1.2795 -0.6944
  123OSM   H15B13026   5.999   3.412   6.444  1.1400 -0.9777 -0.5376
  123OSM   H15C13027   5.912   3.568   6.459  0.2844 -0.3598 -3.5694
  123OSM    C1413028   6.220   3.513   6.346 -0.4340 -0.5123 -0.0768
  123OSM   H14A13029   6.258   3.505   6.447 -2.0044  0.0471  0.5968
  123OSM   H14B13030   6.288   3.569   6.283 -0.4347  1.0724  1.2424
  123OSM   H14C13031   6.201   3.410   6.320  0.1487 -0.3254 -1.3005
  123OSM    C1313032   6.018   3.568   6.225 -0.0342 -0.8403 -0.0064
  123OSM   H13A13033   5.918   3.608   6.228  0.5009  0.5563 -0.1300
  123OSM   H13B13034   6.011   3.467   6.189 -2.5109 -1.2813  1.4616
  123OSM   H13C13035   6.054   3.619   6.137  1.0535 -2.0340 -0.2876
  123OSM    C1213036   6.102   3.734   6.399  0.6882  0.3810  0.6545
  123OSM   H12A13037   6.145   3.728   6.498  0.6840 -0.4321  0.6122
  123OSM   H12B13038   6.002   3.767   6.426  1.0720  0.8831  1.4835
  123OSM    C1113039   6.183   3.821   6.311 -0.6055 -0.1051 -0.1162
  123OSM   H11A13040   6.276   3.770   6.277 -0.2507  0.5376 -0.1339
  123OSM   H11B13041   6.227   3.906   6.367  0.8124  0.8124 -2.4268
  123OSM      P13042   6.042   4.008   6.198 -0.0019  0.4477  0.1915
  123OSM    O1313043   6.136   4.097   6.122  0.1674  0.2584 -0.5791
  123OSM    O1413044   5.905   3.987   6.140 -0.0901 -0.4193  0.2505
  123OSM    O1113045   6.042   4.042   6.362 -0.4287  0.1573 -0.1122
  123OSM    O1213046   6.110   3.864   6.201 -0.5000  0.3386 -0.2256
  123OSM    C1S13047   5.921   4.049   6.429 -0.1318  0.4116  0.3778
  123OSM    H1S13048   5.878   3.946   6.426  2.3029 -0.6377 -1.3573
  123OSM    H1T13049   5.864   4.124   6.370 -0.4695  0.7414  1.1060
  123OSM     NF13050   5.802   4.132   6.606  0.0118 -0.1674 -0.7522
  123OSM    HNF13051   5.780   4.229   6.614 -0.7537 -0.3316 -0.8115
  123OSM    C2S13052   5.941   4.103   6.565 -0.1055  0.0248  0.5507
  123OSM    H2S13053   5.976   4.019   6.627  0.5066  0.4126  0.7400
  123OSM    C3S13054   6.049   4.216   6.580  0.3998 -0.5583 -0.6735
  123OSM    H3S13055   6.003   4.301   6.524 -0.3483 -0.9764 -0.7090
  123OSM     O313056   6.173   4.185   6.516 -0.3119 -0.6515 -0.2955
  123OSM    HO313057   6.147   4.114   6.457 -1.0584 -0.1298 -0.6107
  123OSM    C4S13058   6.052   4.248   6.728 -0.6410 -0.0095 -0.3566
  123OSM    H4S13059   5.972   4.320   6.751 -0.3772  0.7664 -1.7454
  123OSM    C5S13060   6.143   4.209   6.817  0.6900  0.0494  0.7568
  123OSM    H5S13061   6.234   4.160   6.779 -1.0431 -0.5199 -3.1410
  123OSM    C6S13062   6.130   4.243   6.964  1.2021 -0.5666 -0.2079
  123OSM    H6S13063   6.111   4.153   7.026  3.3113  0.6188  2.3616
  123OSM    H6T13064   6.046   4.315   6.972  1.8463  0.2093 -0.3011
  123OSM    C7S13065   6.248   4.319   7.024 -0.4852  0.2814 -0.6186
  123OSM    H7S13066   6.268   4.409   6.963  0.0899  1.6475  1.4927
  123OSM    H7T13067   6.335   4.251   7.032 -0.9051 -0.2071 -0.0887
  123OSM    C8S13068   6.223   4.356   7.176  0.4003 -0.5860  0.4644
  123OSM    H8S13069   6.133   4.421   7.185 -1.0658 -2.8001  2.8342
  123OSM    H8T13070   6.306   4.419   7.215  0.7424 -0.2275 -0.7929
  123OSM    C9S13071   6.214   4.232   7.268 -0.2025 -0.4194 -0.1628
  123OSM    H9S13072   6.307   4.173   7.285  0.6793 -0.0290 -3.0417
  123OSM    H9T13073   6.157   4.158   7.207 -1.9220  0.9068 -0.2210
  123OSM   C10S13074   6.158   4.268   7.401  0.3856  0.1618  0.1959
  123OSM   H10S13075   6.108   4.174   7.434  1.2959 -0.7116 -0.8528
  123OSM   H10T13076   6.085   4.351   7.388 -2.5829 -2.4566 -1.4152
  123OSM   C11S13077   6.267   4.308   7.504  0.2618 -0.2183  0.6493
  123OSM   H11S13078   6.342   4.371   7.451 -0.9956  0.9999  0.2388
  123OSM   H11T13079   6.329   4.217   7.517 -1.9031 -1.8813 -0.0389
  123OSM   C12S13080   6.234   4.377   7.639 -0.5569 -0.3900 -0.5357
  123OSM   H12S13081   6.161   4.315   7.694 -0.4675  1.5548  1.9383
  123OSM   H12T13082   6.182   4.472   7.614 -0.7213 -1.1389 -3.3976
  123OSM   C13S13083   6.360   4.398   7.732 -0.5435  0.7544  0.0917
  123OSM   H13S13084   6.443   4.435   7.667  1.3613 -2.3066  0.5816
  123OSM   H13T13085   6.383   4.307   7.790 -1.8521  0.4273  0.1308
  123OSM   C14S13086   6.356   4.513   7.833 -0.5865 -0.1486  0.3596
  123OSM   H14S13087   6.316   4.608   7.793  0.1917 -0.4572 -1.2442
  123OSM   H14T13088   6.462   4.538   7.854 -0.2653  0.2175 -1.4801
  123OSM   C15S13089   6.280   4.482   7.964 -0.0297 -0.1354  0.4463
  123OSM   H15S13090   6.302   4.380   8.003  1.1309  0.8791  2.6212
  123OSM   H15T13091   6.169   4.484   7.959 -0.1408 -3.2560 -3.6254
  123OSM   C16S13092   6.319   4.577   8.086  0.5498  0.5451  0.3806
  123OSM   H16S13093   6.303   4.683   8.058 -1.6737  0.3275  0.6586
  123OSM   H16T13094   6.429   4.567   8.102  0.7738  1.3981 -0.5333
  123OSM   C17S13095   6.255   4.543   8.217 -0.2573 -0.9921 -0.6982
  123OSM   H17S13096   6.252   4.433   8.234  0.3449 -0.9254 -0.1261
  123OSM   H17T13097   6.152   4.585   8.210  0.3481  0.7042  0.1931
  123OSM   C18S13098   6.325   4.610   8.339 -0.4543 -0.3507  0.2462
  123OSM   H18S13099   6.257   4.608   8.426 -0.8330 -1.9237 -0.0515
  123OSM   H18T13100   6.354   4.715   8.316  2.5040 -0.6703  1.9825
  123OSM   H18U13101   6.423   4.561   8.356 -0.1690  0.3319  0.5889
  123OSM    C1F13102   5.721   4.029   6.632 -0.1751  0.1586  0.4119
  123OSM     OF13103   5.758   3.914   6.640 -0.2680 -0.2167  0.4741
  123OSM    C2F13104   5.572   4.052   6.656  0.6471  0.9052 -0.8559
  123OSM    H2F13105   5.518   4.041   6.559 -0.4773  0.2280 -0.1723
  123OSM    H2G13106   5.560   4.161   6.675 -0.2390  0.5464  0.8259
  123OSM    C3F13107   5.505   3.970   6.771 -0.4259  0.2300 -0.1339
  123OSM    H3F13108   5.500   3.861   6.749  0.9478 -0.6045  3.0095
  123OSM    H3G13109   5.405   4.018   6.780 -0.6722 -0.3930  0.6157
  123OSM    C4F13110   5.577   3.987   6.908  0.3649  0.9954 -0.6735
  123OSM    H4F13111   5.583   4.095   6.932  0.2001  1.3520 -2.1450
  123OSM    H4G13112   5.683   3.953   6.897 -0.3353 -1.4306 -0.3732
  123OSM    C5F13113   5.510   3.904   7.022  0.0840 -0.8370 -0.2424
  123OSM    H5F13114   5.519   3.795   7.003 -0.0997 -1.0370  0.7971
  123OSM    H5G13115   5.402   3.931   7.015  0.5946  1.0208 -1.8440
  123OSM    C6F13116   5.572   3.919   7.157 -0.0932 -0.8576 -0.4336
  123OSM    H6F13117   5.560   4.023   7.194 -1.2644 -1.2397  0.3386
  123OSM    H6G13118   5.682   3.901   7.151  0.0111  0.2419 -3.7054
  123OSM    C7F13119   5.506   3.818   7.262  0.7537 -0.0618 -0.2018
  123OSM    H7F13120   5.516   3.717   7.218  0.7293 -0.3656  0.4831
  123OSM    H7G13121   5.400   3.849   7.261  1.2404  1.7466 -0.8202
  123OSM    C8F13122   5.564   3.820   7.401  0.0477 -0.8021 -0.6957
  123OSM    H8F13123   5.569   3.927   7.430 -2.1365 -1.1101  1.1329
  123OSM    H8G13124   5.666   3.779   7.394  0.2794 -0.7418  1.6072
  123OSM    C9F13125   5.493   3.741   7.507  0.6894 -0.2448  0.0291
  123OSM    H9F13126   5.397   3.702   7.471  1.3659 -1.6665 -0.2859
  123OSM   C10F13127   5.526   3.705   7.630  0.0379 -0.1529  0.0812
  123OSM   H10F13128   5.449   3.653   7.689 -2.9251  1.4817 -2.0686
  123OSM   C11F13129   5.654   3.747   7.703 -0.1979  0.5130 -0.0528
  123OSM   H11F13130   5.713   3.804   7.628 -1.5558 -0.0300 -1.6255
  123OSM   H11G13131   5.715   3.661   7.737 -0.9504  0.1798  0.4915
  123OSM   C12F13132   5.635   3.837   7.831  0.4539  0.2208 -0.3531
  123OSM   H12F13133   5.562   3.919   7.814  0.8211  0.8074  0.8163
  123OSM   H12G13134   5.732   3.890   7.843  0.1320  0.8544 -0.4685
  123OSM   C13F13135   5.598   3.752   7.959 -0.0267  0.5514 -0.0639
  123OSM   H13F13136   5.687   3.693   7.990 -0.2950 -0.7396 -1.6136
  123OSM   H13G13137   5.518   3.686   7.918 -0.6134  1.1436  0.1150
  123OSM   C14F13138   5.545   3.842   8.072 -0.3532  0.0780 -0.0917
  123OSM   H14F13139   5.442   3.872   8.047 -0.7682 -1.0226  0.2260
  123OSM   H14G13140   5.618   3.925   8.076 -0.2822  0.0912 -1.2509
  123OSM   C15F13141   5.538   3.763   8.205 -0.3924 -0.2906  0.3656
  123OSM   H15F13142   5.641   3.745   8.241  0.3668  0.2631 -1.4357
  123OSM   H15G13143   5.487   3.669   8.174 -0.8044  0.6205 -1.8913
  123OSM   C16F13144   5.462   3.838   8.303 -0.1838 -0.0995 -0.4954
  123OSM   H16F13145   5.354   3.842   8.276 -0.0852  1.4539 -0.7444
  123OSM   H16G13146   5.487   3.946   8.309 -0.8195  0.0797 -0.9751
  123OSM   C17F13147   5.463   3.782   8.448 -0.7394 -0.4010  0.1780
  123OSM   H17F13148   5.563   3.806   8.491 -0.8711  2.5213 -0.8685
  123OSM   H17G13149   5.457   3.672   8.445  1.9084 -0.6080  0.0784
  123OSM   C18F13150   5.360   3.844   8.541  0.5594 -0.0650 -0.0418
  123OSM   H18F13151   5.378   3.953   8.536  3.4823 -0.5073 -1.9617
  123OSM   H18G13152   5.374   3.800   8.642  0.7368  0.1749  0.0397
  123OSM   H18H13153   5.258   3.810   8.514  1.4440 -2.8846 -0.1934
  124OSM      N13154   0.788   1.631   6.198 -0.0198  0.2221 -0.7813
  124OSM    C1513155   0.731   1.495   6.151 -0.0146 -0.2116 -0.1952
  124OSM   H15A13156   0.631   1.497   6.191  0.8325  0.2231  2.0585
  124OSM   H15B13157   0.778   1.406   6.193 -0.5016 -0.7160 -0.7091
  124OSM   H15C13158   0.714   1.488   6.045  0.3361  1.6578 -0.4025
  124OSM    C1413159   0.778   1.635   6.347 -0.2154  0.0309 -0.6607
  124OSM   H14A13160   0.821   1.725   6.388  3.0038 -1.8530  0.5134
  124OSM   H14B13161   0.824   1.551   6.398  0.6891  1.0317  0.2374
  124OSM   H14C13162   0.677   1.621   6.381  0.4480  2.6902  3.0608
  124OSM    C1313163   0.929   1.636   6.152  0.4436  0.3518 -0.6054
  124OSM   H13A13164   0.980   1.545   6.179 -0.4344  0.1070  0.3116
  124OSM   H13B13165   0.988   1.718   6.187 -0.7145  0.1997  1.9601
  124OSM   H13C13166   0.928   1.644   6.044 -0.8541  1.7164 -0.5278
  124OSM    C1213167   0.699   1.742   6.134 -0.6713  0.1257 -0.2645
  124OSM   H12A13168   0.724   1.751   6.030  0.0917  2.0601  0.0411
  124OSM   H12B13169   0.730   1.829   6.190 -0.2880  0.4431 -0.9570
  124OSM    C1113170   0.549   1.733   6.149  0.6035  0.0609 -0.4652
  124OSM   H11A13171   0.504   1.638   6.114  1.1599 -1.2084  2.0111
  124OSM   H11B13172   0.511   1.813   6.081 -2.3144 -1.7159 -1.1065
  124OSM      P13173   0.500   1.902   6.341 -0.2698  0.1023 -0.0918
  124OSM    O1313174   0.637   1.951   6.374 -0.1328  0.1226 -0.4504
  124OSM    O1413175   0.411   1.973   6.249  0.1060 -0.0199  0.1418
  124OSM    O1113176   0.442   1.896   6.484 -0.4613  0.0076 -0.3031
  124OSM    O1213177   0.502   1.756   6.281 -0.6173  0.4549 -0.2572
  124OSM    C1S13178   0.467   1.783   6.573  0.1127 -0.6164 -0.0651
  124OSM    H1S13179   0.569   1.744   6.554  0.3064 -0.7631  1.1772
  124OSM    H1T13180   0.395   1.699   6.558 -0.4096  0.1073 -1.9023
  124OSM     NF13181   0.498   1.718   6.803  0.1711 -0.4825  0.6447
  124OSM    HNF13182   0.425   1.658   6.836 -1.9542  1.0130 -1.0037
  124OSM    C2S13183   0.451   1.824   6.725 -0.4958 -0.0319  0.4058
  124OSM    H2S13184   0.495   1.923   6.748  0.0271  0.0133 -0.6863
  124OSM    C3S13185   0.295   1.865   6.729 -1.2931  0.4103 -0.3147
  124OSM    H3S13186   0.234   1.773   6.713 -0.0276 -0.8442  1.5611
  124OSM     O313187   0.247   1.964   6.637  0.2991 -0.5052 -0.0719
  124OSM    HO313188   0.318   1.969   6.572  0.5886 -0.1103  0.2717
  124OSM    C4S13189   0.263   1.903   6.872 -0.0067  0.3002 -0.6649
  124OSM    H4S13190   0.216   1.820   6.927  0.4467 -0.7270 -1.7912
  124OSM    C5S13191   0.282   2.017   6.932 -0.1442 -0.1991 -0.0773
  124OSM    H5S13192   0.315   2.104   6.872 -1.3563  0.5036  0.2321
  124OSM    C6S13193   0.254   2.051   7.077 -0.7908  0.3286  0.7798
  124OSM    H6S13194   0.151   2.091   7.067  1.0287  5.2153 -1.9706
  124OSM    H6T13195   0.332   2.121   7.114 -0.5612  1.3900 -1.5401
  124OSM    C7S13196   0.260   1.935   7.167  0.8151  1.2807  0.1728
  124OSM    H7S13197   0.360   1.887   7.172 -0.5279 -1.8123  0.1005
  124OSM    H7T13198   0.186   1.855   7.141  0.6979  0.9400  1.4610
  124OSM    C8S13199   0.219   1.965   7.309 -0.6934 -0.7786  0.7866
  124OSM    H8S13200   0.109   1.980   7.304 -0.3965  1.4718 -0.0891
  124OSM    H8T13201   0.267   2.064   7.327  0.3992 -0.7262 -1.9912
  124OSM    C9S13202   0.252   1.853   7.411  0.2554 -0.2064 -0.9498
  124OSM    H9S13203   0.357   1.864   7.444  0.2234  2.2504 -1.4555
  124OSM    H9T13204   0.243   1.756   7.358 -0.5380  0.2535 -1.6850
  124OSM   C10S13205   0.166   1.863   7.536 -0.4138 -0.1203 -0.6488
  124OSM   H10S13206   0.062   1.831   7.513 -0.9327 -0.3147  1.7415
  124OSM   H10T13207   0.155   1.970   7.563 -2.4290  0.1533 -2.3288
  124OSM   C11S13208   0.231   1.789   7.658 -0.2573 -0.4987 -0.5178
  124OSM   H11S13209   0.339   1.816   7.667 -0.4202 -0.3604  1.2583
  124OSM   H11T13210   0.226   1.682   7.628  2.0280 -1.0043  0.6282
  124OSM   C12S13211   0.153   1.802   7.790 -0.0544 -0.2610  0.0483
  124OSM   H12S13212   0.048   1.766   7.782 -0.2553  0.5195 -1.1316
  124OSM   H12T13213   0.149   1.907   7.825 -1.6586  0.4478 -2.0739
  124OSM   C13S13214   0.210   1.717   7.902 -0.2803  0.4254  0.8133
  124OSM   H13S13215   0.317   1.742   7.894 -0.4522  0.8422 -0.3374
  124OSM   H13T13216   0.194   1.608   7.883 -4.8868  0.7608  1.5798
  124OSM   C14S13217   0.161   1.744   8.048 -0.2310 -0.1464 -0.1587
  124OSM   H14S13218   0.057   1.709   8.065 -0.5369  1.8204  2.7839
  124OSM   H14T13219   0.165   1.851   8.077  0.2438 -0.8797  2.8934
  124OSM   C15S13220   0.242   1.686   8.158 -0.6297  0.2303  0.0326
  124OSM   H15S13221   0.337   1.740   8.177 -0.8199  0.1894  1.1827
  124OSM   H15T13222   0.258   1.584   8.117 -0.4446  0.8256 -1.4395
  124OSM   C16S13223   0.169   1.679   8.289  0.5582  0.3897 -0.0076
  124OSM   H16S13224   0.073   1.625   8.274  1.0554 -0.7713  0.8143
  124OSM   H16T13225   0.152   1.787   8.307  0.5374  0.2670  0.7686
  124OSM   C17S13226   0.257   1.622   8.403  0.0382 -0.0457 -0.8141
  124OSM   H17S13227   0.213   1.669   8.494 -1.0971  0.1019 -1.4219
  124OSM   H17T13228   0.358   1.664   8.380  0.2283  1.3389  2.0606
  124OSM   C18S13229   0.248   1.465   8.423 -0.3610 -0.0884  0.4063
  124OSM   H18S13230   0.322   1.412   8.361  2.3490  3.3325  0.4075
  124OSM   H18T13231   0.154   1.423   8.381 -0.6917  0.0099  1.0350
  124OSM   H18U13232   0.242   1.440   8.531  0.5762  0.6903  0.6546
  124OSM    C1F13233   0.624   1.681   6.812 -0.1060  0.3769  0.1792
  124OSM     OF13234   0.709   1.760   6.767  0.1068 -0.3097  0.2085
  124OSM    C2F13235   0.663   1.554   6.870  0.1226 -0.0066  0.4523
  124OSM    H2F13236   0.656   1.474   6.794 -1.7450 -0.0839  0.6666
  124OSM    H2G13237   0.591   1.525   6.950 -0.4225  3.3236  1.3250
  124OSM    C3F13238   0.804   1.560   6.939 -0.4435 -0.2693 -0.6591
  124OSM    H3F13239   0.794   1.640   7.016  1.1766 -0.2059 -0.4825
  124OSM    H3G13240   0.886   1.599   6.876 -0.7018  0.9757 -0.2420
  124OSM    C4F13241   0.838   1.433   7.018 -0.4474  0.1715  0.7842
  124OSM    H4F13242   0.843   1.346   6.949  3.1248  0.4376  0.4891
  124OSM    H4G13243   0.771   1.403   7.100  0.0629 -0.8456  0.8403
  124OSM    C5F13244   0.985   1.436   7.077 -0.4401 -0.1585 -0.6869
  124OSM    H5F13245   0.992   1.532   7.133  0.4385 -1.1957  1.0778
  124OSM    H5G13246   1.063   1.435   6.998  0.7984  0.7982  0.4675
  124OSM    C6F13247   1.018   1.341   7.191  0.4166 -0.3113 -0.6230
  124OSM    H6F13248   1.118   1.378   7.222 -0.3032 -0.0503  1.5066
  124OSM    H6G13249   1.026   1.234   7.161 -0.5764 -0.7313  0.5369
  124OSM    C7F13250   0.919   1.343   7.320  0.0978  0.0640 -0.8809
  124OSM    H7F13251   0.820   1.294   7.311  0.4118 -1.0407  0.9824
  124OSM    H7G13252   0.901   1.452   7.329  2.7510  0.5476 -0.6957
  124OSM    C8F13253   0.991   1.299   7.452 -0.1656  0.1451  0.4999
  124OSM    H8F13254   1.097   1.334   7.453 -0.2103  0.3212 -0.1221
  124OSM    H8G13255   0.989   1.188   7.454 -2.3363  0.1011 -0.8403
  124OSM    C9F13256   0.923   1.339   7.577  0.2411 -0.0046 -0.4466
  124OSM    H9F13257   0.847   1.416   7.560  0.7992  0.5897 -0.2527
  124OSM   C10F13258   0.965   1.316   7.709 -1.2271 -0.1205  0.2891
  124OSM   H10F13259   0.913   1.356   7.797  0.7383  0.6557  1.1497
  124OSM   C11F13260   1.085   1.225   7.750  0.3238  1.0810 -0.3147
  124OSM   H11F13261   1.169   1.286   7.792  1.9102 -0.7335 -0.7404
  124OSM   H11G13262   1.120   1.147   7.679  0.9680 -1.9184  2.9950
  124OSM   C12F13263   1.037   1.129   7.868 -0.1970 -0.3598  0.1589
  124OSM   H12F13264   1.111   1.046   7.876  0.4205  0.1230 -0.3986
  124OSM   H12G13265   0.940   1.088   7.832 -0.8229  0.8086  0.4562
  124OSM   C13F13266   1.026   1.200   8.007 -0.0290  0.6162 -1.0232
  124OSM   H13F13267   0.949   1.280   7.999 -0.2172  0.6643  0.7709
  124OSM   H13G13268   1.129   1.240   8.015  0.8740 -1.7838  0.7953
  124OSM   C14F13269   0.988   1.101   8.118 -0.4321 -0.1731  0.2193
  124OSM   H14F13270   1.073   1.031   8.132  0.4988  1.2523  2.4191
  124OSM   H14G13271   0.900   1.038   8.096  0.2969 -1.2840  0.4291
  124OSM   C15F13272   0.949   1.166   8.250 -0.1436  0.6674 -0.6644
  124OSM   H15F13273   0.852   1.215   8.228 -0.1777 -0.2028 -2.7332
  124OSM   H15G13274   1.027   1.239   8.281  0.7063 -0.1832 -0.7613
  124OSM   C16F13275   0.945   1.054   8.358 -0.1995  0.5834 -0.5126
  124OSM   H16F13276   0.962   1.097   8.460  1.9814 -0.8033 -0.2329
  124OSM   H16G13277   1.027   0.980   8.347 -0.1576  0.4587  0.5285
  124OSM   C17F13278   0.808   0.982   8.362 -0.3592 -0.2545 -0.4361
  124OSM   H17F13279   0.798   0.936   8.261  1.8437  1.3385 -1.4822
  124OSM   H17G13280   0.729   1.057   8.381  0.0465 -0.0168  0.3649
  124OSM   C18F13281   0.795   0.872   8.463  0.3772 -0.4913  0.3656
  124OSM   H18F13282   0.817   0.898   8.568  0.0318  1.2143  0.0397
  124OSM   H18G13283   0.864   0.789   8.435 -1.4746 -1.5350 -1.4937
  124OSM   H18H13284   0.694   0.824   8.454 -0.0232  0.6315 -1.9343
  125OSM      N13285   6.643   1.816   6.464  0.9654  0.0024  0.2392
  125OSM    C1513286   6.516   1.740   6.486  0.1034 -0.2325 -0.4000
  125OSM   H15A13287   6.438   1.808   6.515  0.5639  0.6789 -1.2213
  125OSM   H15B13288   6.519   1.674   6.572  0.0679 -1.5020 -1.3369
  125OSM   H15C13289   6.483   1.698   6.392  0.5209 -0.7836 -0.3086
  125OSM    C1413290   6.712   1.840   6.592 -0.5800  0.6083 -0.2780
  125OSM   H14A13291   6.730   1.744   6.637  1.6673  1.9292  1.9195
  125OSM   H14B13292   6.646   1.889   6.662  1.0842  1.2848  0.8792
  125OSM   H14C13293   6.801   1.898   6.574 -0.9996  0.8516 -1.6716
  125OSM    C1313294   6.733   1.735   6.380  0.5515 -0.3230  0.8184
  125OSM   H13A13295   6.808   1.799   6.336 -0.2171  1.0994  1.5037
  125OSM   H13B13296   6.684   1.682   6.300  0.0883 -1.9922  2.1429
  125OSM   H13C13297   6.775   1.655   6.441 -0.2728 -0.9910  0.5305
  125OSM    C1213298   6.618   1.954   6.391  0.2844  0.2241  0.1946
  125OSM   H12A13299   6.565   1.916   6.304 -0.2953 -0.3384  0.7869
  125OSM   H12B13300   6.710   1.988   6.346  0.9656 -0.7496  0.8362
  125OSM    C1113301   6.543   2.068   6.459 -0.0818 -0.2038  0.1198
  125OSM   H11A13302   6.542   2.160   6.397 -2.9435  1.3369  2.2179
  125OSM   H11B13303   6.592   2.093   6.556 -0.4266  0.6599  0.0822
  125OSM      P13304   6.296   2.019   6.379  0.2232  0.2031  0.5763
  125OSM    O1313305   6.349   2.048   6.243  0.2491  0.6259 -0.2659
  125OSM    O1413306   6.224   1.898   6.392  0.6073  0.2862  0.1072
  125OSM    O1113307   6.200   2.135   6.406  0.3845 -0.2812 -0.3101
  125OSM    O1213308   6.406   2.024   6.488  0.2686  0.1502 -0.0013
  125OSM    C1S13309   6.182   2.193   6.536  0.6766  0.1340 -0.4820
  125OSM    H1S13310   6.167   2.120   6.618  0.6611 -0.0388 -0.6370
  125OSM    H1T13311   6.080   2.238   6.535  1.0810  1.0806 -1.6783
  125OSM     NF13312   6.266   2.365   6.707 -0.1753 -0.1488  0.0527
  125OSM    HNF13313   6.246   2.462   6.718 -0.7359 -0.3392  0.7873
  125OSM    C2S13314   6.283   2.306   6.569  0.2251 -0.0544 -0.1432
  125OSM    H2S13315   6.384   2.261   6.580 -0.0175 -0.4576  0.4977
  125OSM    C3S13316   6.298   2.412   6.448 -0.0097  0.3056  0.2967
  125OSM    H3S13317   6.211   2.478   6.427 -0.4200 -0.2233  0.3219
  125OSM     O313318   6.331   2.360   6.321  0.2096 -0.1103 -0.1571
  125OSM    HO313319   6.310   2.267   6.332 -0.1080 -0.2709 -1.7823
  125OSM    C4S13320   6.412   2.502   6.488  0.1233 -0.1983 -0.1781
  125OSM    H4S13321   6.511   2.464   6.515  0.0901 -1.7016 -1.9873
  125OSM    C5S13322   6.403   2.635   6.524 -0.4072 -0.0434  0.1888
  125OSM    H5S13323   6.310   2.692   6.508  0.0001 -0.0108 -2.5767
  125OSM    C6S13324   6.531   2.697   6.578 -0.1430  0.0591  0.3888
  125OSM    H6S13325   6.567   2.787   6.524 -0.1393  0.2814  0.7632
  125OSM    H6T13326   6.615   2.626   6.564 -0.9364 -0.7776 -0.2695
  125OSM    C7S13327   6.512   2.730   6.725 -0.3733 -0.2826  0.6516
  125OSM    H7S13328   6.495   2.639   6.786 -1.1699 -2.2092 -2.2501
  125OSM    H7T13329   6.426   2.800   6.726  0.7614  1.1731  1.6834
  125OSM    C8S13330   6.646   2.783   6.780  0.7421 -1.0845 -0.1403
  125OSM    H8S13331   6.684   2.858   6.707 -0.2256  1.1828  1.5739
  125OSM    H8T13332   6.724   2.704   6.786  1.2321 -0.6527 -0.5988
  125OSM    C9S13333   6.639   2.861   6.912  0.2269  0.8984  0.3560
  125OSM    H9S13334   6.580   2.955   6.905  1.8430  1.8283 -1.9743
  125OSM    H9T13335   6.745   2.887   6.933  0.5554 -0.2101  0.1390
  125OSM   C10S13336   6.578   2.785   7.033  0.4954  0.2044 -0.5268
  125OSM   H10S13337   6.604   2.677   7.031  0.7763  0.0693  3.1750
  125OSM   H10T13338   6.467   2.788   7.020  0.3873 -2.5426 -0.8321
  125OSM   C11S13339   6.615   2.830   7.169 -0.7841 -0.8342 -0.1122
  125OSM   H11S13340   6.587   2.937   7.181  1.5274 -0.1776 -0.0877
  125OSM   H11T13341   6.724   2.847   7.181 -0.7829 -0.8036 -0.1651
  125OSM   C12S13342   6.557   2.752   7.288 -0.8465  0.1030  0.7747
  125OSM   H12S13343   6.592   2.647   7.275  0.1126  0.6803 -2.2326
  125OSM   H12T13344   6.447   2.760   7.290 -0.9039 -0.6833  2.9766
  125OSM   C13S13345   6.613   2.784   7.429  0.0361  0.2021 -0.1676
  125OSM   H13S13346   6.575   2.887   7.443 -3.2244 -0.5224 -2.5521
  125OSM   H13T13347   6.724   2.792   7.425 -0.0433  1.2866 -0.5864
  125OSM   C14S13348   6.569   2.701   7.543  0.0463 -0.5490  0.3048
  125OSM   H14S13349   6.596   2.594   7.534  2.1159 -0.0450  0.0050
  125OSM   H14T13350   6.459   2.709   7.552 -0.1161  1.9951 -2.4248
  125OSM   C15S13351   6.615   2.756   7.679 -0.6172  0.1942  0.6959
  125OSM   H15S13352   6.587   2.863   7.685  2.0709  1.0983 -1.2010
  125OSM   H15T13353   6.726   2.754   7.671 -0.6221  0.9933  0.3908
  125OSM   C16S13354   6.556   2.672   7.793 -0.3949  0.3503  0.2621
  125OSM   H16S13355   6.563   2.563   7.770 -1.0710  0.5536 -0.9824
  125OSM   H16T13356   6.449   2.699   7.796 -0.0259  1.7959  1.2116
  125OSM   C17S13357   6.618   2.710   7.928  0.2712  0.7708 -0.0388
  125OSM   H17S13358   6.584   2.813   7.953  1.6472  1.3427 -0.4037
  125OSM   H17T13359   6.729   2.708   7.916  0.1222  1.5918 -2.0750
  125OSM   C18S13360   6.582   2.623   8.047 -0.0461  0.0281 -0.2586
  125OSM   H18S13361   6.474   2.633   8.067  0.3409  0.8984  1.6388
  125OSM   H18T13362   6.635   2.655   8.140 -2.1388  1.3141  0.5585
  125OSM   H18U13363   6.603   2.518   8.018  1.7750  0.3302 -0.1778
  125OSM    C1F13364   6.273   2.299   6.824  0.5106  0.1139  0.7705
  125OSM     OF13365   6.295   2.182   6.824 -0.0148  0.7001  1.1014
  125OSM    C2F13366   6.270   2.382   6.950  0.4982  0.0067 -0.5931
  125OSM    H2F13367   6.193   2.462   6.941 -0.1592 -0.5503 -0.0184
  125OSM    H2G13368   6.369   2.433   6.949  0.7351 -0.4248  0.1187
  125OSM    C3F13369   6.228   2.303   7.074  0.5259  0.3334 -0.1570
  125OSM    H3F13370   6.307   2.229   7.100  0.6628  0.4342 -0.2885
  125OSM    H3G13371   6.133   2.251   7.051  1.3686 -0.8767 -0.9929
  125OSM    C4F13372   6.185   2.396   7.194  0.0574 -0.3556 -0.2092
  125OSM    H4F13373   6.101   2.456   7.154  0.3699 -0.5116 -1.1401
  125OSM    H4G13374   6.266   2.459   7.236 -2.0772  2.3253  0.1249
  125OSM    C5F13375   6.134   2.311   7.305 -0.5202  0.4846 -0.3943
  125OSM    H5F13376   6.211   2.243   7.348 -0.1239 -0.2400 -2.1520
  125OSM    H5G13377   6.050   2.245   7.273 -0.9340  1.6913 -1.9093
  125OSM    C6F13378   6.085   2.398   7.424 -0.2442 -0.5434  0.2207
  125OSM    H6F13379   5.991   2.448   7.392  1.3608  1.7349 -1.2543
  125OSM    H6G13380   6.167   2.470   7.442 -0.6012  0.3942 -1.6791
  125OSM    C7F13381   6.061   2.321   7.555 -0.3232 -0.9761  0.8466
  125OSM    H7F13382   6.023   2.223   7.520 -0.2616  0.2911 -3.2937
  125OSM    H7G13383   5.992   2.380   7.619  0.3388 -1.1908  1.7827
  125OSM    C8F13384   6.180   2.316   7.648 -0.0311  0.8877  0.3749
  125OSM    H8F13385   6.201   2.418   7.688  0.1048 -0.0005  2.7313
  125OSM    H8G13386   6.260   2.281   7.579 -0.3801 -1.2079  0.9668
  125OSM    C9F13387   6.174   2.212   7.760  0.6814 -0.1010 -0.1263
  125OSM    H9F13388   6.152   2.107   7.738  0.4581  0.5795 -3.9327
  125OSM   C10F13389   6.194   2.244   7.888  0.0354  0.4788  0.0729
  125OSM   H10F13390   6.189   2.166   7.966 -2.3236  0.7185  0.2505
  125OSM   C11F13391   6.232   2.377   7.947 -0.5626 -0.1668 -0.3871
  125OSM   H11F13392   6.308   2.422   7.880  0.9368 -0.9504  0.7073
  125OSM   H11G13393   6.282   2.368   8.046  0.6823 -0.0494 -0.9739
  125OSM   C12F13394   6.115   2.476   7.958 -0.1511  0.1682  0.1077
  125OSM   H12F13395   6.023   2.426   7.993 -0.7748  1.0072 -0.3024
  125OSM   H12G13396   6.107   2.511   7.853 -0.7276  0.7026  0.3278
  125OSM   C13F13397   6.145   2.593   8.058 -0.3775 -0.1255  0.9035
  125OSM   H13F13398   6.093   2.684   8.021  2.1543  0.0708 -2.7607
  125OSM   H13G13399   6.253   2.621   8.064 -0.2277 -0.7938  1.5661
  125OSM   C14F13400   6.113   2.555   8.198  0.7016 -0.1407  0.0605
  125OSM   H14F13401   6.156   2.458   8.230  0.1590  0.0624  1.4461
  125OSM   H14G13402   6.002   2.550   8.200  0.7149 -0.8152 -0.3400
  125OSM   C15F13403   6.159   2.664   8.289  0.3874  0.1252 -0.3860
  125OSM   H15F13404   6.113   2.759   8.253  0.2597  0.9676  1.8223
  125OSM   H15G13405   6.269   2.678   8.295  0.2910  0.6017  0.5187
  125OSM   C16F13406   6.116   2.643   8.436 -0.0723 -0.0230 -0.0190
  125OSM   H16F13407   6.173   2.563   8.487  0.1201 -0.0124 -0.2204
  125OSM   H16G13408   6.009   2.614   8.426 -0.3208  0.1153  1.8669
  125OSM   C17F13409   6.118   2.769   8.525 -0.5932 -0.1341  0.7844
  125OSM   H17F13410   6.045   2.763   8.609 -1.8044 -1.3908 -0.3055
  125OSM   H17G13411   6.096   2.854   8.458  2.5877  0.6763  0.6207
  125OSM   C18F13412   6.247   2.789   8.597 -0.0388 -0.5828 -0.3321
  125OSM   H18F13413   6.238   2.877   8.664  0.6978 -0.0079 -0.9731
  125OSM   H18G13414   6.314   2.822   8.514 -2.3772 -0.6971 -2.4161
  125OSM   H18H13415   6.288   2.700   8.648 -0.6353 -0.2622  0.7256
  126OSM      N13416   3.254   4.395   6.200 -0.9335 -0.3802  0.0813
  126OSM    C1513417   3.294   4.255   6.175 -0.0795  0.3491 -0.6114
  126OSM   H15A13418   3.401   4.245   6.190 -0.3087  1.1474  2.2978
  126OSM   H15B13419   3.258   4.216   6.082 -1.7367 -1.7887  0.8328
  126OSM   H15C13420   3.250   4.189   6.248 -0.8902 -1.6542 -2.8035
  126OSM    C1413421   3.318   4.479   6.092 -0.2960 -0.7478  0.0440
  126OSM   H14A13422   3.277   4.469   5.993  0.3778  1.2820 -0.4889
  126OSM   H14B13423   3.424   4.461   6.097  0.2256  1.6944 -0.9015
  126OSM   H14C13424   3.301   4.581   6.124 -0.3827 -1.2237  1.5950
  126OSM    C1313425   3.105   4.412   6.182  0.4447  0.0557 -0.0969
  126OSM   H13A13426   3.072   4.362   6.092  0.5394 -0.2183  0.0178
  126OSM   H13B13427   3.081   4.517   6.184  1.2185  0.2424 -0.2499
  126OSM   H13C13428   3.055   4.348   6.254  1.8714  0.0427  0.9483
  126OSM    C1213429   3.298   4.441   6.342 -0.0506  0.2421  0.2063
  126OSM   H12A13430   3.265   4.542   6.357  0.9449  0.6867 -0.5028
  126OSM   H12B13431   3.405   4.434   6.353 -0.1192 -1.3630  0.1367
  126OSM    C1113432   3.240   4.357   6.460  0.4780 -0.2815  0.1332
  126OSM   H11A13433   3.129   4.358   6.452  0.5570  0.2179 -1.1940
  126OSM   H11B13434   3.274   4.407   6.553  2.7573 -1.5127  0.0288
  126OSM      P13435   3.421   4.187   6.526  0.3185  0.0616 -0.3823
  126OSM    O1313436   3.444   4.042   6.545  0.4446 -0.2026  0.3546
  126OSM    O1413437   3.532   4.265   6.467 -0.5052  0.7381 -0.9690
  126OSM    O1113438   3.388   4.250   6.670  0.0466 -0.0793  0.4773
  126OSM    O1213439   3.280   4.216   6.447 -0.3233  0.0576  0.4645
  126OSM    C1S13440   3.488   4.335   6.733  0.3298 -0.6646 -0.3881
  126OSM    H1S13441   3.483   4.441   6.701  1.7493  0.1356  1.8082
  126OSM    H1T13442   3.589   4.288   6.724 -0.0153 -1.2955 -1.0531
  126OSM     NF13443   3.555   4.454   6.933  0.3771  0.0115 -0.0586
  126OSM    HNF13444   3.652   4.429   6.941  0.5429 -0.0299 -1.7205
  126OSM    C2S13445   3.470   4.346   6.887  0.2782  0.1362  0.0452
  126OSM    H2S13446   3.367   4.376   6.919  0.3420 -1.0666  1.4748
  126OSM    C3S13447   3.505   4.210   6.947  0.4415  0.1386  0.2457
  126OSM    H3S13448   3.608   4.184   6.916  0.9122  0.8136  1.2143
  126OSM     O313449   3.427   4.104   6.887 -0.4781  0.1572 -0.4491
  126OSM    HO313450   3.389   4.150   6.811 -0.6044 -0.8432 -1.0020
  126OSM    C4S13451   3.488   4.206   7.096  0.4457 -0.1740  0.4013
  126OSM    H4S13452   3.385   4.183   7.129  0.2559  1.5713  1.1935
  126OSM    C5S13453   3.585   4.212   7.197  0.1841 -0.1395  0.3449
  126OSM    H5S13454   3.692   4.216   7.172  0.6736  0.5506  2.3464
  126OSM    C6S13455   3.558   4.201   7.344 -0.3430  0.1687  0.2635
  126OSM    H6S13456   3.653   4.166   7.390  0.0824  0.0876 -0.6724
  126OSM    H6T13457   3.476   4.129   7.363 -1.0875  1.0438  0.4671
  126OSM    C7S13458   3.516   4.335   7.399  0.2180 -1.1251 -0.0984
  126OSM    H7S13459   3.439   4.375   7.330 -0.1328 -2.2289 -0.3690
  126OSM    H7T13460   3.605   4.402   7.394  0.5922 -1.4668  1.4564
  126OSM    C8S13461   3.469   4.326   7.544  0.0538  0.6341 -0.1052
  126OSM    H8S13462   3.394   4.245   7.557 -2.7907  3.0562 -0.2533
  126OSM    H8T13463   3.419   4.424   7.557  1.9458  1.6344 -0.0675
  126OSM    C9S13464   3.584   4.319   7.644 -0.2130 -0.4920 -0.0568
  126OSM    H9S13465   3.653   4.406   7.639 -0.3693 -0.2465  1.5127
  126OSM    H9T13466   3.652   4.233   7.623 -1.3884 -1.3760 -0.3510
  126OSM   C10S13467   3.526   4.303   7.784  0.5374 -0.1853  0.0700
  126OSM   H10S13468   3.478   4.202   7.782  1.9610 -0.8714 -1.2856
  126OSM   H10T13469   3.449   4.380   7.803  0.2379 -0.9945  2.4204
  126OSM   C11S13470   3.630   4.302   7.890  0.3995  0.1940  0.5370
  126OSM   H11S13471   3.672   4.405   7.885 -2.4121  1.3407 -1.7495
  126OSM   H11T13472   3.725   4.244   7.883 -0.3410 -1.0403  0.4500
  126OSM   C12S13473   3.569   4.283   8.034 -0.2123 -0.0075  0.3707
  126OSM   H12S13474   3.515   4.186   8.029 -1.3289  0.5869  0.6787
  126OSM   H12T13475   3.493   4.361   8.054 -0.9057 -1.0098  1.8901
  126OSM   C13S13476   3.670   4.288   8.146  0.1113  0.3666  1.1508
  126OSM   H13S13477   3.756   4.355   8.119 -0.8587  0.2225 -3.0962
  126OSM   H13T13478   3.727   4.193   8.156 -0.1702  0.2076  1.2375
  126OSM   C14S13479   3.604   4.321   8.273  0.7561  0.0159 -1.0787
  126OSM   H14S13480   3.527   4.241   8.280 -0.0488  0.8268 -0.4483
  126OSM   H14T13481   3.556   4.421   8.259  0.2723 -0.2940 -1.6875
  126OSM   C15S13482   3.698   4.343   8.399 -0.3941  0.9447 -0.5095
  126OSM   H15S13483   3.631   4.339   8.487  0.6042 -1.4771  0.2072
  126OSM   H15T13484   3.745   4.444   8.394 -1.5512  1.6040  1.1282
  126OSM   C16S13485   3.804   4.232   8.424 -0.3036 -0.2416  0.3259
  126OSM   H16S13486   3.884   4.235   8.347 -1.5356  0.4587 -0.9575
  126OSM   H16T13487   3.768   4.127   8.419 -0.8335 -0.1644  1.9565
  126OSM   C17S13488   3.869   4.238   8.561 -0.2807  0.6983  0.0607
  126OSM   H17S13489   3.939   4.152   8.565 -0.8430  0.2570  0.4919
  126OSM   H17T13490   3.797   4.225   8.644 -1.6467  0.3004 -1.1391
  126OSM   C18S13491   3.944   4.358   8.598  0.0338  0.1915 -0.2265
  126OSM   H18S13492   4.010   4.391   8.515  2.3689  0.1329  1.4847
  126OSM   H18T13493   4.019   4.348   8.680  0.2914 -0.9034 -0.5733
  126OSM   H18U13494   3.875   4.441   8.620 -1.7172 -0.9927 -1.0124
  126OSM    C1F13495   3.526   4.587   6.919  0.4388 -0.0789  0.0043
  126OSM     OF13496   3.415   4.618   6.884  0.5719 -0.4926 -0.2328
  126OSM    C2F13497   3.636   4.690   6.931  0.8565 -0.0272  0.3750
  126OSM    H2F13498   3.607   4.793   6.961 -1.5399 -1.1289  2.1417
  126OSM    H2G13499   3.677   4.693   6.827  1.5807  0.7185  0.6751
  126OSM    C3F13500   3.751   4.651   7.029 -0.4777  0.0657 -0.5705
  126OSM    H3F13501   3.824   4.735   7.025 -0.3256  0.0463  1.1846
  126OSM    H3G13502   3.795   4.555   6.992 -0.1844 -0.0274  0.0112
  126OSM    C4F13503   3.708   4.645   7.177 -0.0185  0.0295  0.2553
  126OSM    H4F13504   3.781   4.596   7.245  1.6862 -0.5256 -1.8639
  126OSM    H4G13505   3.615   4.584   7.175  0.5722 -1.0260  2.3972
  126OSM    C5F13506   3.684   4.782   7.243  0.2743 -0.0083  0.2961
  126OSM    H5F13507   3.602   4.826   7.184 -2.1855 -4.8463 -0.4041
  126OSM    H5G13508   3.777   4.843   7.233 -0.9586  1.9682  0.4339
  126OSM    C6F13509   3.649   4.787   7.387  0.0619  0.2592 -0.0897
  126OSM    H6F13510   3.659   4.891   7.425  0.4621 -0.4706  1.9268
  126OSM    H6G13511   3.714   4.721   7.448 -2.0594 -1.5369  0.4029
  126OSM    C7F13512   3.499   4.750   7.432 -1.0083 -0.2733  0.5416
  126OSM    H7F13513   3.479   4.641   7.426 -0.6857 -0.2700 -0.9543
  126OSM    H7G13514   3.437   4.803   7.357 -1.7865 -2.1636 -0.2222
  126OSM    C8F13515   3.478   4.794   7.579  0.1305 -0.2417  0.7633
  126OSM    H8F13516   3.369   4.799   7.595 -0.1355  1.0966 -1.0827
  126OSM    H8G13517   3.516   4.896   7.602  0.6145 -1.1016  4.3400
  126OSM    C9F13518   3.536   4.699   7.679 -0.3306  0.3984  0.0204
  126OSM    H9F13519   3.483   4.602   7.677  1.1889 -0.4792  0.6043
  126OSM   C10F13520   3.634   4.720   7.767  0.1833  0.3692  0.2829
  126OSM   H10F13521   3.670   4.623   7.805 -0.7382 -0.0708  0.0614
  126OSM   C11F13522   3.700   4.848   7.794  0.2120 -0.4072  0.3302
  126OSM   H11F13523   3.753   4.888   7.705  1.3229 -0.9993  0.6953
  126OSM   H11G13524   3.785   4.821   7.861  1.1937 -2.2461 -1.5458
  126OSM   C12F13525   3.620   4.947   7.878 -0.3492 -0.0389  0.4563
  126OSM   H12F13526   3.516   4.960   7.840 -1.3486 -1.5406  2.4960
  126OSM   H12G13527   3.676   5.042   7.862  0.5014 -0.3444  1.5304
  126OSM   C13F13528   3.617   4.918   8.029 -0.6700  0.5744 -0.8359
  126OSM   H13F13529   3.719   4.931   8.070 -0.6056  1.3815 -1.2306
  126OSM   H13G13530   3.596   4.811   8.051  2.1920  0.2335  0.6380
  126OSM   C14F13531   3.533   5.016   8.102 -0.1376  0.2611 -0.3170
  126OSM   H14F13532   3.534   5.116   8.054 -0.9717 -0.0709 -1.0427
  126OSM   H14G13533   3.554   5.024   8.211  0.2239  0.8099 -0.4249
  126OSM   C15F13534   3.382   4.974   8.110 -0.3929 -0.5804 -1.0763
  126OSM   H15F13535   3.364   4.881   8.168 -0.5082  0.8991  1.4420
  126OSM   H15G13536   3.350   4.960   8.005 -0.6981  2.5390 -1.5067
  126OSM   C16F13537   3.285   5.071   8.187  0.0685  0.4161  0.5636
  126OSM   H16F13538   3.295   5.174   8.147 -0.8354  1.3953  2.7190
  126OSM   H16G13539   3.324   5.069   8.292 -0.0415 -1.2776  0.5990
  126OSM   C17F13540   3.136   5.025   8.170  0.1060  0.1197  0.7829
  126OSM   H17F13541   3.090   5.082   8.254 -2.1725  1.1092 -1.0093
  126OSM   H17G13542   3.128   4.917   8.194  0.2225 -0.0959 -0.1411
  126OSM   C18F13543   3.058   5.058   8.040 -0.3867  0.0763  0.5293
  126OSM   H18F13544   3.043   5.167   8.030  0.7799  0.1684 -0.4728
  126OSM   H18G13545   2.961   5.005   8.029 -0.7478  1.1359 -1.7900
  126OSM   H18H13546   3.123   5.040   7.952  0.7527  1.6687  1.0003
  127OSM      N13547   5.134   0.994   6.011 -0.8359 -0.0166  0.6435
  127OSM    C1513548   5.221   1.112   6.054  0.0376 -0.3190  0.2844
  127OSM   H15A13549   5.323   1.076   6.048 -0.6891 -2.7265  1.3756
  127OSM   H15B13550   5.211   1.138   6.159 -2.0180  0.7843 -0.1358
  127OSM   H15C13551   5.210   1.197   5.989  0.8380 -0.8272 -0.5390
  127OSM    C1413552   5.145   0.983   5.856 -0.3204  0.8199  0.4683
  127OSM   H14A13553   5.120   1.070   5.797  1.5953 -0.0687 -1.8304
  127OSM   H14B13554   5.076   0.908   5.819 -0.1234  1.9219 -2.4540
  127OSM   H14C13555   5.245   0.962   5.821 -0.8916 -1.3255 -0.0034
  127OSM    C1313556   5.172   0.869   6.071  0.6866  0.0291  0.1383
  127OSM   H13A13557   5.086   0.803   6.078  1.2410 -0.6808  0.3597
  127OSM   H13B13558   5.197   0.882   6.175 -1.1872  1.8928  0.4193
  127OSM   H13C13559   5.255   0.827   6.017 -1.2496  0.2891 -3.3641
  127OSM    C1213560   4.995   1.027   6.060  0.4576  0.1819 -0.1634
  127OSM   H12A13561   4.974   1.018   6.165 -2.6205  0.7618 -0.6273
  127OSM   H12B13562   4.923   0.956   6.023 -1.0077 -0.3682  3.3490
  127OSM    C1113563   4.940   1.168   6.032  0.2091 -0.0978 -1.0423
  127OSM   H11A13564   4.830   1.173   6.044  0.0677 -1.2464 -1.6619
  127OSM   H11B13565   4.970   1.197   5.929  3.8455  0.3524  0.0100
  127OSM      P13566   4.921   1.332   6.240  0.4238  0.0529 -0.5052
  127OSM    O1313567   5.006   1.428   6.312 -0.6430 -0.3907 -0.4054
  127OSM    O1413568   4.784   1.369   6.202 -0.1046 -0.0472  0.2950
  127OSM    O1113569   4.901   1.204   6.340 -0.8141  0.1765 -0.0922
  127OSM    O1213570   4.996   1.266   6.124 -0.9117  0.0228  0.2046
  127OSM    C1S13571   4.981   1.203   6.462 -0.4992 -0.4545 -0.0630
  127OSM    H1S13572   4.956   1.283   6.535 -2.5914 -2.0605  1.1207
  127OSM    H1T13573   5.088   1.211   6.436 -0.2877  0.9495  1.1437
  127OSM     NF13574   5.054   1.064   6.661 -0.0170 -0.1797 -0.3339
  127OSM    HNF13575   5.146   1.026   6.656  0.3768  0.5671  0.7749
  127OSM    C2S13576   4.966   1.062   6.540 -0.0776  0.0851  0.7392
  127OSM    H2S13577   4.863   1.049   6.578 -0.7398 -1.9408 -1.4870
  127OSM    C3S13578   4.985   0.934   6.443 -0.6766 -0.5186  0.1901
  127OSM    H3S13579   5.090   0.942   6.408 -0.9937 -1.3726 -0.9948
  127OSM     O313580   4.889   0.935   6.336  0.6351 -0.3058  0.6234
  127OSM    HO313581   4.857   1.026   6.332  1.0381 -0.1558  0.7780
  127OSM    C4S13582   4.993   0.812   6.527 -0.5664  0.1705 -0.5825
  127OSM    H4S13583   4.897   0.788   6.575 -0.1618  1.2979  0.8254
  127OSM    C5S13584   5.099   0.731   6.543  0.1700  0.2790  0.6910
  127OSM    H5S13585   5.197   0.744   6.494  0.6511 -0.0593  1.5448
  127OSM    C6S13586   5.093   0.616   6.638 -0.0604  0.4159  0.2079
  127OSM    H6S13587   5.168   0.539   6.608 -1.4975  0.1795 -3.2672
  127OSM    H6T13588   4.996   0.563   6.647 -0.1428  0.7945  1.8687
  127OSM    C7S13589   5.132   0.669   6.780  0.3120 -0.1369 -0.0127
  127OSM    H7S13590   5.123   0.589   6.856 -2.1900 -0.5443 -0.6557
  127OSM    H7T13591   5.067   0.750   6.818 -0.9900 -1.6289  1.0610
  127OSM    C8S13592   5.275   0.733   6.782  0.7951 -0.2185  0.1704
  127OSM    H8S13593   5.296   0.809   6.705 -1.5771 -0.8911 -1.2258
  127OSM    H8T13594   5.332   0.644   6.747 -0.1627 -0.7771  0.0112
  127OSM    C9S13595   5.340   0.776   6.919  0.2817 -0.1379  0.9759
  127OSM    H9S13596   5.314   0.878   6.955 -2.0927  0.2741 -1.5918
  127OSM    H9T13597   5.446   0.785   6.889 -0.1803  0.5927 -0.5096
  127OSM   C10S13598   5.310   0.681   7.028  0.1094  0.9646 -0.5065
  127OSM   H10S13599   5.323   0.577   6.991  0.3557  0.6267  0.5188
  127OSM   H10T13600   5.203   0.692   7.057  0.7261  0.9511  1.9658
  127OSM   C11S13601   5.374   0.696   7.166  0.0253  0.4378  0.6142
  127OSM   H11S13602   5.353   0.802   7.191 -1.5022  0.6051 -1.1839
  127OSM   H11T13603   5.483   0.685   7.149 -0.2417  0.6687 -1.5623
  127OSM   C12S13604   5.317   0.594   7.269 -0.4850 -0.4178 -0.1705
  127OSM   H12S13605   5.350   0.492   7.237  2.4679  0.3223  0.1888
  127OSM   H12T13606   5.206   0.592   7.270 -0.5265 -0.3665  2.3405
  127OSM   C13S13607   5.366   0.623   7.419  0.1357  0.3441  0.3050
  127OSM   H13S13608   5.364   0.731   7.446 -1.0246  0.0777  1.3667
  127OSM   H13T13609   5.473   0.600   7.439  0.3089  0.3760 -0.5229
  127OSM   C14S13610   5.275   0.548   7.516 -0.6107  0.0425  0.4554
  127OSM   H14S13611   5.282   0.442   7.483 -0.4719  0.7782 -2.0768
  127OSM   H14T13612   5.168   0.575   7.509 -0.7192 -0.1250  1.4134
  127OSM   C15S13613   5.333   0.549   7.654 -1.1207 -0.6191 -0.0360
  127OSM   H15S13614   5.374   0.650   7.675 -2.3075 -0.1807  0.2436
  127OSM   H15T13615   5.420   0.481   7.664 -0.5170  0.1584  0.0755
  127OSM   C16S13616   5.233   0.497   7.761 -0.2154  0.3757  0.1568
  127OSM   H16S13617   5.222   0.387   7.761 -1.3002  0.4544  1.9295
  127OSM   H16T13618   5.132   0.534   7.733 -1.0991  0.3534  3.0333
  127OSM   C17S13619   5.268   0.536   7.909 -0.7343  0.2808  0.8561
  127OSM   H17S13620   5.262   0.647   7.907  0.2113  0.3820 -2.3101
  127OSM   H17T13621   5.367   0.493   7.933 -1.8372 -3.1835 -0.2480
  127OSM   C18S13622   5.175   0.480   8.014  0.2419  0.3764 -0.4404
  127OSM   H18S13623   5.067   0.504   8.000 -0.3917  0.0030  2.8943
  127OSM   H18T13624   5.208   0.513   8.115  0.7023 -1.1257 -0.0798
  127OSM   H18U13625   5.179   0.369   8.013  0.9085  0.3467  1.4748
  127OSM    C1F13626   5.028   1.142   6.767  0.1840 -0.7143  0.6903
  127OSM     OF13627   4.920   1.200   6.782  0.2024  0.2520  0.0179
  127OSM    C2F13628   5.134   1.142   6.874 -0.0226  0.5750 -0.1092
  127OSM    H2F13629   5.183   1.242   6.871  0.7347  0.2147 -0.1327
  127OSM    H2G13630   5.217   1.069   6.859  0.1555  1.1446 -2.3424
  127OSM    C3F13631   5.075   1.135   7.019  0.2464 -0.2846  0.1525
  127OSM    H3F13632   5.012   1.043   7.019 -2.1636  1.2525  1.0731
  127OSM    H3G13633   5.010   1.220   7.050  0.9158 -0.3482  1.8336
  127OSM    C4F13634   5.193   1.116   7.116  0.1719  1.0116 -0.1837
  127OSM    H4F13635   5.267   1.198   7.113 -1.2724  2.3496 -0.4918
  127OSM    H4G13636   5.240   1.019   7.091  0.9301  1.3192  0.0304
  127OSM    C5F13637   5.130   1.118   7.260 -0.4282  0.2549 -0.0797
  127OSM    H5F13638   5.044   1.049   7.275 -1.0983  1.0886  0.0109
  127OSM    H5G13639   5.081   1.216   7.281 -3.3996 -0.7029 -1.9524
  127OSM    C6F13640   5.241   1.092   7.374 -0.3961 -0.6389 -0.8904
  127OSM    H6F13641   5.323   1.166   7.360 -0.0469 -0.6417  0.8736
  127OSM    H6G13642   5.274   0.990   7.345 -1.0571 -1.3272  0.6292
  127OSM    C7F13643   5.175   1.093   7.510  0.5020  0.6607 -0.4178
  127OSM    H7F13644   5.117   0.998   7.509 -1.9401  2.0166 -3.2473
  127OSM    H7G13645   5.101   1.176   7.513 -1.6416 -1.1525  2.2062
  127OSM    C8F13646   5.272   1.112   7.626  0.1091 -0.1857 -0.6964
  127OSM    H8F13647   5.214   1.156   7.710  2.5095 -0.7550  1.3647
  127OSM    H8G13648   5.351   1.184   7.596  0.0223 -0.0776 -0.6685
  127OSM    C9F13649   5.334   0.991   7.683  0.0255  0.3502  0.3464
  127OSM    H9F13650   5.399   0.956   7.601  1.0837  1.5272  0.6474
  127OSM   C10F13651   5.322   0.931   7.801  0.3434 -0.1726 -0.5195
  127OSM   H10F13652   5.381   0.842   7.828 -1.5975 -1.1338  0.7371
  127OSM   C11F13653   5.236   0.983   7.917  0.2550  0.1632  0.3083
  127OSM   H11F13654   5.132   0.944   7.906  1.3488 -2.8246 -0.3014
  127OSM   H11G13655   5.229   1.093   7.915  0.3558  0.2038  1.6122
  127OSM   C12F13656   5.297   0.960   8.059 -0.6996  0.0806  0.5414
  127OSM   H12F13657   5.235   1.002   8.141 -1.1115 -1.0210  0.8132
  127OSM   H12G13658   5.396   1.011   8.051 -0.6789 -0.2318 -2.3579
  127OSM   C13F13659   5.305   0.816   8.094  0.6518  1.0709  0.0987
  127OSM   H13F13660   5.392   0.764   8.048  1.1170  0.4885  1.5663
  127OSM   H13G13661   5.210   0.780   8.049  1.7652 -0.9192 -0.8074
  127OSM   C14F13662   5.330   0.785   8.242  0.0127  0.0790 -0.4991
  127OSM   H14F13663   5.351   0.678   8.263 -0.9466  0.1729  1.0867
  127OSM   H14G13664   5.245   0.811   8.308  0.6230 -0.3842  0.5043
  127OSM   C15F13665   5.448   0.848   8.300  0.1890 -0.2567 -0.8725
  127OSM   H15F13666   5.426   0.957   8.297  1.7317  0.0831 -3.2259
  127OSM   H15G13667   5.531   0.843   8.226 -0.0977  1.9253 -1.3937
  127OSM   C16F13668   5.500   0.814   8.437 -0.2268  0.2739  0.2852
  127OSM   H16F13669   5.455   0.884   8.510 -2.5156  0.1596 -0.9201
  127OSM   H16G13670   5.608   0.838   8.432  0.3695 -0.9581  4.0518
  127OSM   C17F13671   5.503   0.669   8.477  0.6752  0.5884 -0.0689
  127OSM   H17F13672   5.577   0.617   8.412  0.9356 -0.9894  1.4352
  127OSM   H17G13673   5.400   0.628   8.474  0.5851  0.5978  1.8329
  127OSM   C18F13674   5.543   0.636   8.622 -0.2105 -0.2060  0.5299
  127OSM   H18F13675   5.539   0.525   8.623  0.4401 -0.2482 -0.2965
  127OSM   H18G13676   5.470   0.681   8.693 -0.1192  0.6283  0.1122
  127OSM   H18H13677   5.645   0.663   8.657 -0.0269 -2.2276  1.7246
  128OSM      N13678   6.716   2.512   6.112 -0.0609  0.1371  0.5470
  128OSM    C1513679   6.635   2.586   6.007 -0.5848 -0.0631 -0.4913
  128OSM   H15A13680   6.695   2.666   5.966 -1.0162  1.0630  0.9809
  128OSM   H15B13681   6.551   2.632   6.057 -0.6041  0.0839 -0.6593
  128OSM   H15C13682   6.608   2.524   5.923 -1.4932  1.1690 -1.1262
  128OSM    C1413683   6.754   2.611   6.215 -0.4249  0.6625  0.3768
  128OSM   H14A13684   6.671   2.669   6.251 -3.0493 -2.7018  0.2446
  128OSM   H14B13685   6.823   2.677   6.163  0.7614  0.3054  1.4491
  128OSM   H14C13686   6.817   2.565   6.289 -0.3775  0.4485  0.2038
  128OSM    C1313687   6.620   2.416   6.170  0.4564  0.3477  0.1815
  128OSM   H13A13688   6.564   2.356   6.100  0.5793 -0.0444  0.4153
  128OSM   H13B13689   6.541   2.464   6.225  0.0561 -0.9067  0.7467
  128OSM   H13C13690   6.660   2.346   6.242 -0.9518 -0.4710  0.1948
  128OSM    C1213691   6.833   2.434   6.050  0.0276  0.0243  1.0666
  128OSM   H12A13692   6.802   2.374   5.965  0.3859  1.7044 -0.3004
  128OSM   H12B13693   6.863   2.360   6.123  0.8055 -3.0967 -2.1341
  128OSM    C1113694   6.964   2.501   6.001 -0.4899  0.1177 -0.3625
  128OSM   H11A13695   6.930   2.571   5.921 -0.9457  0.8656  0.4748
  128OSM   H11B13696   7.040   2.431   5.958 -1.2810 -0.4685 -0.8368
  128OSM      P13697   7.129   2.508   6.208 -0.1969  0.0800  0.0223
  128OSM    O1313698   7.204   2.411   6.129  0.6555 -0.4655  0.2159
  128OSM    O1413699   7.197   2.607   6.286  0.1849 -0.3291  0.1253
  128OSM    O1113700   7.035   2.428   6.308  0.2016  0.0775 -0.4004
  128OSM    O1213701   7.024   2.575   6.112 -0.1291  0.7205  0.5762
  128OSM    C1S13702   7.101   2.346   6.412  0.1552 -0.3298 -0.3778
  128OSM    H1S13703   7.207   2.373   6.426  0.4724 -2.4447  1.9917
  128OSM    H1T13704   7.098   2.237   6.390 -2.9305 -0.8848  1.9749
  128OSM     NF13705   7.107   2.314   6.663  0.2887  0.2323 -0.0763
  128OSM    HNF13706   7.087   2.220   6.689 -1.8089  0.9658  1.1735
  128OSM    C2S13707   7.029   2.370   6.550 -0.2964 -0.3078  0.5808
  128OSM    H2S13708   7.023   2.480   6.564 -2.0060  0.0032 -1.9144
  128OSM    C3S13709   6.886   2.303   6.543  0.2832 -0.2707  0.0164
  128OSM    H3S13710   6.899   2.196   6.516 -2.0001  0.0613 -2.8524
  128OSM     O313711   6.790   2.346   6.442  0.4097 -0.2084 -0.4461
  128OSM    HO313712   6.847   2.400   6.387  2.0847 -0.3066  1.0827
  128OSM    C4S13713   6.814   2.314   6.681 -0.1467  0.0642  0.5504
  128OSM    H4S13714   6.792   2.419   6.706  1.6633  0.8399 -0.8529
  128OSM    C5S13715   6.779   2.200   6.746 -0.2190 -0.8975  0.1260
  128OSM    H5S13716   6.796   2.103   6.697  0.3186 -0.4417 -0.6040
  128OSM    C6S13717   6.696   2.191   6.874  0.5779 -0.2276  0.1672
  128OSM    H6S13718   6.721   2.098   6.929  0.6759  0.7073  1.8003
  128OSM    H6T13719   6.595   2.177   6.831  1.2383  1.2741 -2.0741
  128OSM    C7S13720   6.712   2.303   6.976  0.1647 -0.5596 -0.4634
  128OSM    H7S13721   6.669   2.399   6.938  0.6572 -0.0493  0.2322
  128OSM    H7T13722   6.819   2.319   7.001  0.2296 -1.2012 -0.3127
  128OSM    C8S13723   6.625   2.276   7.098 -0.3299 -0.1553  0.7940
  128OSM    H8S13724   6.688   2.207   7.159 -3.6444 -1.9864  2.3812
  128OSM    H8T13725   6.531   2.223   7.073  1.0275 -1.3859 -2.0756
  128OSM    C9S13726   6.607   2.398   7.189 -0.1156 -0.0384 -0.1675
  128OSM    H9S13727   6.542   2.474   7.142  2.6348  1.6895 -1.3979
  128OSM    H9T13728   6.700   2.458   7.197 -0.5329  0.7630 -1.1535
  128OSM   C10S13729   6.548   2.367   7.325  0.4559  0.5473 -0.1832
  128OSM   H10S13730   6.469   2.292   7.307  1.2140 -0.2104 -0.4513
  128OSM   H10T13731   6.496   2.456   7.366  1.5167  0.8599  0.5201
  128OSM   C11S13732   6.660   2.316   7.424 -0.7763 -0.0790 -0.1204
  128OSM   H11S13733   6.719   2.409   7.437  0.2839 -0.6481 -0.6725
  128OSM   H11T13734   6.727   2.255   7.360 -1.8135 -0.0103 -1.2940
  128OSM   C12S13735   6.606   2.251   7.546 -0.1056 -0.5831  0.6424
  128OSM   H12S13736   6.581   2.147   7.517  0.6023 -0.3386 -0.9556
  128OSM   H12T13737   6.515   2.307   7.578  0.4236  1.1053 -0.6767
  128OSM   C13S13738   6.705   2.253   7.659 -0.7767 -0.5385 -0.0413
  128OSM   H13S13739   6.740   2.358   7.666  0.4343 -0.9551  0.3500
  128OSM   H13T13740   6.794   2.192   7.634  0.7509  1.3074  0.6881
  128OSM   C14S13741   6.630   2.208   7.787 -0.0527 -0.5677  0.1529
  128OSM   H14S13742   6.586   2.106   7.781  1.6964 -1.2756 -2.2996
  128OSM   H14T13743   6.535   2.266   7.792  0.0665 -0.4246  0.8344
  128OSM   C15S13744   6.704   2.231   7.923 -0.0276 -0.0342  0.2801
  128OSM   H15S13745   6.717   2.339   7.942  2.4416 -0.5150  1.8062
  128OSM   H15T13746   6.805   2.189   7.904  0.2727  0.9089 -0.2625
  128OSM   C16S13747   6.640   2.158   8.041 -0.4971 -0.7556  0.2705
  128OSM   H16S13748   6.633   2.051   8.015 -1.0206 -1.0059  1.4228
  128OSM   H16T13749   6.538   2.197   8.063 -0.6882 -1.5594  0.8144
  128OSM   C17S13750   6.722   2.190   8.169 -0.4645  0.3329 -0.0470
  128OSM   H17S13751   6.722   2.299   8.189  1.6716  0.2469  0.7041
  128OSM   H17T13752   6.828   2.163   8.148 -0.3812 -0.7498  1.5665
  128OSM   C18S13753   6.680   2.107   8.286  0.2434  0.1749  0.0200
  128OSM   H18S13754   6.592   2.152   8.336  0.7342  1.0214  0.1526
  128OSM   H18T13755   6.757   2.109   8.367  0.0916  4.4540  0.3165
  128OSM   H18U13756   6.654   2.004   8.254  0.9366  0.1542 -0.5093
  128OSM    C1F13757   7.209   2.383   6.718 -0.2374 -0.2257 -0.6433
  128OSM     OF13758   7.237   2.497   6.686  0.1177 -0.0361 -0.3356
  128OSM    C2F13759   7.275   2.320   6.846 -0.0351  0.6275  0.5129
  128OSM    H2F13760   7.330   2.227   6.819  0.3012  1.1157 -0.5443
  128OSM    H2G13761   7.197   2.301   6.922  0.0039  1.1151  0.6763
  128OSM    C3F13762   7.372   2.419   6.911  0.1957 -0.1125  0.0484
  128OSM    H3F13763   7.330   2.522   6.915  2.2326  0.8134 -0.9482
  128OSM    H3G13764   7.465   2.434   6.853  0.7009  2.0997  1.2982
  128OSM    C4F13765   7.442   2.372   7.042  0.9859  0.3860 -0.2928
  128OSM    H4F13766   7.477   2.268   7.024  2.9490  1.1934 -1.5367
  128OSM    H4G13767   7.347   2.369   7.099  0.1137  1.7893 -1.5761
  128OSM    C5F13768   7.532   2.474   7.115 -0.1369 -0.4222  0.7054
  128OSM    H5F13769   7.486   2.575   7.109  1.4069  0.2228 -0.8291
  128OSM    H5G13770   7.616   2.481   7.043 -0.4075 -0.3977  0.3896
  128OSM    C6F13771   7.582   2.434   7.254 -0.1829  0.0427 -0.2055
  128OSM    H6F13772   7.682   2.482   7.266 -0.4618  0.1189  2.2356
  128OSM    H6G13773   7.602   2.326   7.269  0.8549  0.0912 -1.1098
  128OSM    C7F13774   7.488   2.494   7.360  0.1697 -0.0199  0.9974
  128OSM    H7F13775   7.389   2.445   7.362 -1.5601  3.1575  0.3178
  128OSM    H7G13776   7.470   2.599   7.327 -2.6355 -1.2216 -1.8965
  128OSM    C8F13777   7.554   2.488   7.496  0.3430 -0.6405 -0.4793
  128OSM    H8F13778   7.655   2.534   7.491 -1.4879  4.4572  2.0380
  128OSM    H8G13779   7.559   2.384   7.537  2.0609  0.2540  1.8569
  128OSM    C9F13780   7.476   2.574   7.594 -0.2466  0.7632 -0.0658
  128OSM    H9F13781   7.406   2.634   7.533  0.5124  0.7461 -0.9754
  128OSM   C10F13782   7.467   2.574   7.728  0.2205 -0.2527  0.3135
  128OSM   H10F13783   7.414   2.658   7.777 -0.8858 -0.9498  0.3639
  128OSM   C11F13784   7.551   2.504   7.825 -0.3558 -0.2242 -0.3860
  128OSM   H11F13785   7.603   2.576   7.892  1.4134 -1.0305 -0.8308
  128OSM   H11G13786   7.632   2.453   7.767 -0.2838  0.1067 -0.5819
  128OSM   C12F13787   7.491   2.400   7.922  0.3968 -0.5088  0.4887
  128OSM   H12F13788   7.444   2.321   7.860  1.6582  0.5363 -1.9772
  128OSM   H12G13789   7.411   2.441   7.988 -0.2506 -0.5955 -0.2220
  128OSM   C13F13790   7.607   2.350   8.000  0.1731 -0.8066  0.3593
  128OSM   H13F13791   7.650   2.430   8.064 -0.0210 -0.4548  0.0529
  128OSM   H13G13792   7.689   2.312   7.935 -0.2734  0.3773 -0.9393
  128OSM   C14F13793   7.577   2.236   8.089  0.0584  0.8909 -0.1254
  128OSM   H14F13794   7.553   2.147   8.027 -1.8823  2.4256 -1.7132
  128OSM   H14G13795   7.487   2.247   8.152  1.0445 -0.1458  1.5537
  128OSM   C15F13796   7.686   2.200   8.202 -0.0252  0.2652  0.4340
  128OSM   H15F13797   7.657   2.106   8.254 -1.0008 -0.5315 -1.4258
  128OSM   H15G13798   7.683   2.281   8.278 -0.5434 -0.4879  1.2377
  128OSM   C16F13799   7.830   2.194   8.147 -0.2801  0.1653  0.2654
  128OSM   H16F13800   7.856   2.288   8.095  3.3912 -1.1194 -0.5194
  128OSM   H16G13801   7.851   2.116   8.071  1.4984  0.3260  0.5492
  128OSM   C17F13802   7.936   2.157   8.255  0.2800  0.3926 -0.3784
  128OSM   H17F13803   7.909   2.212   8.348 -0.9662  1.7903 -1.5103
  128OSM   H17G13804   8.029   2.208   8.226 -0.0070  1.1152 -0.0572
  128OSM   C18F13805   7.950   2.002   8.281  0.3926  0.6228 -0.2881
  128OSM   H18F13806   7.998   1.982   8.379 -0.2602  2.4057  0.4329
  128OSM   H18G13807   8.009   1.961   8.196  1.1188  3.5577 -1.3248
  128OSM   H18H13808   7.859   1.940   8.296  0.5001  0.6557  0.5428
  129OSM      N13809   4.793   1.833   6.255  0.0163 -1.0093 -0.4439
  129OSM    C1513810   4.729   1.867   6.127  0.0024 -0.2995 -0.2513
  129OSM   H15A13811   4.738   1.972   6.101 -0.1177  0.0078  0.9072
  129OSM   H15B13812   4.627   1.834   6.115 -0.6660  1.5659 -0.0513
  129OSM   H15C13813   4.792   1.821   6.052  0.2872 -2.5696  1.2983
  129OSM    C1413814   4.801   1.691   6.271 -0.4621  0.3658  0.4029
  129OSM   H14A13815   4.707   1.639   6.259  0.0374 -0.8067  1.4011
  129OSM   H14B13816   4.848   1.666   6.365 -0.9399 -1.4293  0.1908
  129OSM   H14C13817   4.874   1.648   6.204 -0.2467  0.1271  0.7884
  129OSM    C1313818   4.927   1.897   6.271 -0.7126 -0.2559  0.0157
  129OSM   H13A13819   4.991   1.866   6.190  0.6419 -0.0510  0.9608
  129OSM   H13B13820   4.964   1.857   6.364 -1.9586 -0.2050  0.5531
  129OSM   H13C13821   4.917   2.004   6.281  0.3334  0.3295 -3.7188
  129OSM    C1213822   4.693   1.868   6.367  0.3956 -1.0243 -0.0326
  129OSM   H12A13823   4.664   1.971   6.350 -1.6208 -1.3283  1.2316
  129OSM   H12B13824   4.757   1.870   6.454  1.0320 -0.3204 -0.4972
  129OSM    C1113825   4.566   1.793   6.380  0.4736 -0.1557 -0.3378
  129OSM   H11A13826   4.516   1.775   6.282 -1.7768 -1.5577  0.9755
  129OSM   H11B13827   4.501   1.864   6.435  0.9889 -0.1561  0.2858
  129OSM      P13828   4.475   1.574   6.450  0.3504 -0.2133 -0.2104
  129OSM    O1313829   4.377   1.602   6.557  0.2396  0.0366  0.3420
  129OSM    O1413830   4.426   1.551   6.310  0.1157 -0.6872  0.1570
  129OSM    O1113831   4.555   1.436   6.487  0.7124 -0.0868 -0.0733
  129OSM    O1213832   4.588   1.675   6.458  0.6168 -0.4618  0.2058
  129OSM    C1S13833   4.675   1.431   6.557 -0.9051 -0.1426  0.2151
  129OSM    H1S13834   4.740   1.521   6.549 -1.6337  0.6355  2.2068
  129OSM    H1T13835   4.724   1.340   6.517 -0.4937  0.7343 -1.3262
  129OSM     NF13836   4.780   1.429   6.773 -0.0305 -1.1002  1.2614
  129OSM    HNF13837   4.848   1.357   6.781  1.2636  0.0108  0.6483
  129OSM    C2S13838   4.654   1.405   6.708 -0.9689 -0.6749 -0.1727
  129OSM    H2S13839   4.582   1.482   6.744 -1.7627 -2.2818  1.9800
  129OSM    C3S13840   4.592   1.264   6.733  0.1769  0.8071  0.2751
  129OSM    H3S13841   4.655   1.188   6.681  0.2282 -0.1436  1.6655
  129OSM     O313842   4.465   1.267   6.667 -0.1693  0.1621 -0.0788
  129OSM    HO313843   4.481   1.328   6.595 -0.8020  1.4411  0.8302
  129OSM    C4S13844   4.572   1.239   6.877  0.3982  0.2053  0.0884
  129OSM    H4S13845   4.474   1.268   6.917 -0.3189 -0.0300 -1.4286
  129OSM    C5S13846   4.651   1.180   6.969  0.6681 -0.0397 -0.2700
  129OSM    H5S13847   4.748   1.137   6.943 -0.1990 -1.3075 -1.5805
  129OSM    C6S13848   4.612   1.152   7.106  0.1699  0.0953 -0.7606
  129OSM    H6S13849   4.587   1.044   7.105  4.2063 -1.0208 -0.5748
  129OSM    H6T13850   4.515   1.199   7.133  0.9112  0.2492  1.9818
  129OSM    C7S13851   4.717   1.182   7.204 -0.0532 -0.2536 -0.2161
  129OSM    H7S13852   4.719   1.291   7.225  0.5946 -0.3325  0.1415
  129OSM    H7T13853   4.821   1.148   7.186  0.7533  1.4187  1.0368
  129OSM    C8S13854   4.686   1.119   7.339  0.4503 -0.5032  0.0800
  129OSM    H8S13855   4.708   1.010   7.338  0.3995 -0.6787  3.9373
  129OSM    H8T13856   4.579   1.131   7.364  0.3613 -1.8294  0.3713
  129OSM    C9S13857   4.777   1.183   7.444 -0.1732 -0.4942  0.2734
  129OSM    H9S13858   4.766   1.293   7.446  1.5716 -0.2812 -0.2217
  129OSM    H9T13859   4.882   1.178   7.407 -0.8792 -0.7865 -1.7927
  129OSM   C10S13860   4.765   1.117   7.578 -0.6219 -0.4914 -0.5900
  129OSM   H10S13861   4.810   1.017   7.564  0.2542 -0.2211  0.2197
  129OSM   H10T13862   4.658   1.114   7.610 -0.2739  3.0260  1.4122
  129OSM   C11S13863   4.841   1.193   7.696 -0.0001 -0.5134  0.1037
  129OSM   H11S13864   4.805   1.296   7.715  0.2593 -0.2612 -0.7360
  129OSM   H11T13865   4.949   1.200   7.671  0.0565  0.2125  0.5021
  129OSM   C12S13866   4.836   1.123   7.828  0.1682 -0.3842  0.8775
  129OSM   H12S13867   4.885   1.024   7.819  2.1378  0.6734 -0.7176
  129OSM   H12T13868   4.731   1.100   7.858 -0.0320  0.1724  0.6155
  129OSM   C13S13869   4.897   1.207   7.941 -0.0284  0.5331 -0.5552
  129OSM   H13S13870   4.859   1.312   7.943 -1.7248 -0.0450 -1.3378
  129OSM   H13T13871   5.003   1.225   7.912  0.4137 -1.2344 -0.1478
  129OSM   C14S13872   4.879   1.131   8.080  0.1432  0.0655  0.5774
  129OSM   H14S13873   4.909   1.025   8.069 -1.1248 -0.5559  2.5953
  129OSM   H14T13874   4.770   1.130   8.100  0.4061  0.2775  2.2215
  129OSM   C15S13875   4.954   1.186   8.199  0.1059 -0.1988  0.4073
  129OSM   H15S13876   4.904   1.278   8.236  0.8889  1.1031 -1.6373
  129OSM   H15T13877   5.056   1.213   8.165 -0.3197 -1.3864 -2.0188
  129OSM   C16S13878   4.978   1.075   8.306  0.1612  0.0918  0.4962
  129OSM   H16S13879   5.014   0.979   8.263 -1.9303  0.3811 -2.1116
  129OSM   H16T13880   4.886   1.047   8.362  0.7325  0.2304  1.5438
  129OSM   C17S13881   5.070   1.129   8.418  0.2543  0.1185  0.4354
  129OSM   H17S13882   5.026   1.219   8.467  0.0736 -0.2217  0.9131
  129OSM   H17T13883   5.161   1.164   8.365  0.1193 -0.8464 -0.4704
  129OSM   C18S13884   5.122   1.036   8.532 -0.7373  0.2472 -0.0474
  129OSM   H18S13885   5.197   0.968   8.485  1.7997  1.8440  1.4094
  129OSM   H18T13886   5.047   0.984   8.595  1.5733 -3.9606 -0.4100
  129OSM   H18U13887   5.183   1.101   8.599  0.3747 -0.0615 -0.7271
  129OSM    C1F13888   4.836   1.554   6.789 -0.2682 -0.6338  0.3164
  129OSM     OF13889   4.779   1.657   6.767 -0.5527 -0.5494  0.3655
  129OSM    C2F13890   4.990   1.542   6.809 -0.2359 -0.0245 -1.3572
  129OSM    H2F13891   5.026   1.647   6.806 -0.0442  0.1818  2.5507
  129OSM    H2G13892   5.043   1.479   6.735  0.1580 -0.0369 -1.0731
  129OSM    C3F13893   5.038   1.488   6.945  0.1112 -0.4920  0.6143
  129OSM    H3F13894   5.146   1.461   6.951  0.0749 -0.3966  2.2364
  129OSM    H3G13895   4.965   1.408   6.971 -1.6829  1.3342  1.4109
  129OSM    C4F13896   5.004   1.590   7.059 -0.2606  0.1899  0.5092
  129OSM    H4F13897   5.016   1.692   7.018  0.2409 -0.9642 -2.4999
  129OSM    H4G13898   5.093   1.589   7.125 -0.2868 -1.9493  0.6016
  129OSM    C5F13899   4.872   1.568   7.129  0.2174 -0.0734 -0.4689
  129OSM    H5F13900   4.843   1.461   7.133  0.4484 -0.0959  1.6195
  129OSM    H5G13901   4.792   1.613   7.067  0.7277  0.7763 -0.5251
  129OSM    C6F13902   4.876   1.615   7.275 -0.4364 -0.0753 -0.3764
  129OSM    H6F13903   4.771   1.610   7.311 -0.3147 -1.2758 -0.1366
  129OSM    H6G13904   4.920   1.716   7.289 -1.7772  0.3088  1.4326
  129OSM    C7F13905   4.968   1.518   7.353 -0.0351  0.4373 -0.1489
  129OSM    H7F13906   5.068   1.517   7.306 -0.0023 -2.9853 -0.2050
  129OSM    H7G13907   4.938   1.412   7.337  1.5887 -0.1095  0.2712
  129OSM    C8F13908   4.981   1.545   7.508 -0.4372  0.8457  0.0295
  129OSM    H8F13909   5.021   1.452   7.553  2.4278  1.6153 -0.7374
  129OSM    H8G13910   4.877   1.557   7.546 -1.5233 -3.5666 -0.9436
  129OSM    C9F13911   5.073   1.655   7.548 -0.7226  0.3508  0.4561
  129OSM    H9F13912   5.030   1.750   7.515 -0.0523  0.3293 -0.5395
  129OSM   C10F13913   5.197   1.645   7.603  0.1567 -0.4590  0.2910
  129OSM   H10F13914   5.247   1.741   7.623  0.3996 -0.0152 -2.0893
  129OSM   C11F13915   5.264   1.515   7.641 -0.5105 -0.2911 -0.3369
  129OSM   H11F13916   5.372   1.509   7.617 -0.1128  4.3468 -0.6276
  129OSM   H11G13917   5.212   1.435   7.584 -1.0664 -0.0191 -0.2205
  129OSM   C12F13918   5.267   1.509   7.800  0.6133  0.2808 -0.0854
  129OSM   H12F13919   5.317   1.414   7.827  1.1793  0.5258 -0.2522
  129OSM   H12G13920   5.161   1.505   7.832 -0.0412 -0.1226 -2.1547
  129OSM   C13F13921   5.344   1.624   7.872  0.1382 -0.2270  0.3748
  129OSM   H13F13922   5.320   1.714   7.813 -1.2906 -2.2466 -2.3599
  129OSM   H13G13923   5.453   1.605   7.862  0.3604  1.8124 -2.0130
  129OSM   C14F13924   5.293   1.642   8.013 -0.3363  0.2644  0.1086
  129OSM   H14F13925   5.183   1.658   8.008 -0.0440  2.2880 -0.9290
  129OSM   H14G13926   5.325   1.739   8.056 -0.9615 -1.2037  4.4433
  129OSM   C15F13927   5.335   1.527   8.107  0.6076 -0.4452  0.8598
  129OSM   H15F13928   5.443   1.532   8.128  0.2463 -2.7603  4.0951
  129OSM   H15G13929   5.319   1.424   8.068 -0.5560  0.8117 -2.4092
  129OSM   C16F13930   5.269   1.526   8.251 -0.1632  0.1959 -0.5166
  129OSM   H16F13931   5.163   1.493   8.254 -0.9043  2.4767 -0.2855
  129OSM   H16G13932   5.270   1.632   8.283  1.4001  0.2726 -0.7321
  129OSM   C17F13933   5.348   1.444   8.358 -0.1301  0.0921  0.2914
  129OSM   H17F13934   5.450   1.486   8.374 -0.9797  1.7750  1.6559
  129OSM   H17G13935   5.362   1.340   8.322 -0.7044 -0.1339  0.6943
  129OSM   C18F13936   5.274   1.461   8.494  0.0395 -0.7813 -0.6298
  129OSM   H18F13937   5.168   1.431   8.482 -1.2574  3.4668 -1.1773
  129OSM   H18G13938   5.277   1.569   8.519  2.0677 -0.8557 -0.3903
  129OSM   H18H13939   5.319   1.412   8.583  1.0689  2.1089  0.5516
  130OSM      N13940   1.038   0.839   6.277 -0.5701 -0.0627 -1.0700
  130OSM    C1513941   1.115   0.750   6.185  0.1416 -1.2617 -0.3415
  130OSM   H15A13942   1.152   0.808   6.102 -0.7459 -0.3405 -0.1035
  130OSM   H15B13943   1.043   0.684   6.138 -0.8383 -1.2184  1.0474
  130OSM   H15C13944   1.193   0.689   6.227  1.3112 -0.0693 -0.7222
  130OSM    C1413945   0.929   0.900   6.191  0.5823 -0.3885 -0.7788
  130OSM   H14A13946   0.982   0.952   6.112 -0.0100 -1.3542 -1.8349
  130OSM   H14B13947   0.893   0.987   6.244 -0.6150  0.6981 -3.2011
  130OSM   H14C13948   0.859   0.826   6.155 -0.2594  0.5147 -1.0520
  130OSM    C1313949   0.971   0.757   6.378 -0.5125 -0.4655 -0.7628
  130OSM   H13A13950   0.884   0.805   6.419 -0.5736  0.2015 -1.6333
  130OSM   H13B13951   1.035   0.728   6.460  1.3342  3.8835 -0.3597
  130OSM   H13C13952   0.921   0.671   6.336  0.5280 -1.3361 -0.2802
  130OSM    C1213953   1.132   0.944   6.337  0.5556  0.0775 -0.2222
  130OSM   H12A13954   1.204   0.887   6.395  1.1158  2.0577  1.1180
  130OSM   H12B13955   1.081   1.013   6.403  2.8953  0.8517  0.9041
  130OSM    C1113956   1.207   1.039   6.237 -0.2048  0.5055  0.4690
  130OSM   H11A13957   1.243   0.977   6.152  1.5144  0.4042  1.2190
  130OSM   H11B13958   1.293   1.088   6.286 -0.1295  2.3459 -1.3765
  130OSM      P13959   1.035   1.255   6.248 -0.1503 -0.0211  0.0676
  130OSM    O1313960   1.085   1.372   6.175 -0.2105 -0.1581  0.0816
  130OSM    O1413961   0.894   1.217   6.228 -0.1894  0.1813  0.1914
  130OSM    O1113962   1.077   1.245   6.397  0.1592  0.0683 -0.1809
  130OSM    O1213963   1.116   1.132   6.182  0.0294  0.5628  0.2099
  130OSM    C1S13964   1.142   1.357   6.455 -0.5588  0.2151  0.1662
  130OSM    H1S13965   1.072   1.443   6.455 -1.1718 -0.2763 -0.1464
  130OSM    H1T13966   1.231   1.378   6.391  1.1404  0.0737  2.3548
  130OSM     NF13967   1.261   1.472   6.650  0.2608  0.7756  0.3904
  130OSM    HNF13968   1.360   1.459   6.653  0.3315  1.4192  1.3267
  130OSM    C2S13969   1.179   1.355   6.615 -0.6188 -0.2823  0.2052
  130OSM    H2S13970   1.084   1.353   6.672 -1.0614  0.8158 -0.4555
  130OSM    C3S13971   1.264   1.234   6.644  0.2705  0.2800  0.3993
  130OSM    H3S13972   1.360   1.251   6.591 -1.5148  2.6685 -2.3029
  130OSM     O313973   1.199   1.114   6.593  0.0259  0.1246  0.0331
  130OSM    HO313974   1.131   1.150   6.535  0.2730  0.8853  0.2111
  130OSM    C4S13975   1.300   1.219   6.786  0.4222 -0.5116  0.3985
  130OSM    H4S13976   1.214   1.223   6.854 -0.9884  2.3633 -1.3761
  130OSM    C5S13977   1.423   1.206   6.840 -0.1316  0.4658  0.0996
  130OSM    H5S13978   1.506   1.193   6.768  0.2379 -0.2526  0.6449
  130OSM    C6S13979   1.454   1.188   6.983  0.0452 -0.1670  0.1771
  130OSM    H6S13980   1.557   1.153   7.002  1.0992  0.1840 -4.0869
  130OSM    H6T13981   1.387   1.113   7.030 -0.5620 -0.6614 -1.4223
  130OSM    C7S13982   1.442   1.318   7.069  0.0830  0.4201 -0.0983
  130OSM    H7S13983   1.336   1.349   7.080 -0.6345 -2.2830  1.4736
  130OSM    H7T13984   1.493   1.405   7.023  0.0777  1.4668  1.7640
  130OSM    C8S13985   1.492   1.306   7.220  0.2697 -0.3831 -0.0581
  130OSM    H8S13986   1.474   1.404   7.269  0.6601 -0.4625  0.2451
  130OSM    H8T13987   1.603   1.300   7.214  0.5292  0.5708  2.6281
  130OSM    C9S13988   1.439   1.196   7.313  0.1143  0.0286 -0.3603
  130OSM    H9S13989   1.478   1.096   7.284 -2.2343 -0.8783 -0.5939
  130OSM    H9T13990   1.330   1.218   7.308 -0.6886 -3.3680  0.1471
  130OSM   C10S13991   1.495   1.227   7.457 -0.2774  0.4979  0.7137
  130OSM   H10S13992   1.486   1.334   7.487 -1.2245 -0.2868  3.5211
  130OSM   H10T13993   1.601   1.194   7.457 -1.1458 -2.5429  1.4935
  130OSM   C11S13994   1.425   1.144   7.572  0.2848  0.4918  0.3093
  130OSM   H11S13995   1.427   1.034   7.559 -1.3323  0.3261  1.2091
  130OSM   H11T13996   1.318   1.172   7.574 -0.0439 -0.6572 -0.4577
  130OSM   C12S13997   1.503   1.177   7.703 -1.1589 -0.1716  0.0267
  130OSM   H12S13998   1.486   1.285   7.720  0.6378  0.4731 -1.8808
  130OSM   H12T13999   1.614   1.166   7.703 -0.9756  1.2574  1.8653
  130OSM   C13S14000   1.445   1.093   7.817  0.4602 -0.0513  0.5967
  130OSM   H13S14001   1.440   0.987   7.785  1.6990  0.1920 -0.5084
  130OSM   H13T14002   1.337   1.111   7.833  0.7319  2.5709 -0.0474
  130OSM   C14S14003   1.515   1.112   7.953  0.1491  0.3142  1.2075
  130OSM   H14S14004   1.540   1.219   7.968  2.9317  0.0398 -0.8149
  130OSM   H14T14005   1.617   1.070   7.953  0.8033  1.7986 -0.3319
  130OSM   C15S14006   1.430   1.065   8.070  0.3462  0.1338 -0.4963
  130OSM   H15S14007   1.414   0.955   8.065  3.9417 -0.5936  1.0391
  130OSM   H15T14008   1.328   1.107   8.058 -0.8046 -2.2784  0.1757
  130OSM   C16S14009   1.495   1.108   8.204  0.0950 -0.4130 -0.2573
  130OSM   H16S14010   1.496   1.218   8.218 -0.2278 -0.2594 -1.3165
  130OSM   H16T14011   1.604   1.085   8.204  0.4708  1.2504  0.0740
  130OSM   C17S14012   1.422   1.034   8.321  0.1789 -0.9257 -0.4850
  130OSM   H17S14013   1.493   1.015   8.404 -0.2778  0.7194  0.3213
  130OSM   H17T14014   1.390   0.935   8.282  1.7681 -0.6918 -2.5889
  130OSM   C18S14015   1.308   1.119   8.364  0.1402  0.6884 -0.2385
  130OSM   H18S14016   1.257   1.065   8.447  2.0095 -1.3384 -0.2822
  130OSM   H18T14017   1.234   1.154   8.289  0.6222  1.1185 -0.5170
  130OSM   H18U14018   1.351   1.212   8.406 -0.6253  0.4084  1.2570
  130OSM    C1F14019   1.205   1.586   6.678 -0.8763 -1.2459  0.2264
  130OSM     OF14020   1.081   1.596   6.679 -0.2198 -0.6376 -0.1801
  130OSM    C2F14021   1.289   1.708   6.710 -0.6699 -0.0175  0.3551
  130OSM    H2F14022   1.281   1.772   6.619 -1.0436  0.2526  0.5742
  130OSM    H2G14023   1.396   1.679   6.710 -1.2581 -2.4499 -0.6546
  130OSM    C3F14024   1.248   1.788   6.832 -0.0968 -0.1100  0.3561
  130OSM    H3F14025   1.138   1.795   6.835 -0.3913 -3.1109 -0.4362
  130OSM    H3G14026   1.295   1.888   6.843  0.3241 -0.3310  0.6107
  130OSM    C4F14027   1.290   1.703   6.954 -0.0450 -0.1853  0.0221
  130OSM    H4F14028   1.396   1.673   6.946  1.0316  3.3654 -1.1941
  130OSM    H4G14029   1.230   1.609   6.949  1.4242 -1.2580  1.7830
  130OSM    C5F14030   1.260   1.774   7.087 -0.2237  0.0233 -0.1803
  130OSM    H5F14031   1.160   1.823   7.090 -1.0875 -1.6724  0.8756
  130OSM    H5G14032   1.331   1.858   7.101  0.7790 -0.3314 -2.6357
  130OSM    C6F14033   1.259   1.678   7.202 -0.0647 -0.5484 -0.2328
  130OSM    H6F14034   1.363   1.639   7.201  0.3351  0.3983 -2.6159
  130OSM    H6G14035   1.188   1.594   7.189 -0.0813 -0.3538 -1.5344
  130OSM    C7F14036   1.219   1.752   7.332  1.1590 -0.0198  0.1332
  130OSM    H7F14037   1.115   1.717   7.349  1.2679  0.6656  2.6514
  130OSM    H7G14038   1.222   1.862   7.314  1.4841 -0.0623 -0.0835
  130OSM    C8F14039   1.299   1.719   7.457 -0.1417  0.5960  0.3656
  130OSM    H8F14040   1.245   1.768   7.541  0.8841  0.2463  1.2541
  130OSM    H8G14041   1.404   1.754   7.464  0.9718 -2.4779  0.4767
  130OSM    C9F14042   1.288   1.573   7.473 -0.4697  0.0087 -1.3464
  130OSM    H9F14043   1.281   1.511   7.382 -0.7778  2.5723 -3.1802
  130OSM   C10F14044   1.268   1.511   7.590  0.3209  1.0884  0.3716
  130OSM   H10F14045   1.270   1.401   7.588 -1.9306  1.0066  0.3315
  130OSM   C11F14046   1.242   1.571   7.726 -0.0426 -0.2926  0.5110
  130OSM   H11F14047   1.141   1.537   7.759 -0.3620  1.3902  1.3848
  130OSM   H11G14048   1.233   1.681   7.712  1.5796 -0.2563 -0.5118
  130OSM   C12F14049   1.359   1.543   7.821  0.2840 -0.1843  0.7882
  130OSM   H12F14050   1.451   1.598   7.793 -0.0963  1.2302  2.1734
  130OSM   H12G14051   1.384   1.435   7.810  3.0897  0.4551  0.0799
  130OSM   C13F14052   1.324   1.599   7.959  0.7396 -0.0939  0.2936
  130OSM   H13F14053   1.227   1.550   7.984  0.9067 -0.8971 -0.5703
  130OSM   H13G14054   1.323   1.709   7.948  0.4772 -0.2451 -1.6401
  130OSM   C14F14055   1.416   1.542   8.064  0.4792 -0.7721  0.4190
  130OSM   H14F14056   1.520   1.578   8.044 -0.1008  2.0892  2.1018
  130OSM   H14G14057   1.417   1.431   8.069  1.4048 -0.7610  0.7731
  130OSM   C15F14058   1.380   1.575   8.209 -0.6138 -0.6448  0.0359
  130OSM   H15F14059   1.376   1.685   8.224  0.8651 -0.7068  1.1367
  130OSM   H15G14060   1.465   1.535   8.269 -0.9959  1.1343  1.8461
  130OSM   C16F14061   1.254   1.507   8.258  0.0171 -0.6132 -0.2294
  130OSM   H16F14062   1.252   1.403   8.217 -2.3278 -0.2418 -1.2369
  130OSM   H16G14063   1.160   1.555   8.222 -0.0641 -0.6277 -0.0386
  130OSM   C17F14064   1.240   1.496   8.416  0.6853  0.3629  0.3962
  130OSM   H17F14065   1.328   1.445   8.461  0.1213  0.0585  1.1880
  130OSM   H17G14066   1.161   1.418   8.430  0.6936 -0.2620 -2.4322
  130OSM   C18F14067   1.206   1.624   8.486 -0.0265 -0.3676 -0.0525
  130OSM   H18F14068   1.193   1.616   8.596 -0.2067 -1.9109 -0.1594
  130OSM   H18G14069   1.118   1.675   8.441 -1.7607 -1.1099  2.2762
  130OSM   H18H14070   1.287   1.699   8.475 -0.6449  0.1404 -1.3003
  131OSM      N14071   6.451   4.788   5.865 -0.1307 -0.1785  0.4429
  131OSM    C1514072   6.304   4.820   5.842 -0.7590 -0.7618 -0.0327
  131OSM   H15A14073   6.295   4.925   5.865  0.5012 -0.2516 -1.6601
  131OSM   H15B14074   6.248   4.753   5.906  1.4789 -0.8999  1.8978
  131OSM   H15C14075   6.283   4.804   5.737 -0.3217  1.1930 -0.4584
  131OSM    C1414076   6.476   4.665   5.775 -0.6926  0.7185  0.8133
  131OSM   H14A14077   6.426   4.578   5.812 -0.7920  0.8215  0.9231
  131OSM   H14B14078   6.580   4.636   5.766 -1.2106 -1.5933  1.8142
  131OSM   H14C14079   6.432   4.677   5.677 -1.3920  0.2486  1.0734
  131OSM    C1314080   6.542   4.897   5.806  0.0805 -0.2685 -0.7207
  131OSM   H13A14081   6.528   4.997   5.845 -0.6969 -0.9041  0.7215
  131OSM   H13B14082   6.533   4.920   5.701  2.3081  1.8203 -0.5329
  131OSM   H13C14083   6.643   4.886   5.842  0.3677  2.6245 -0.4111
  131OSM    C1214084   6.479   4.763   6.009 -0.4215 -0.8948 -0.1973
  131OSM   H12A14085   6.569   4.704   6.014 -0.5819 -1.3732 -2.1023
  131OSM   H12B14086   6.411   4.685   6.042 -0.3235 -1.3513 -1.0278
  131OSM    C1114087   6.477   4.894   6.085  0.4476 -0.2380  0.3221
  131OSM   H11A14088   6.462   4.867   6.192 -2.6758 -0.8568 -0.1878
  131OSM   H11B14089   6.392   4.959   6.055  0.5579 -1.1703 -2.2094
  131OSM      P14090   6.639   5.089   6.149 -0.1679  0.2599  0.1602
  131OSM    O1314091   6.782   5.126   6.141 -0.2965  0.3704 -0.0236
  131OSM    O1414092   6.538   5.191   6.111 -0.4601  0.4742 -0.2276
  131OSM    O1114093   6.609   5.056   6.302 -0.0577 -0.2733  0.0970
  131OSM    O1214094   6.613   4.946   6.074  0.5085 -0.5582 -0.5817
  131OSM    C1S14095   6.681   4.950   6.363  0.1290  1.1678 -1.1617
  131OSM    H1S14096   6.789   4.962   6.342  0.2286  1.4104 -0.5508
  131OSM    H1T14097   6.657   4.847   6.331  0.7285  0.5197  0.3711
  131OSM     NF14098   6.782   4.865   6.585  0.3623  0.5712 -0.0995
  131OSM    HNF14099   6.731   4.806   6.646  0.0018  3.6599  2.8683
  131OSM    C2S14100   6.694   4.965   6.524 -0.0693  0.6856  0.1045
  131OSM    H2S14101   6.746   5.061   6.544 -0.0045  0.2204  2.5549
  131OSM    C3S14102   6.556   4.980   6.596  0.3183 -0.7126 -0.0086
  131OSM    H3S14103   6.498   4.886   6.585  0.6681 -1.2116  1.9771
  131OSM     O314104   6.460   5.084   6.554 -0.1650 -0.3104 -0.4597
  131OSM    HO314105   6.503   5.114   6.474 -0.6543 -1.1488 -1.0462
  131OSM    C4S14106   6.587   5.012   6.750  0.4510  0.0408  0.3256
  131OSM    H4S14107   6.605   4.919   6.806 -0.6711 -1.6680 -2.0129
  131OSM    C5S14108   6.569   5.123   6.825  0.2882 -0.1455  0.8468
  131OSM    H5S14109   6.516   5.212   6.787  1.4679 -0.2197 -1.1301
  131OSM    C6S14110   6.577   5.115   6.971  0.6335  0.3825 -0.3351
  131OSM    H6S14111   6.649   5.186   7.016  0.6992 -0.1095  0.3525
  131OSM    H6T14112   6.609   5.015   7.007  0.2763 -0.1734 -1.5220
  131OSM    C7S14113   6.432   5.135   7.030 -0.5316  0.1110  0.6326
  131OSM    H7S14114   6.358   5.061   6.993 -0.9389  0.8842 -0.1268
  131OSM    H7T14115   6.388   5.235   7.011 -0.9047 -0.0332  0.7293
  131OSM    C8S14116   6.435   5.112   7.178 -1.4510 -0.1304  0.7792
  131OSM    H8S14117   6.518   5.172   7.219 -0.7639  1.2586 -2.3594
  131OSM    H8T14118   6.475   5.008   7.186  1.5078  0.4795 -3.1765
  131OSM    C9S14119   6.308   5.131   7.264 -0.3346 -1.1150 -0.1684
  131OSM    H9S14120   6.324   5.065   7.352 -1.5921 -1.0022  0.1630
  131OSM    H9T14121   6.221   5.087   7.211 -0.6619  0.3397 -0.8845
  131OSM   C10S14122   6.279   5.272   7.314 -0.6236  0.2281 -0.3721
  131OSM   H10S14123   6.274   5.356   7.242 -1.1338  2.1418  1.7627
  131OSM   H10T14124   6.371   5.299   7.371 -0.4424 -2.0192  0.5059
  131OSM   C11S14125   6.151   5.283   7.403 -0.3367  0.4735  0.3985
  131OSM   H11S14126   6.064   5.250   7.342 -0.6077 -1.0800  1.5751
  131OSM   H11T14127   6.145   5.394   7.400 -0.5739  0.4507 -0.0399
  131OSM   C12S14128   6.170   5.228   7.542 -0.0021 -0.3048  0.2107
  131OSM   H12S14129   6.254   5.290   7.581  0.5820 -2.0825  1.9751
  131OSM   H12T14130   6.213   5.126   7.538 -3.1486 -1.7144 -0.8134
  131OSM   C13S14131   6.045   5.209   7.626 -0.2948  0.3088  0.0845
  131OSM   H13S14132   6.074   5.151   7.716  2.5356  0.7728 -0.4459
  131OSM   H13T14133   5.973   5.147   7.568  0.4468  0.4574 -1.0205
  131OSM   C14S14134   5.976   5.334   7.674  0.2161  0.0555 -0.6564
  131OSM   H14S14135   5.958   5.396   7.583 -0.3000 -0.3673 -0.8481
  131OSM   H14T14136   6.042   5.395   7.739 -0.0492  1.9835 -2.0901
  131OSM   C15S14137   5.842   5.313   7.737 -0.0278 -0.1694 -0.1263
  131OSM   H15S14138   5.785   5.235   7.682 -2.6439 -0.3850  2.6496
  131OSM   H15T14139   5.784   5.407   7.725 -1.5228 -1.1545 -0.9740
  131OSM   C16S14140   5.850   5.279   7.889  0.2863  0.3968 -0.3383
  131OSM   H16S14141   5.955   5.249   7.904  0.4956  1.3392  0.1507
  131OSM   H16T14142   5.776   5.199   7.910  0.7354 -0.0143 -0.3066
  131OSM   C17S14143   5.808   5.399   7.982  0.4481  0.3334  0.2525
  131OSM   H17S14144   5.705   5.440   7.969  0.9354  0.8814 -2.7244
  131OSM   H17T14145   5.887   5.471   7.953  0.9259 -0.4748 -0.4947
  131OSM   C18S14146   5.829   5.379   8.129 -0.4947 -0.2466 -0.7640
  131OSM   H18S14147   5.843   5.471   8.189  1.3909 -1.6839  1.2050
  131OSM   H18T14148   5.921   5.315   8.135  0.3848  1.1287  1.6459
  131OSM   H18U14149   5.747   5.314   8.167  0.6214  0.1074  2.5300
  131OSM    C1F14150   6.906   4.837   6.554 -0.2400  0.1105  0.6553
  131OSM     OF14151   6.975   4.916   6.488  0.2002  0.3468 -0.6627
  131OSM    C2F14152   6.971   4.713   6.613  0.7773 -0.1753 -0.1040
  131OSM    H2F14153   6.998   4.642   6.531 -1.8832 -0.3726 -0.8997
  131OSM    H2G14154   6.895   4.660   6.674  2.9770 -3.7993 -0.2196
  131OSM    C3F14155   7.102   4.740   6.697 -0.6131  0.3106 -0.0894
  131OSM    H3F14156   7.183   4.758   6.623 -0.6830  3.2188  0.4211
  131OSM    H3G14157   7.127   4.650   6.757 -0.0140  0.6301  0.1396
  131OSM    C4F14158   7.090   4.857   6.802  0.3747 -0.4212 -0.1293
  131OSM    H4F14159   7.071   4.953   6.749  1.6896 -0.0931 -0.0381
  131OSM    H4G14160   7.190   4.872   6.847 -0.2836 -1.5781  1.8220
  131OSM    C5F14161   6.987   4.824   6.908  0.3289  0.2410 -0.7068
  131OSM    H5F14162   7.009   4.725   6.952  1.1287  2.0832  3.4806
  131OSM    H5G14163   6.882   4.821   6.869 -1.4496  2.4480  3.3715
  131OSM    C6F14164   6.996   4.929   7.014 -0.1433 -0.2014  0.0609
  131OSM    H6F14165   6.974   5.024   6.959  0.7771 -0.3028 -0.4997
  131OSM    H6G14166   7.097   4.924   7.060  0.4468 -1.5706 -1.3069
  131OSM    C7F14167   6.894   4.918   7.127 -0.4471 -0.0290 -0.0272
  131OSM    H7F14168   6.913   4.820   7.175  0.1759  0.4299  0.6743
  131OSM    H7G14169   6.797   4.910   7.073 -2.1511  0.4671  2.7895
  131OSM    C8F14170   6.899   5.039   7.225 -0.2120 -0.8741  0.3352
  131OSM    H8F14171   6.883   5.125   7.156  0.1729  0.2615  1.6268
  131OSM    H8G14172   7.002   5.050   7.265 -0.5943  1.4863  0.8101
  131OSM    C9F14173   6.788   5.034   7.327  0.3449 -0.2997 -0.6900
  131OSM    H9F14174   6.690   5.072   7.295  0.4624  0.6986  0.1297
  131OSM   C10F14175   6.799   5.008   7.456 -0.1492 -0.0343  0.4219
  131OSM   H10F14176   6.715   5.009   7.528 -0.0724  2.4227  0.5857
  131OSM   C11F14177   6.929   4.978   7.525 -0.5829 -0.2940 -0.3716
  131OSM   H11F14178   7.015   4.999   7.458 -0.3751  1.6972  0.4520
  131OSM   H11G14179   6.932   4.871   7.554 -0.8704  0.4079  2.5085
  131OSM   C12F14180   6.944   5.077   7.645  0.5934  0.0801  0.1148
  131OSM   H12F14181   6.861   5.075   7.718  0.1152  1.7839 -0.3445
  131OSM   H12G14182   6.944   5.180   7.605  0.8808  0.0103 -0.0711
  131OSM   C13F14183   7.076   5.062   7.715  0.2903  0.3481  0.7409
  131OSM   H13F14184   7.167   5.103   7.667  1.6415  0.5226  3.2873
  131OSM   H13G14185   7.109   4.956   7.722  2.4016  1.0568  2.6140
  131OSM   C14F14186   7.068   5.102   7.854  0.4325 -1.0437 -0.4748
  131OSM   H14F14187   6.972   5.055   7.886  0.5634 -0.5829  0.6207
  131OSM   H14G14188   7.050   5.211   7.858 -0.6777 -1.2417  0.2962
  131OSM   C15F14189   7.192   5.081   7.935  0.4135 -0.0973  0.3191
  131OSM   H15F14190   7.277   5.106   7.869 -0.5997  0.4522 -0.8253
  131OSM   H15G14191   7.211   4.972   7.942 -0.9858 -0.4473 -0.7850
  131OSM   C16F14192   7.185   5.152   8.073  0.0624 -0.0607 -0.7047
  131OSM   H16F14193   7.130   5.084   8.141  2.8188 -0.3624  1.4382
  131OSM   H16G14194   7.129   5.247   8.063  1.5982  1.0678  0.7932
  131OSM   C17F14195   7.316   5.193   8.141 -0.1861  0.1193  0.2760
  131OSM   H17F14196   7.375   5.249   8.066 -1.4132 -1.4777 -1.9897
  131OSM   H17G14197   7.369   5.096   8.147 -2.0425 -0.8847  1.6047
  131OSM   C18F14198   7.302   5.245   8.280  0.7439 -0.8941 -0.3047
  131OSM   H18F14199   7.220   5.184   8.325  0.0044  0.2221 -0.0894
  131OSM   H18G14200   7.261   5.349   8.275  2.5171  0.1271  2.9717
  131OSM   H18H14201   7.385   5.245   8.354  0.4474 -0.1763  0.0494
  132OSM      N14202   0.220   0.256   6.300  0.3859  0.4601 -0.0103
  132OSM    C1514203   0.185   0.231   6.441 -0.1592 -0.1245  0.0622
  132OSM   H15A14204   0.216   0.305   6.514 -0.8521 -0.0043  0.2453
  132OSM   H15B14205   0.234   0.140   6.470  0.0182 -0.0216  0.0839
  132OSM   H15C14206   0.078   0.217   6.454  0.1980 -1.2602  2.2612
  132OSM    C1414207   0.160   0.154   6.215 -0.0239 -0.1148 -0.4283
  132OSM   H14A14208   0.208   0.059   6.236  1.2880  0.4460 -0.7932
  132OSM   H14B14209   0.175   0.177   6.111 -1.6756  0.9668 -0.4650
  132OSM   H14C14210   0.053   0.141   6.223  0.0582 -0.8043 -0.3520
  132OSM    C1314211   0.154   0.388   6.282  0.5384 -0.3105  0.1076
  132OSM   H13A14212   0.186   0.419   6.184 -2.0441  0.0191 -0.6846
  132OSM   H13B14213   0.193   0.462   6.351  0.0749  0.7681 -0.7578
  132OSM   H13C14214   0.047   0.376   6.280  0.5823 -1.3568  1.9292
  132OSM    C1214215   0.368   0.254   6.275  0.0904  0.7304  0.4035
  132OSM   H12A14216   0.393   0.271   6.171  0.3533 -2.4896 -0.1743
  132OSM   H12B14217   0.398   0.150   6.281 -0.2701  0.6073  0.1036
  132OSM    C1114218   0.466   0.346   6.359  0.2240  0.0206  0.4221
  132OSM   H11A14219   0.458   0.324   6.468  1.3097 -1.2714  0.2680
  132OSM   H11B14220   0.428   0.445   6.327  1.4066  0.7511  1.1947
  132OSM      P14221   0.715   0.407   6.370 -0.1254  0.1478  0.1609
  132OSM    O1314222   0.834   0.321   6.378  0.6216 -0.1219 -0.0568
  132OSM    O1414223   0.720   0.526   6.276  0.0150 -0.2144 -1.0404
  132OSM    O1114224   0.690   0.455   6.509 -0.4196  0.4218 -0.4561
  132OSM    O1214225   0.597   0.314   6.318 -0.6565 -0.1769 -0.7167
  132OSM    C1S14226   0.631   0.585   6.543 -0.2436  0.2372  0.0751
  132OSM    H1S14227   0.539   0.601   6.483 -0.7000  0.6937  0.8739
  132OSM    H1T14228   0.699   0.671   6.528  0.8243 -0.6332 -0.1958
  132OSM     NF14229   0.517   0.682   6.732 -0.3094 -0.3144  0.2818
  132OSM    HNF14230   0.555   0.772   6.754 -2.7009  0.6350  0.8299
  132OSM    C2S14231   0.607   0.581   6.697 -0.1449 -0.1354  0.6291
  132OSM    H2S14232   0.569   0.482   6.732  0.9281 -0.8278 -0.1032
  132OSM    C3S14233   0.740   0.607   6.773 -0.3733 -0.0083 -0.1428
  132OSM    H3S14234   0.772   0.709   6.743  1.4073 -0.6395 -0.5362
  132OSM     O314235   0.857   0.534   6.730 -0.0317 -0.1498 -0.2308
  132OSM    HO314236   0.838   0.519   6.637 -0.2448 -0.2719 -0.1670
  132OSM    C4S14237   0.707   0.596   6.922 -0.3874  0.5136  0.4702
  132OSM    H4S14238   0.678   0.698   6.950 -0.8772 -0.0495  2.1274
  132OSM    C5S14239   0.726   0.497   7.010  0.0012  0.4216  0.0399
  132OSM    H5S14240   0.777   0.405   6.979 -1.7252  0.0194 -1.8149
  132OSM    C6S14241   0.687   0.505   7.155 -0.8373 -0.3200 -0.4936
  132OSM    H6S14242   0.770   0.455   7.208  0.1694  0.4349 -1.3036
  132OSM    H6T14243   0.595   0.450   7.184 -1.1307  0.3689 -0.0740
  132OSM    C7S14244   0.659   0.638   7.219  0.1319  0.0691  0.5190
  132OSM    H7S14245   0.589   0.702   7.161 -1.0643  1.1222  2.9823
  132OSM    H7T14246   0.755   0.692   7.230  0.3756 -0.3460  0.4378
  132OSM    C8S14247   0.596   0.628   7.359 -0.3156 -0.2336  0.3698
  132OSM    H8S14248   0.491   0.592   7.364 -0.8368  0.6902 -2.5029
  132OSM    H8T14249   0.580   0.735   7.386 -2.2577 -0.6463  1.0302
  132OSM    C9S14250   0.683   0.561   7.464  0.2042  0.4094  0.4392
  132OSM    H9S14251   0.790   0.587   7.447  0.2564 -1.0613 -2.0158
  132OSM    H9T14252   0.681   0.454   7.435 -2.1204  1.0390 -2.1975
  132OSM   C10S14253   0.641   0.584   7.609  0.7768  0.6571  0.0451
  132OSM   H10S14254   0.539   0.540   7.616  0.8017  0.3750 -1.0796
  132OSM   H10T14255   0.638   0.694   7.623  0.8680  0.7419 -0.5533
  132OSM   C11S14256   0.728   0.513   7.711  0.7788 -0.3247 -0.0526
  132OSM   H11S14257   0.836   0.530   7.691  0.9073  0.0425  0.8842
  132OSM   H11T14258   0.709   0.406   7.688  1.2665  0.1550 -3.0804
  132OSM   C12S14259   0.693   0.542   7.854 -0.8902 -0.1283 -0.3640
  132OSM   H12S14260   0.717   0.649   7.870  1.9784 -0.8925  0.9436
  132OSM   H12T14261   0.757   0.490   7.928  1.2307  0.2598 -1.8388
  132OSM   C13S14262   0.550   0.515   7.886  0.0314 -0.7628  0.2171
  132OSM   H13S14263   0.514   0.427   7.830  1.0800 -0.3888 -1.0846
  132OSM   H13T14264   0.492   0.598   7.840 -0.5733 -1.8330 -1.0156
  132OSM   C14S14265   0.521   0.511   8.038  0.4323 -0.2902  0.6294
  132OSM   H14S14266   0.537   0.607   8.090  1.4362 -0.7527  1.2119
  132OSM   H14T14267   0.572   0.430   8.095  1.4165  1.1665  1.8917
  132OSM   C15S14268   0.372   0.490   8.074  0.4135 -0.3231  0.4104
  132OSM   H15S14269   0.350   0.395   8.021 -0.1866 -0.8841  1.6187
  132OSM   H15T14270   0.304   0.567   8.032  1.6765  0.1914 -0.7654
  132OSM   C16S14271   0.335   0.475   8.223 -0.8070 -0.2529  0.2358
  132OSM   H16S14272   0.363   0.374   8.262 -1.9574 -0.0224  1.7347
  132OSM   H16T14273   0.224   0.473   8.217 -0.9003  2.6578 -0.2256
  132OSM   C17S14274   0.384   0.590   8.310  0.0823  0.0761 -0.7410
  132OSM   H17S14275   0.378   0.689   8.260  1.1211  1.2802  1.4028
  132OSM   H17T14276   0.493   0.579   8.327 -0.1682  2.1288  3.1203
  132OSM   C18S14277   0.324   0.603   8.452 -0.5610  0.3594 -0.2751
  132OSM   H18S14278   0.377   0.689   8.499 -0.2375 -0.5087  1.0131
  132OSM   H18T14279   0.343   0.509   8.507  1.2551 -1.1839 -3.2591
  132OSM   H18U14280   0.214   0.616   8.445 -1.3317 -3.5487  1.9395
  132OSM    C1F14281   0.392   0.681   6.687 -0.3063 -0.8466  0.1311
  132OSM     OF14282   0.348   0.585   6.627 -0.3359  0.2673  0.0848
  132OSM    C2F14283   0.316   0.807   6.713 -0.0470  0.1100  0.5362
  132OSM    H2F14284   0.229   0.814   6.645  0.7735  0.2114 -0.5322
  132OSM    H2G14285   0.380   0.891   6.678  1.2243 -0.3690  1.5937
  132OSM    C3F14286   0.269   0.813   6.858  0.1595 -0.5418 -0.2876
  132OSM    H3F14287   0.234   0.917   6.876  0.6052 -0.1910 -1.3697
  132OSM    H3G14288   0.362   0.799   6.917 -0.5411 -2.6632  0.4271
  132OSM    C4F14289   0.175   0.702   6.915  0.6437 -0.4008  0.1527
  132OSM    H4F14290   0.188   0.611   6.853 -1.2009  0.2933 -1.3701
  132OSM    H4G14291   0.071   0.738   6.900  0.6845 -0.6349 -0.7889
  132OSM    C5F14292   0.216   0.671   7.061 -0.1518  0.2215 -0.4639
  132OSM    H5F14293   0.324   0.649   7.060 -0.2145 -0.6404  2.1173
  132OSM    H5G14294   0.170   0.572   7.080 -0.9373  0.8703  1.2867
  132OSM    C6F14295   0.171   0.772   7.174  0.3443 -1.0792  0.7372
  132OSM    H6F14296   0.060   0.774   7.178  0.3613 -2.0120  2.9042
  132OSM    H6G14297   0.210   0.872   7.144  2.0419 -1.6393  0.9364
  132OSM    C7F14298   0.233   0.730   7.308  0.4627 -0.2391  0.0462
  132OSM    H7F14299   0.341   0.753   7.293  0.0302  2.7854  0.8570
  132OSM    H7G14300   0.219   0.620   7.313  0.7755 -0.2061  3.3980
  132OSM    C8F14301   0.175   0.814   7.428  0.4279 -0.3735 -0.0386
  132OSM    H8F14302   0.065   0.804   7.438  0.6760 -2.9903  0.9952
  132OSM    H8G14303   0.202   0.920   7.410  2.8224 -1.1534 -1.4503
  132OSM    C9F14304   0.253   0.773   7.555 -0.0565 -0.3148 -0.0852
  132OSM    H9F14305   0.362   0.771   7.541 -0.3353 -0.2428 -2.5639
  132OSM   C10F14306   0.191   0.762   7.668 -0.1718 -0.2245 -0.6355
  132OSM   H10F14307   0.241   0.721   7.757 -3.6769 -2.0671  0.7062
  132OSM   C11F14308   0.041   0.773   7.683  1.0113 -1.1995 -0.4269
  132OSM   H11F14309  -0.020   0.696   7.632 -1.2839 -0.2678  0.7817
  132OSM   H11G14310  -0.000   0.871   7.650  0.7717  0.0402  3.1144
  132OSM   C12F14311   0.008   0.778   7.836 -0.6696 -0.2967 -0.4242
  132OSM   H12F14312  -0.088   0.832   7.849 -2.0077 -2.3465 -1.1716
  132OSM   H12G14313   0.090   0.821   7.898 -1.4374 -0.3341  0.6390
  132OSM   C13F14314   0.004   0.638   7.910 -0.0292 -0.2035 -0.4712
  132OSM   H13F14315   0.105   0.593   7.902  1.4026  2.1478  2.5248
  132OSM   H13G14316  -0.068   0.564   7.869  0.0997 -1.0907  0.8476
  132OSM   C14F14317  -0.022   0.644   8.063  0.0779 -0.4290  0.4072
  132OSM   H14F14318  -0.116   0.688   8.103 -0.0437 -1.6532  1.5441
  132OSM   H14G14319   0.059   0.694   8.120 -0.9522  2.2315 -0.3279
  132OSM   C15F14320  -0.045   0.499   8.122 -0.4351 -0.1135 -0.2517
  132OSM   H15F14321   0.055   0.450   8.121 -0.2093  0.2686  1.4161
  132OSM   H15G14322  -0.116   0.445   8.056  0.1965 -1.7671  0.3676
  132OSM   C16F14323  -0.077   0.500   8.273 -0.4923  0.0066  0.3836
  132OSM   H16F14324  -0.182   0.535   8.279 -1.3941 -1.9957 -1.8458
  132OSM   H16G14325  -0.010   0.565   8.333  2.8685 -3.7421  1.1154
  132OSM   C17F14326  -0.058   0.368   8.336 -0.5936  0.6274 -0.0815
  132OSM   H17F14327   0.048   0.340   8.354 -0.7228 -0.1919 -0.5491
  132OSM   H17G14328  -0.115   0.293   8.277 -0.0247  0.7532 -0.8149
  132OSM   C18F14329  -0.129   0.367   8.471  0.2118 -0.4303 -0.0918
  132OSM   H18F14330  -0.152   0.260   8.490 -1.5064  0.1438  1.3655
  132OSM   H18G14331  -0.229   0.415   8.469  1.6505  2.8207 -1.1529
  132OSM   H18H14332  -0.073   0.421   8.551 -0.1007 -0.2207 -0.0171
  133OSM      N14333   1.694   6.527   6.316  0.2948  1.0625  0.3408
  133OSM    C1514334   1.589   6.505   6.209 -0.0799  0.0165 -0.1253
  133OSM   H15A14335   1.506   6.574   6.219 -1.4733 -1.6385  0.0362
  133OSM   H15B14336   1.551   6.405   6.214  0.6125 -0.2753 -0.5903
  133OSM   H15C14337   1.625   6.516   6.108  1.8996  0.9799  0.6204
  133OSM    C1414338   1.648   6.488   6.455 -0.8508 -0.1153  0.8090
  133OSM   H14A14339   1.575   6.563   6.481  0.8452  1.7597  0.4121
  133OSM   H14B14340   1.740   6.501   6.509 -0.7903  0.3185  0.6110
  133OSM   H14C14341   1.597   6.393   6.461 -2.4620  0.7239  0.9123
  133OSM    C1314342   1.806   6.427   6.285 -0.0004  0.7535 -0.5512
  133OSM   H13A14343   1.827   6.429   6.179 -2.4290 -0.3916 -1.1108
  133OSM   H13B14344   1.768   6.326   6.291  0.6120  0.6221  1.8472
  133OSM   H13C14345   1.895   6.443   6.343 -0.1026  1.1510 -0.5015
  133OSM    C1214346   1.761   6.658   6.323  0.3838  1.2599 -0.2341
  133OSM   H12A14347   1.694   6.741   6.338 -1.1905 -0.3798  3.1302
  133OSM   H12B14348   1.804   6.680   6.227  1.1983  1.3327  0.1426
  133OSM    C1114349   1.868   6.685   6.435 -0.2530  0.4599  0.0378
  133OSM   H11A14350   1.818   6.705   6.532 -1.1023  0.0818 -0.3138
  133OSM   H11B14351   1.914   6.784   6.411  1.3288 -0.3033 -0.2318
  133OSM      P14352   2.113   6.603   6.433 -0.3120 -0.0330 -0.7809
  133OSM    O1314353   2.181   6.474   6.447 -0.8155 -0.0059 -0.2340
  133OSM    O1414354   2.139   6.667   6.302  0.0512 -0.2758 -0.2637
  133OSM    O1114355   2.147   6.710   6.555 -0.7603 -0.1967  0.2348
  133OSM    O1214356   1.964   6.585   6.446 -0.5724 -0.0994 -0.7467
  133OSM    C1S14357   2.114   6.680   6.687  0.3965 -0.5674 -1.0953
  133OSM    H1S14358   2.190   6.607   6.722 -0.5034 -1.2092 -0.4336
  133OSM    H1T14359   2.013   6.640   6.707  1.1715 -1.7986  0.5908
  133OSM     NF14360   2.119   6.770   6.915  0.1323  0.3125 -0.0569
  133OSM    HNF14361   2.041   6.801   6.968  0.3435  0.0729  0.3995
  133OSM    C2S14362   2.137   6.809   6.778 -0.0862  0.1409 -0.2257
  133OSM    H2S14363   2.243   6.837   6.757  0.3467 -1.3210 -0.1744
  133OSM    C3S14364   2.040   6.920   6.740  0.0474 -0.0378  0.4292
  133OSM    H3S14365   1.938   6.876   6.744  0.0349 -0.0576 -0.0324
  133OSM     O314366   2.072   6.960   6.608  0.4165 -0.7080  0.3893
  133OSM    HO314367   2.096   6.877   6.565 -0.0428 -0.4996 -0.3028
  133OSM    C4S14368   2.047   7.047   6.815  0.1761 -0.1091  0.5309
  133OSM    H4S14369   2.112   7.123   6.769  0.8778 -2.3290 -2.4456
  133OSM    C5S14370   1.986   7.083   6.928  0.1666 -0.1061 -0.8757
  133OSM    H5S14371   1.916   7.007   6.966 -1.0005 -0.2957 -3.2067
  133OSM    C6S14372   1.996   7.221   6.996  0.5099 -0.3353  0.7166
  133OSM    H6S14373   1.895   7.267   7.011  0.7955  0.4021  0.4334
  133OSM    H6T14374   2.042   7.287   6.920  0.5270 -1.7038 -0.5054
  133OSM    C7S14375   2.085   7.236   7.122 -0.0844 -0.1692 -0.3216
  133OSM    H7S14376   2.110   7.338   7.157  0.1467 -0.5561  0.6822
  133OSM    H7T14377   2.185   7.194   7.097  0.4444  1.8218 -1.7450
  133OSM    C8S14378   2.028   7.162   7.243  0.0998 -0.5646 -0.0276
  133OSM    H8S14379   2.034   7.054   7.219  0.2209 -0.3183 -1.1246
  133OSM    H8T14380   1.923   7.196   7.255  0.6450  3.3788 -4.0832
  133OSM    C9S14381   2.111   7.184   7.375  0.2849 -0.6114 -0.3074
  133OSM    H9S14382   2.095   7.291   7.401 -3.4937 -1.1689  0.1615
  133OSM    H9T14383   2.215   7.162   7.342  1.8469  3.7314  1.0957
  133OSM   C10S14384   2.068   7.100   7.488  0.4792  0.0891 -0.6772
  133OSM   H10S14385   2.090   6.996   7.455  2.6648  1.4147 -3.7864
  133OSM   H10T14386   1.962   7.119   7.515  0.5842  0.6070 -0.6204
  133OSM   C11S14387   2.148   7.124   7.629  0.0361 -0.3792  0.3109
  133OSM   H11S14388   2.172   7.233   7.632 -0.6338 -0.1947  3.7282
  133OSM   H11T14389   2.241   7.064   7.637 -1.4592 -2.7930  0.7885
  133OSM   C12S14390   2.056   7.092   7.743  0.2609 -0.2388 -0.6927
  133OSM   H12S14391   2.022   6.987   7.730 -0.5413  0.1653 -1.9923
  133OSM   H12T14392   1.968   7.159   7.736  0.6228  0.4771  1.0230
  133OSM   C13S14393   2.121   7.118   7.874 -0.3975  0.4371 -0.3659
  133OSM   H13S14394   2.141   7.225   7.892  3.9310  0.0193 -1.6178
  133OSM   H13T14395   2.213   7.056   7.878 -0.4016  0.4262 -0.4551
  133OSM   C14S14396   2.030   7.056   7.986  0.0132  0.0687 -0.0397
  133OSM   H14S14397   1.981   6.969   7.938 -1.6574  0.0841  1.5424
  133OSM   H14T14398   1.945   7.121   8.016  0.6869  0.5907  0.7924
  133OSM   C15S14399   2.113   7.001   8.106 -0.7483  0.2697  0.2648
  133OSM   H15S14400   2.196   6.934   8.074 -0.7892  0.2204  0.2622
  133OSM   H15T14401   2.040   6.944   8.167  0.4360 -1.5192  0.0691
  133OSM   C16S14402   2.171   7.129   8.186  0.3485  0.4876  0.2694
  133OSM   H16S14403   2.081   7.172   8.234  1.6755  1.3680  2.1097
  133OSM   H16T14404   2.217   7.208   8.121  0.8517 -0.3031 -0.3558
  133OSM   C17S14405   2.289   7.095   8.274 -0.5562  0.4281  0.7565
  133OSM   H17S14406   2.325   7.188   8.323 -0.6584 -0.2753  2.2390
  133OSM   H17T14407   2.367   7.055   8.205 -2.5890 -0.2837 -1.2556
  133OSM   C18S14408   2.265   6.990   8.388  0.1100 -0.6331 -0.2578
  133OSM   H18S14409   2.190   7.037   8.455  0.6170 -0.1620 -0.0090
  133OSM   H18T14410   2.362   6.965   8.437  1.2653  2.3576 -0.8062
  133OSM   H18U14411   2.220   6.899   8.343  0.1324 -0.3399 -0.8841
  133OSM    C1F14412   2.208   6.695   6.978  0.1274 -0.1507 -0.5264
  133OSM     OF14413   2.311   6.657   6.924 -0.5809 -0.0994 -0.4946
  133OSM    C2F14414   2.161   6.651   7.111  1.2458 -0.6843 -0.1464
  133OSM    H2F14415   2.064   6.597   7.114  0.9816 -0.2568 -0.7124
  133OSM    H2G14416   2.150   6.734   7.185 -1.0475  0.4919 -1.6841
  133OSM    C3F14417   2.257   6.547   7.182 -0.4644  0.0072  0.3230
  133OSM    H3F14418   2.364   6.566   7.160  0.2866  0.3294  3.7038
  133OSM    H3G14419   2.235   6.445   7.144 -0.1280  0.0828 -0.0765
  133OSM    C4F14420   2.240   6.539   7.334 -0.3920  0.4230 -0.8949
  133OSM    H4F14421   2.294   6.447   7.361  0.1197  0.7035 -0.9527
  133OSM    H4G14422   2.131   6.530   7.355  0.1609 -0.7718  1.8030
  133OSM    C5F14423   2.302   6.654   7.415  0.1122 -0.4159  0.2138
  133OSM    H5F14424   2.291   6.742   7.348 -0.6558 -1.6471 -1.3361
  133OSM    H5G14425   2.410   6.645   7.436  0.1767  2.0704  1.3775
  133OSM    C6F14426   2.225   6.671   7.549 -0.5741 -0.5145 -0.4427
  133OSM    H6F14427   2.203   6.566   7.579 -0.7081 -0.4329 -0.2580
  133OSM    H6G14428   2.126   6.720   7.531  0.2178  1.8005  1.1042
  133OSM    C7F14429   2.301   6.749   7.661  0.4020 -0.5143 -0.3265
  133OSM    H7F14430   2.287   6.846   7.607  0.5665  0.7740  1.8163
  133OSM    H7G14431   2.408   6.725   7.671  0.0951 -1.1821  1.8633
  133OSM    C8F14432   2.231   6.737   7.796  0.1008  0.0438 -0.6082
  133OSM    H8F14433   2.124   6.766   7.785  0.0264 -0.6804 -1.9773
  133OSM    H8G14434   2.277   6.811   7.865 -0.5656  0.4982 -0.6355
  133OSM    C9F14435   2.242   6.601   7.859 -0.7180  0.0416  0.2901
  133OSM    H9F14436   2.333   6.546   7.831  0.4898  1.2344  1.6926
  133OSM   C10F14437   2.174   6.556   7.964 -0.0694 -0.4403 -0.3963
  133OSM   H10F14438   2.195   6.453   7.999  0.5339  0.6567  2.8245
  133OSM   C11F14439   2.071   6.636   8.039  0.2655 -0.8877 -0.5974
  133OSM   H11F14440   1.973   6.630   7.987 -0.9577  0.6912  1.3571
  133OSM   H11G14441   2.082   6.746   8.044 -1.0262 -0.7928  2.2074
  133OSM   C12F14442   2.058   6.586   8.188 -0.4685 -0.0603  0.1493
  133OSM   H12F14443   2.156   6.607   8.236 -0.5831 -1.7428  1.2171
  133OSM   H12G14444   2.063   6.475   8.191  1.3035 -0.0372 -0.7158
  133OSM   C13F14445   1.942   6.630   8.276  0.4767 -0.3961  0.3037
  133OSM   H13F14446   1.844   6.589   8.244 -0.3478  2.4853 -1.3012
  133OSM   H13G14447   1.930   6.741   8.269  1.3079 -0.1975  1.7321
  133OSM   C14F14448   1.962   6.603   8.425  0.1053  0.0557 -0.5435
  133OSM   H14F14449   1.898   6.661   8.494  1.6013 -1.1115  1.9844
  133OSM   H14G14450   2.056   6.639   8.473 -0.7035 -0.7142  1.7609
  133OSM   C15F14451   1.947   6.457   8.469  0.4962  0.3117  0.3321
  133OSM   H15F14452   1.861   6.414   8.414  1.2226  0.4288 -0.9179
  133OSM   H15G14453   1.923   6.464   8.578  0.5990 -3.9723  0.8187
  133OSM   C16F14454   2.079   6.372   8.439  0.6077  0.3117 -0.5283
  133OSM   H16F14455   2.163   6.440   8.464 -0.7238  0.8986  3.0337
  133OSM   H16G14456   2.069   6.332   8.336 -0.6461  0.9819 -0.6835
  133OSM   C17F14457   2.110   6.263   8.543  0.1906  0.6588 -0.6528
  133OSM   H17F14458   2.166   6.190   8.481 -0.0211  1.0278 -1.2876
  133OSM   H17G14459   2.012   6.215   8.565 -1.3943  3.1388 -1.8234
  133OSM   C18F14460   2.192   6.313   8.658  0.1864  0.0636  0.3313
  133OSM   H18F14461   2.148   6.406   8.701  0.2975 -0.0022  0.5871
  133OSM   H18G14462   2.296   6.336   8.625  0.4119  0.1738  1.1196
  133OSM   H18H14463   2.194   6.237   8.739  1.5229 -0.9792 -0.6335
  134OSM      N14464   2.044   3.211   6.480 -0.2349  0.0185 -0.3088
  134OSM    C1514465   2.178   3.226   6.548  0.4856 -0.3792  0.1244
  134OSM   H15A14466   2.171   3.197   6.652  0.8362 -0.1176  0.2239
  134OSM   H15B14467   2.219   3.326   6.546 -0.5880  0.0932  0.7980
  134OSM   H15C14468   2.250   3.163   6.497 -0.9217 -0.5203 -1.7758
  134OSM    C1414469   1.947   3.319   6.510 -0.0229  0.0023  0.0553
  134OSM   H14A14470   1.985   3.412   6.470  1.9091 -0.0161  1.6813
  134OSM   H14B14471   1.946   3.333   6.617  1.4196 -1.9573  0.3699
  134OSM   H14C14472   1.849   3.312   6.464 -0.7405  1.1209  1.3369
  134OSM    C1314473   2.069   3.190   6.333  0.4966 -0.2966 -0.1230
  134OSM   H13A14474   2.115   3.275   6.284 -0.5516  0.6712  0.5426
  134OSM   H13B14475   1.973   3.180   6.285 -0.5625 -0.7468  1.9939
  134OSM   H13C14476   2.121   3.098   6.310 -1.1247 -1.1721 -0.4391
  134OSM    C1214477   1.975   3.086   6.534  0.3452 -0.0645 -0.3424
  134OSM   H12A14478   2.038   3.005   6.503  0.1571 -1.4409  2.5354
  134OSM   H12B14479   1.876   3.074   6.494 -0.7787 -0.8403  2.4560
  134OSM    C1114480   1.958   3.069   6.691  0.3452 -0.1873 -0.6577
  134OSM   H11A14481   1.886   2.986   6.708 -0.3361  0.8242  1.8914
  134OSM   H11B14482   1.927   3.156   6.752  0.2871 -1.2012  0.8179
  134OSM      P14483   2.163   2.882   6.704  0.2908 -0.2651 -0.1996
  134OSM    O1314484   2.146   2.853   6.558  0.3477 -0.3741 -0.0389
  134OSM    O1414485   2.307   2.885   6.754  0.2600  0.1806  0.6195
  134OSM    O1114486   2.072   2.788   6.797 -0.1792  0.1147 -0.2157
  134OSM    O1214487   2.092   3.027   6.732  0.3718 -0.0386  0.1298
  134OSM    C1S14488   2.077   2.780   6.942  0.3986  0.3880  0.1590
  134OSM    H1S14489   2.007   2.854   6.984 -0.6868 -0.5516  0.0582
  134OSM    H1T14490   2.178   2.804   6.980  0.8841 -2.2791  0.7297
  134OSM     NF14491   2.058   2.642   7.145  0.4758 -0.1401  0.8452
  134OSM    HNF14492   2.140   2.606   7.189  2.3217  0.3226 -1.9337
  134OSM    C2S14493   2.041   2.639   7.000 -0.4566 -0.8136  0.3672
  134OSM    H2S14494   1.935   2.612   6.979 -0.8272 -0.0367  1.1683
  134OSM    C3S14495   2.129   2.529   6.944 -0.1477 -0.1024 -0.3550
  134OSM    H3S14496   2.237   2.542   6.963 -0.0806  1.0163 -1.3698
  134OSM     O314497   2.113   2.518   6.804  0.1247  0.5394 -0.3362
  134OSM    HO314498   2.083   2.606   6.779  2.7937  1.0834 -1.9899
  134OSM    C4S14499   2.100   2.391   7.009  0.5826  0.2992  0.5803
  134OSM    H4S14500   2.158   2.353   7.094  1.3364  2.4333  1.0647
  134OSM    C5S14501   2.004   2.308   6.957 -0.3973 -0.2953  0.3419
  134OSM    H5S14502   1.948   2.338   6.867  0.8958 -1.5886 -0.9278
  134OSM    C6S14503   1.965   2.165   7.007 -0.3235 -0.2448  0.2184
  134OSM    H6S14504   1.937   2.100   6.921 -2.6858  0.5697  0.3071
  134OSM    H6T14505   1.877   2.178   7.074 -0.5244  0.6807 -0.2163
  134OSM    C7S14506   2.075   2.087   7.091  1.2784 -0.3735  0.8427
  134OSM    H7S14507   2.109   2.159   7.169 -0.1101  1.3980 -0.1213
  134OSM    H7T14508   2.161   2.071   7.022  0.4041 -1.1946 -0.0771
  134OSM    C8S14509   2.023   1.965   7.156  0.2172  0.1152  0.1870
  134OSM    H8S14510   1.996   1.889   7.079  1.3659 -1.0063  0.8446
  134OSM    H8T14511   1.932   1.988   7.216  0.5035  0.8000  0.3617
  134OSM    C9S14512   2.127   1.893   7.243 -0.0524  0.0197 -0.0260
  134OSM    H9S14513   2.227   1.887   7.195  0.1311 -1.9484  0.5031
  134OSM    H9T14514   2.095   1.788   7.258  0.1007  0.0891  0.8473
  134OSM   C10S14515   2.143   1.951   7.385  0.3335 -0.2405 -0.0661
  134OSM   H10S14516   2.049   1.980   7.438  0.6712  2.7979 -0.9808
  134OSM   H10T14517   2.209   2.040   7.378  1.3735 -1.0226 -0.3944
  134OSM   C11S14518   2.209   1.833   7.474 -0.7142  0.1263  0.0284
  134OSM   H11S14519   2.305   1.797   7.431 -0.4087 -2.4619  2.5444
  134OSM   H11T14520   2.151   1.738   7.482  1.4695 -1.2484  0.2397
  134OSM   C12S14521   2.266   1.873   7.619 -0.5174 -0.0841  0.0673
  134OSM   H12S14522   2.303   1.977   7.628 -0.2015 -0.1883 -0.0420
  134OSM   H12T14523   2.360   1.815   7.629  1.0389  1.9361 -2.0179
  134OSM   C13S14524   2.163   1.843   7.735  0.2331  0.0846 -0.1537
  134OSM   H13S14525   2.120   1.742   7.723 -0.8488  0.4773  0.3192
  134OSM   H13T14526   2.083   1.918   7.716 -1.4209 -1.8833 -1.3165
  134OSM   C14S14527   2.227   1.856   7.865  0.0699 -0.3567 -0.4047
  134OSM   H14S14528   2.149   1.868   7.942 -0.5826 -0.2956 -1.0620
  134OSM   H14T14529   2.293   1.944   7.855 -0.5785  0.2848  0.7632
  134OSM   C15S14530   2.304   1.727   7.905  0.4988  0.1689  0.1936
  134OSM   H15S14531   2.354   1.673   7.821  2.5118  1.1650  0.6801
  134OSM   H15T14532   2.240   1.648   7.950  0.8360 -0.8813 -1.1036
  134OSM   C16S14533   2.415   1.755   8.007 -0.5429 -0.0727  0.6362
  134OSM   H16S14534   2.469   1.848   7.979 -0.3916  0.0002  1.1513
  134OSM   H16T14535   2.484   1.668   8.018  0.2961  0.8641  3.8493
  134OSM   C17S14536   2.365   1.767   8.152  0.3841 -0.4288 -0.3426
  134OSM   H17S14537   2.297   1.685   8.182  0.6926  0.5469  3.5955
  134OSM   H17T14538   2.324   1.870   8.163  1.7972  0.4705 -2.5798
  134OSM   C18S14539   2.482   1.773   8.255  0.3422  0.6403 -0.6069
  134OSM   H18S14540   2.567   1.841   8.233  0.6366  0.4336 -0.1084
  134OSM   H18T14541   2.521   1.671   8.275 -0.2409  0.7233  1.0729
  134OSM   H18U14542   2.434   1.803   8.351 -0.7792 -0.8858 -0.6533
  134OSM    C1F14543   1.963   2.702   7.221 -0.0367 -0.1622 -0.1128
  134OSM     OF14544   1.871   2.758   7.165 -0.5970  0.5137  0.4383
  134OSM    C2F14545   1.968   2.686   7.364 -0.3652  0.3806  0.0223
  134OSM    H2F14546   2.075   2.664   7.384 -0.1221  0.3903 -1.2412
  134OSM    H2G14547   1.918   2.593   7.400  0.5887  0.1572  0.8231
  134OSM    C3F14548   1.937   2.813   7.451  0.6176 -0.1563  0.8475
  134OSM    H3F14549   1.826   2.824   7.443  0.4190 -1.7710  1.1676
  134OSM    H3G14550   1.991   2.895   7.400 -1.3128  0.5860 -0.0923
  134OSM    C4F14551   1.970   2.797   7.596  0.6257  0.1928  0.2131
  134OSM    H4F14552   1.973   2.900   7.636 -0.3072  0.4555 -0.3465
  134OSM    H4G14553   2.073   2.759   7.607  0.6791  0.2624 -0.0413
  134OSM    C5F14554   1.879   2.710   7.685  0.7461 -0.7791  0.1653
  134OSM    H5F14555   1.869   2.610   7.636 -1.0127 -1.0659  1.0457
  134OSM    H5G14556   1.778   2.754   7.701  1.1538  0.2142  0.0348
  134OSM    C6F14557   1.941   2.686   7.825  0.0936 -0.0136 -0.0211
  134OSM    H6F14558   2.031   2.623   7.810  1.5164  2.5098 -3.5244
  134OSM    H6G14559   1.862   2.624   7.872 -1.5087  1.2848 -0.8487
  134OSM    C7F14560   1.972   2.813   7.905 -0.9003 -0.4409  0.6961
  134OSM    H7F14561   1.885   2.881   7.896 -1.2479 -0.8012  1.2726
  134OSM    H7G14562   2.067   2.851   7.863 -0.4518  0.1935  2.2233
  134OSM    C8F14563   1.995   2.780   8.052 -0.5214  0.2162 -0.4609
  134OSM    H8F14564   2.040   2.679   8.069 -1.4553 -0.6301 -2.6444
  134OSM    H8G14565   1.894   2.757   8.093 -0.8980  2.1053 -0.2680
  134OSM    C9F14566   2.044   2.887   8.140  0.2035 -0.0891 -0.0785
  134OSM    H9F14567   2.037   2.987   8.095 -1.1441 -1.1205 -2.3644
  134OSM   C10F14568   2.103   2.874   8.260 -0.8400  0.5976  0.6656
  134OSM   H10F14569   2.135   2.961   8.320  4.2850 -1.3724  1.2234
  134OSM   C11F14570   2.131   2.738   8.322  0.0260  0.2877 -0.7434
  134OSM   H11F14571   2.220   2.757   8.386 -0.8015  1.8712 -0.0012
  134OSM   H11G14572   2.166   2.655   8.257 -0.5592  0.5766 -1.4380
  134OSM   C12F14573   2.021   2.699   8.424  0.2467 -0.1193  0.0421
  134OSM   H12F14574   1.925   2.701   8.369 -0.2129  0.6725  0.8394
  134OSM   H12G14575   2.012   2.787   8.492  1.2402  0.8315 -1.0143
  134OSM   C13F14576   2.034   2.570   8.503  0.0110 -0.0878  0.5301
  134OSM   H13F14577   2.001   2.484   8.441 -4.0215  0.9896  0.9239
  134OSM   H13G14578   1.953   2.576   8.578  0.5521 -1.5331  1.2577
  134OSM   C14F14579   2.167   2.556   8.564 -0.5450  0.3148 -0.3781
  134OSM   H14F14580   2.181   2.638   8.637  0.5308 -0.3637  0.2066
  134OSM   H14G14581   2.247   2.573   8.489  1.7423  3.3971  2.4582
  134OSM   C15F14582   2.181   2.412   8.624  0.2105 -0.6795  0.9872
  134OSM   H15F14583   2.211   2.347   8.540  1.1234  1.1478 -0.1470
  134OSM   H15G14584   2.080   2.377   8.655  0.5266 -2.9630 -0.3340
  134OSM   C16F14585   2.276   2.407   8.742  0.1617 -0.3264 -0.0401
  134OSM   H16F14586   2.374   2.452   8.716  0.0637  0.9452  1.5734
  134OSM   H16G14587   2.294   2.299   8.757 -0.1593 -0.3952 -0.1343
  134OSM   C17F14588   2.213   2.462   8.869  0.7402 -0.0668 -0.5014
  134OSM   H17F14589   2.109   2.424   8.856  0.7483 -0.3532  0.2085
  134OSM   H17G14590   2.217   2.572   8.881  0.7399 -0.1052 -0.1277
  134OSM   C18F14591   2.283   2.402   8.994 -0.4206  1.0164  0.2346
  134OSM   H18F14592   2.382   2.451   9.007  0.0370 -0.3648  2.4669
  134OSM   H18G14593   2.294   2.292   8.986 -1.3841  0.9940 -1.1082
  134OSM   H18H14594   2.228   2.429   9.087 -1.0457  0.7786 -0.0570
  135OSM      N14595   1.830   2.497   6.345  0.1255  0.3205  0.9247
  135OSM    C1514596   1.771   2.397   6.252 -0.2330 -0.3452  0.4951
  135OSM   H15A14597   1.686   2.439   6.201 -0.1254  0.3992  0.9143
  135OSM   H15B14598   1.726   2.314   6.304  1.6739 -0.5227  1.9710
  135OSM   H15C14599   1.842   2.353   6.183 -1.1559  0.6353 -1.1463
  135OSM    C1414600   1.961   2.441   6.385  0.4298 -0.1445  0.0748
  135OSM   H14A14601   1.951   2.336   6.408 -0.9367 -0.0758 -0.1131
  135OSM   H14B14602   1.995   2.508   6.462  1.2641 -0.4627 -0.0111
  135OSM   H14C14603   2.031   2.435   6.303  1.2999  0.4631  0.7603
  135OSM    C1314604   1.841   2.634   6.280 -0.6095  0.3583 -0.5945
  135OSM   H13A14605   1.894   2.699   6.348 -0.4539 -2.6588  2.4993
  135OSM   H13B14606   1.739   2.667   6.267 -0.2542  2.0066  0.5494
  135OSM   H13C14607   1.893   2.623   6.186 -0.3285  1.2818 -0.5575
  135OSM    C1214608   1.739   2.501   6.470 -0.4355 -0.1530 -0.1016
  135OSM   H12A14609   1.724   2.397   6.492  0.9511 -0.9578 -2.5264
  135OSM   H12B14610   1.641   2.538   6.447 -1.0485  0.8931  3.5155
  135OSM    C1114611   1.799   2.592   6.586  0.2667  0.1725 -0.1790
  135OSM   H11A14612   1.900   2.553   6.607  0.7645  0.7760 -1.3145
  135OSM   H11B14613   1.729   2.556   6.664  0.7427 -0.4595 -0.0384
  135OSM      P14614   1.652   2.801   6.533  0.1668 -0.3861 -0.0583
  135OSM    O1314615   1.666   2.946   6.495 -0.0642  1.0853 -0.0275
  135OSM    O1414616   1.564   2.715   6.447  0.1058 -0.2646  0.5367
  135OSM    O1114617   1.594   2.787   6.675  0.5396  0.6978 -0.1696
  135OSM    O1214618   1.790   2.729   6.554 -0.2934  0.0051 -0.2820
  135OSM    C1S14619   1.665   2.846   6.789  0.2606  0.4443 -0.2468
  135OSM    H1S14620   1.668   2.957   6.784  2.2816  0.3794 -2.1985
  135OSM    H1T14621   1.762   2.793   6.797 -0.4377 -1.0041 -0.9822
  135OSM     NF14622   1.646   2.870   7.043 -0.5393 -0.2004  0.3543
  135OSM    HNF14623   1.704   2.822   7.107 -3.0205 -1.1666  2.0371
  135OSM    C2S14624   1.587   2.800   6.926 -0.2582 -0.1227 -0.0999
  135OSM    H2S14625   1.482   2.836   6.931  0.1536  1.0524  4.4304
  135OSM    C3S14626   1.581   2.644   6.939 -0.0382 -0.1571 -0.3240
  135OSM    H3S14627   1.685   2.603   6.940  0.2963  0.6399  0.8625
  135OSM     O314628   1.502   2.579   6.837  0.0959 -0.0393  0.0810
  135OSM    HO314629   1.486   2.651   6.776 -3.7240  1.9859  3.0674
  135OSM    C4S14630   1.521   2.595   7.071 -0.6185 -0.6708 -0.8346
  135OSM    H4S14631   1.413   2.614   7.082 -0.4802  1.1432 -2.1890
  135OSM    C5S14632   1.585   2.535   7.173  0.5058  0.0731 -0.2770
  135OSM    H5S14633   1.694   2.520   7.174  0.7051  0.9321  3.5335
  135OSM    C6S14634   1.514   2.484   7.296  0.1268 -0.3672 -0.2248
  135OSM    H6S14635   1.546   2.381   7.322  0.9440  0.3925  2.1398
  135OSM    H6T14636   1.403   2.482   7.289  0.1162  0.7699 -0.6319
  135OSM    C7S14637   1.547   2.575   7.424 -0.3157  0.7203  0.1868
  135OSM    H7S14638   1.513   2.680   7.409  1.1953  1.2439  0.2216
  135OSM    H7T14639   1.658   2.575   7.438 -0.6863  1.3263  4.1903
  135OSM    C8S14640   1.485   2.518   7.551  0.3493 -0.1622 -0.5811
  135OSM    H8S14641   1.526   2.415   7.559  2.5106  0.7900  2.4509
  135OSM    H8T14642   1.375   2.524   7.539  0.3162  0.9949  0.0926
  135OSM    C9S14643   1.529   2.594   7.684 -0.1120  0.2841  0.3601
  135OSM    H9S14644   1.503   2.701   7.671  1.1646  0.5393 -0.1623
  135OSM    H9T14645   1.639   2.587   7.699 -0.1694  0.7835  1.1043
  135OSM   C10S14646   1.462   2.531   7.812  0.1081 -0.4709 -0.2191
  135OSM   H10S14647   1.351   2.528   7.801  0.0805 -2.0969  0.3613
  135OSM   H10T14648   1.485   2.601   7.895  1.7935 -1.0364 -0.1742
  135OSM   C11S14649   1.510   2.396   7.856  0.2832 -0.5583 -0.2611
  135OSM   H11S14650   1.487   2.321   7.777 -1.0735  0.0593 -0.4896
  135OSM   H11T14651   1.457   2.361   7.947  1.5172 -2.5728 -0.2562
  135OSM   C12S14652   1.663   2.400   7.891  0.2783  0.1953 -0.2200
  135OSM   H12S14653   1.693   2.488   7.952  0.5806  0.4234 -0.6923
  135OSM   H12T14654   1.717   2.405   7.794 -0.7602  1.4235 -0.7625
  135OSM   C13S14655   1.698   2.281   7.972  0.2195  0.3022  0.0088
  135OSM   H13S14656   1.696   2.188   7.912 -1.2107  2.0051 -2.7601
  135OSM   H13T14657   1.629   2.274   8.058 -2.9678  0.6680 -2.3622
  135OSM   C14S14658   1.845   2.298   8.021  0.0919  0.0651  0.0994
  135OSM   H14S14659   1.853   2.386   8.089  2.9981  0.5070 -0.6852
  135OSM   H14T14660   1.916   2.316   7.938  0.6613 -0.8241  0.3862
  135OSM   C15S14661   1.891   2.180   8.104  0.0779  0.3328  0.4631
  135OSM   H15S14662   1.858   2.090   8.048 -0.2977  0.0735  1.0939
  135OSM   H15T14663   1.851   2.189   8.207  0.2618  1.9137  0.4211
  135OSM   C16S14664   2.047   2.168   8.115 -0.3105 -0.1532 -0.4062
  135OSM   H16S14665   2.086   2.173   8.011 -1.8131  2.6702 -0.9083
  135OSM   H16T14666   2.071   2.067   8.155 -1.3783  0.2102  1.2587
  135OSM   C17S14667   2.103   2.283   8.211 -0.7194  0.3674 -0.5286
  135OSM   H17S14668   2.056   2.283   8.312  0.9787 -0.3172  0.3003
  135OSM   H17T14669   2.087   2.382   8.163 -1.7474  0.4256 -0.1029
  135OSM   C18S14670   2.252   2.249   8.240  0.3484  0.0398  0.4225
  135OSM   H18S14671   2.254   2.153   8.297  0.9836 -1.3024 -1.7352
  135OSM   H18T14672   2.293   2.331   8.302 -0.6567  0.6700  0.2702
  135OSM   H18U14673   2.299   2.243   8.139 -0.2280  2.0244 -0.0059
  135OSM    C1F14674   1.645   3.005   7.058  0.3991 -0.9468  0.6809
  135OSM     OF14675   1.591   3.084   6.976  0.1765  0.2540 -0.2297
  135OSM    C2F14676   1.712   3.055   7.177  0.5811  0.0033  0.4068
  135OSM    H2F14677   1.727   3.165   7.170  0.5990 -0.0836 -1.4252
  135OSM    H2G14678   1.813   3.012   7.190  0.4647 -0.9110 -1.4320
  135OSM    C3F14679   1.623   3.027   7.294 -0.1272  0.4796 -0.4842
  135OSM    H3F14680   1.609   2.920   7.321 -2.0823  1.1199  1.3277
  135OSM    H3G14681   1.520   3.067   7.280  0.7753  2.6135 -1.3980
  135OSM    C4F14682   1.673   3.098   7.421 -0.1829  0.1406 -0.4670
  135OSM    H4F14683   1.642   3.205   7.425 -2.3709 -0.4759  1.4406
  135OSM    H4G14684   1.783   3.086   7.415 -0.1071  1.4252 -2.5254
  135OSM    C5F14685   1.621   3.043   7.552  0.2543 -0.3878  0.2868
  135OSM    H5F14686   1.619   2.932   7.554 -1.3660 -0.3756  0.6105
  135OSM    H5G14687   1.517   3.078   7.570  0.1068 -0.0309 -1.1722
  135OSM    C6F14688   1.705   3.075   7.676 -0.4822  0.4218 -0.3692
  135OSM    H6F14689   1.749   3.177   7.674 -0.7493  0.5443  0.0365
  135OSM    H6G14690   1.783   2.997   7.689  0.4999  1.5329  0.6808
  135OSM    C7F14691   1.617   3.083   7.804  1.2103  0.4465  0.4951
  135OSM    H7F14692   1.525   3.134   7.768  2.3633  1.4679 -1.1478
  135OSM    H7G14693   1.665   3.146   7.883 -2.0386  0.5302  2.6143
  135OSM    C8F14694   1.578   2.948   7.870  0.5900  0.8197 -0.7747
  135OSM    H8F14695   1.669   2.895   7.905  0.0745 -1.6734 -2.8978
  135OSM    H8G14696   1.536   2.894   7.782  0.7774  0.7433 -0.8163
  135OSM    C9F14697   1.471   2.958   7.974  0.6527 -0.2397  0.6387
  135OSM    H9F14698   1.375   2.994   7.932  0.2666 -0.4641  1.3124
  135OSM   C10F14699   1.467   2.902   8.095  0.4183 -0.1592  0.1904
  135OSM   H10F14700   1.377   2.915   8.158 -0.9541 -0.9154 -1.5371
  135OSM   C11F14701   1.575   2.814   8.161  0.2235 -0.2586 -0.0551
  135OSM   H11F14702   1.613   2.867   8.251  0.1325  0.6232 -0.5304
  135OSM   H11G14703   1.659   2.789   8.092 -1.1369  0.3942 -2.0279
  135OSM   C12F14704   1.526   2.671   8.210  0.4735  0.2074  0.0847
  135OSM   H12F14705   1.445   2.644   8.139  0.6309  1.0425 -0.4362
  135OSM   H12G14706   1.466   2.675   8.303  1.0382 -3.5240  0.7513
  135OSM   C13F14707   1.619   2.550   8.225 -0.0624 -0.1887 -0.7800
  135OSM   H13F14708   1.696   2.551   8.145  1.1308  2.7536  0.2694
  135OSM   H13G14709   1.554   2.459   8.220 -1.3670  0.5586  1.2849
  135OSM   C14F14710   1.683   2.545   8.365 -0.4257  0.0469  0.0053
  135OSM   H14F14711   1.739   2.640   8.383  0.1799  0.3913 -3.0995
  135OSM   H14G14712   1.764   2.469   8.365  0.2304  0.7308  0.2694
  135OSM   C15F14713   1.594   2.511   8.479 -0.7168  0.2114  0.1723
  135OSM   H15F14714   1.545   2.415   8.453  0.2420 -0.0496 -0.7162
  135OSM   H15G14715   1.511   2.585   8.481 -0.6623  0.5004 -3.1823
  135OSM   C16F14716   1.681   2.505   8.610  0.3378  0.1927 -0.4579
  135OSM   H16F14717   1.608   2.542   8.684  0.1542 -0.0301 -0.5272
  135OSM   H16G14718   1.758   2.585   8.606  0.8831 -0.1441  1.8282
  135OSM   C17F14719   1.733   2.366   8.656 -0.5642  0.1350 -0.5116
  135OSM   H17F14720   1.790   2.321   8.572 -0.1622 -1.5663  0.6128
  135OSM   H17G14721   1.642   2.303   8.669 -0.0939 -0.1688  1.7825
  135OSM   C18F14722   1.819   2.363   8.784  0.2104 -0.3207  0.0928
  135OSM   H18F14723   1.763   2.391   8.875  2.4220 -0.0351  1.4332
  135OSM   H18G14724   1.904   2.435   8.778 -0.8731  1.1396  1.3942
  135OSM   H18H14725   1.867   2.264   8.800  0.2647 -0.6211 -1.7431
  136OSM      N14726   0.861   3.531   6.586  0.0678 -0.3739 -0.0797
  136OSM    C1514727   0.742   3.611   6.636 -0.0866 -0.1264 -0.2651
  136OSM   H15A14728   0.713   3.677   6.556  0.4199  1.7755  1.0590
  136OSM   H15B14729   0.777   3.669   6.720 -0.8248  1.1301 -0.8045
  136OSM   H15C14730   0.654   3.559   6.673 -0.4673 -0.0412 -1.0336
  136OSM    C1414731   0.927   3.443   6.685  0.1251  0.2051 -0.0012
  136OSM   H14A14732   0.955   3.496   6.775 -0.9088 -0.6847  0.8775
  136OSM   H14B14733   1.014   3.392   6.645 -0.3817  0.4937 -1.5121
  136OSM   H14C14734   0.861   3.364   6.720  1.4693 -0.4217  1.2515
  136OSM    C1314735   0.817   3.454   6.467  1.3148  0.2001 -0.2998
  136OSM   H13A14736   0.893   3.393   6.422  0.5378 -0.2915 -0.9707
  136OSM   H13B14737   0.768   3.518   6.396  0.4261  0.4516  0.5104
  136OSM   H13C14738   0.736   3.390   6.500  0.3301  1.7811  0.4411
  136OSM    C1214739   0.970   3.628   6.540 -0.9569  0.8938  0.2793
  136OSM   H12A14740   1.061   3.576   6.515 -1.4200  0.6857 -1.0695
  136OSM   H12B14741   1.000   3.687   6.625  1.3967 -0.4730  0.4761
  136OSM    C1114742   0.933   3.722   6.421 -0.4671  0.1844 -0.3036
  136OSM   H11A14743   0.925   3.658   6.331 -2.0179 -2.8942  1.8469
  136OSM   H11B14744   1.019   3.790   6.408 -0.0615 -0.7693 -3.6022
  136OSM      P14745   0.690   3.805   6.350 -0.3219 -0.0197  0.6544
  136OSM    O1314746   0.721   3.832   6.206  0.1464  0.3494  0.5135
  136OSM    O1414747   0.609   3.681   6.378  0.4085  0.4783 -0.3474
  136OSM    O1114748   0.604   3.930   6.404  0.2415 -0.1664  0.4603
  136OSM    O1214749   0.817   3.810   6.446 -0.6414 -0.5474  0.1887
  136OSM    C1S14750   0.541   3.938   6.528  0.1798  0.4984 -0.1717
  136OSM    H1S14751   0.571   3.848   6.586 -3.4989 -1.4816 -1.0122
  136OSM    H1T14752   0.431   3.941   6.515  0.1095 -2.1339 -0.8366
  136OSM     NF14753   0.568   4.067   6.744 -0.2834 -0.0375 -0.8518
  136OSM    HNF14754   0.506   4.140   6.772 -0.1891 -0.3766  0.3121
  136OSM    C2S14755   0.600   4.067   6.602  0.6752  0.5404  0.0812
  136OSM    H2S14756   0.710   4.051   6.598  0.3144 -2.5070 -0.4275
  136OSM    C3S14757   0.567   4.195   6.531 -0.4214 -0.1569 -0.1392
  136OSM    H3S14758   0.458   4.211   6.541 -0.8471 -2.6779 -0.2412
  136OSM     O314759   0.597   4.191   6.393 -0.0912  0.1415  0.1903
  136OSM    HO314760   0.636   4.104   6.380  1.0265  0.6337  0.0922
  136OSM    C4S14761   0.636   4.313   6.590 -0.2729 -0.1216  1.2513
  136OSM    H4S14762   0.743   4.288   6.602  0.1600  1.3740  0.7243
  136OSM    C5S14763   0.580   4.431   6.626 -0.4040  0.2763  0.2537
  136OSM    H5S14764   0.472   4.442   6.611 -0.7574 -2.1190  0.6853
  136OSM    C6S14765   0.659   4.546   6.684 -0.1424 -0.4581 -0.2643
  136OSM    H6S14766   0.626   4.648   6.655  0.7918  0.7287  2.4977
  136OSM    H6T14767   0.764   4.542   6.647 -0.2158 -1.9037 -0.3609
  136OSM    C7S14768   0.668   4.549   6.842  0.3112 -0.1588  0.1881
  136OSM    H7S14769   0.706   4.447   6.868  0.8165 -0.7053 -2.3842
  136OSM    H7T14770   0.564   4.570   6.873 -0.4512 -2.6912 -0.4010
  136OSM    C8S14771   0.764   4.653   6.904 -0.2497  0.3556 -0.2377
  136OSM    H8S14772   0.738   4.759   6.886 -0.8784  0.3943  0.7997
  136OSM    H8T14773   0.868   4.621   6.886  0.1989  0.6324  1.6960
  136OSM    C9S14774   0.765   4.646   7.062 -0.1356 -0.0750 -0.2834
  136OSM    H9S14775   0.853   4.701   7.101  1.2823 -3.2157  1.3935
  136OSM    H9T14776   0.790   4.541   7.091  0.7487 -0.5155 -2.4038
  136OSM   C10S14777   0.639   4.703   7.124  0.1823 -0.3283 -0.5697
  136OSM   H10S14778   0.559   4.626   7.129 -0.0800 -0.2656 -2.9560
  136OSM   H10T14779   0.593   4.781   7.059  1.0939  1.0345  0.3608
  136OSM   C11S14780   0.678   4.760   7.259 -0.3194  0.2727  0.4283
  136OSM   H11S14781   0.763   4.829   7.240  0.1435 -0.4635 -0.2531
  136OSM   H11T14782   0.704   4.676   7.326 -3.1959 -0.5809  0.6137
  136OSM   C12S14783   0.546   4.830   7.320 -0.4195 -0.4423  0.1102
  136OSM   H12S14784   0.454   4.768   7.318 -1.3533  0.9300 -1.3647
  136OSM   H12T14785   0.536   4.921   7.257 -1.0655 -0.5368  0.0685
  136OSM   C13S14786   0.583   4.888   7.458  0.4232  0.0311 -0.6904
  136OSM   H13S14787   0.529   4.982   7.483  1.6565  0.9283 -1.3003
  136OSM   H13T14788   0.693   4.897   7.461  0.5508 -0.8860 -1.8055
  136OSM   C14S14789   0.539   4.795   7.564 -0.4218  0.2796 -0.6918
  136OSM   H14S14790   0.563   4.692   7.531  0.8122  0.0798  0.7233
  136OSM   H14T14791   0.429   4.800   7.582  0.1110  0.6624  3.3541
  136OSM   C15S14792   0.592   4.814   7.714  0.4469 -0.7098  0.7794
  136OSM   H15S14793   0.564   4.910   7.764 -0.3158 -0.3610 -0.2926
  136OSM   H15T14794   0.703   4.814   7.717  0.5192  0.7177 -0.4718
  136OSM   C16S14795   0.552   4.695   7.807  0.0016  0.1009 -0.4438
  136OSM   H16S14796   0.571   4.602   7.750  0.1478 -0.3667  0.3591
  136OSM   H16T14797   0.441   4.707   7.803  0.1968  2.3139 -0.4663
  136OSM   C17S14798   0.611   4.703   7.942 -0.6836  0.3757  0.4948
  136OSM   H17S14799   0.593   4.805   7.982 -0.6910  0.6879 -0.2833
  136OSM   H17T14800   0.720   4.680   7.946 -1.0282 -1.9796 -1.2575
  136OSM   C18S14801   0.544   4.600   8.050  0.2509  0.1852 -0.5414
  136OSM   H18S14802   0.516   4.506   7.998  2.5183 -0.8485 -0.0182
  136OSM   H18T14803   0.459   4.641   8.109  0.8928  0.2324  0.3729
  136OSM   H18U14804   0.623   4.578   8.125 -2.2539 -1.5340  1.7538
  136OSM    C1F14805   0.609   3.979   6.838  0.3400 -0.1834 -0.0096
  136OSM     OF14806   0.691   3.886   6.811 -0.1176  0.3426  0.1406
  136OSM    C2F14807   0.534   3.980   6.966  0.3478  0.4923  0.3607
  136OSM    H2F14808   0.552   3.890   7.028 -1.2291 -0.1838 -0.1188
  136OSM    H2G14809   0.425   3.982   6.945  0.5792  0.1012 -0.9749
  136OSM    C3F14810   0.579   4.098   7.061  1.1172 -0.2910 -0.2747
  136OSM    H3F14811   0.536   4.191   7.018 -1.3628 -1.1276  0.2248
  136OSM    H3G14812   0.689   4.107   7.070  1.1180 -1.3459  1.2788
  136OSM    C4F14813   0.526   4.083   7.208 -0.4970  0.3835  0.5212
  136OSM    H4F14814   0.557   3.991   7.262  2.0317  1.7016  1.4956
  136OSM    H4G14815   0.415   4.082   7.199 -0.4300  0.1276 -0.3530
  136OSM    C5F14816   0.570   4.193   7.304 -0.3821 -0.0308  1.1970
  136OSM    H5F14817   0.543   4.286   7.250 -0.3149 -0.6977 -0.0153
  136OSM    H5G14818   0.681   4.194   7.308 -0.3894 -0.0487  1.4372
  136OSM    C6F14819   0.514   4.167   7.443 -0.7128  0.2183  0.7228
  136OSM    H6F14820   0.541   4.071   7.493 -0.0938  0.4732  0.8837
  136OSM    H6G14821   0.406   4.167   7.417 -0.5925 -1.6542  0.0528
  136OSM    C7F14822   0.534   4.286   7.538  0.3003 -0.7045 -0.0405
  136OSM    H7F14823   0.517   4.387   7.495 -1.8578 -0.5439  1.0722
  136OSM    H7G14824   0.643   4.297   7.556  0.3506 -0.5488 -0.4201
  136OSM    C8F14825   0.458   4.277   7.671 -0.6834  0.2302  0.2685
  136OSM    H8F14826   0.354   4.241   7.659 -0.9709  1.9167 -3.4951
  136OSM    H8G14827   0.452   4.381   7.711  1.7072  1.1343 -1.4848
  136OSM    C9F14828   0.537   4.189   7.769 -0.2515 -0.6152 -0.1677
  136OSM    H9F14829   0.644   4.175   7.746 -0.0047 -0.5171  0.8671
  136OSM   C10F14830   0.482   4.120   7.869  0.5800 -0.2370  0.3273
  136OSM   H10F14831   0.555   4.082   7.941 -0.0135  1.8285  2.1213
  136OSM   C11F14832   0.328   4.117   7.901  0.3365  0.0418 -0.1827
  136OSM   H11F14833   0.281   4.025   7.861 -1.6553  0.0617  1.9342
  136OSM   H11G14834   0.272   4.207   7.869 -1.1457 -0.6557  0.3674
  136OSM   C12F14835   0.314   4.100   8.055 -0.0614 -0.3609 -0.1501
  136OSM   H12F14836   0.352   4.000   8.083 -2.8884 -1.5858 -0.3314
  136OSM   H12G14837   0.203   4.096   8.061 -0.3932  0.2174 -3.6467
  136OSM   C13F14838   0.373   4.214   8.145 -0.5965 -0.5254 -0.1303
  136OSM   H13F14839   0.350   4.316   8.106 -3.6263  0.0367  2.6514
  136OSM   H13G14840   0.483   4.199   8.155 -0.2855  1.9553  0.8702
  136OSM   C14F14841   0.322   4.201   8.289 -0.1685 -0.1179 -0.3119
  136OSM   H14F14842   0.351   4.106   8.340  1.4744  1.5588  2.0977
  136OSM   H14G14843   0.211   4.196   8.287 -0.1507 -0.3473 -1.2476
  136OSM   C15F14844   0.365   4.322   8.379 -0.4718  0.6754 -0.6064
  136OSM   H15F14845   0.309   4.410   8.339  1.4903  2.0559 -0.4927
  136OSM   H15G14846   0.475   4.336   8.369 -0.3346 -0.8799 -1.6155
  136OSM   C16F14847   0.338   4.284   8.530 -0.5867 -0.0878  0.6862
  136OSM   H16F14848   0.366   4.179   8.551 -1.3829 -0.0243  2.1779
  136OSM   H16G14849   0.230   4.284   8.552 -0.8821 -1.4801 -0.6038
  136OSM   C17F14850   0.409   4.381   8.624  0.0947  0.6688  0.1463
  136OSM   H17F14851   0.377   4.487   8.613 -0.7591  0.4106  0.0663
  136OSM   H17G14852   0.518   4.371   8.606 -0.1147 -2.1198  0.0661
  136OSM   C18F14853   0.401   4.343   8.767  0.7455 -0.4283  0.2176
  136OSM   H18F14854   0.442   4.241   8.783 -0.4769 -0.9089  0.3723
  136OSM   H18G14855   0.294   4.346   8.797 -0.3974  0.3646 -3.3595
  136OSM   H18H14856   0.433   4.423   8.837 -3.4539 -0.4805  2.5004
  137OSM      N14857   2.758   3.021   6.166  0.1463  0.2573  0.1465
  137OSM    C1514858   2.899   2.986   6.149 -0.0852 -0.8901  0.0779
  137OSM   H15A14859   2.945   2.909   6.209  1.5140 -0.0182  0.0301
  137OSM   H15B14860   2.961   3.072   6.167 -1.2955 -0.2500  1.3202
  137OSM   H15C14861   2.917   2.959   6.046  0.3913 -1.0408  0.1952
  137OSM    C1414862   2.730   3.145   6.094  0.2987 -0.6786  0.2044
  137OSM   H14A14863   2.806   3.148   6.017 -2.4691  1.2100 -2.6950
  137OSM   H14B14864   2.755   3.228   6.159 -0.4965  1.3765 -1.9607
  137OSM   H14C14865   2.631   3.151   6.053  2.1269 -0.0254 -4.8149
  137OSM    C1314866   2.672   2.910   6.100 -0.6084  0.3846 -0.9971
  137OSM   H13A14867   2.667   2.924   5.993  0.8548  1.2446 -0.9852
  137OSM   H13B14868   2.569   2.918   6.133 -0.3854 -0.0161 -0.1959
  137OSM   H13C14869   2.720   2.817   6.126 -2.3338 -0.3232 -0.1565
  137OSM    C1214870   2.727   3.024   6.318 -0.6054  0.7351 -0.5000
  137OSM   H12A14871   2.783   2.942   6.363 -2.9125  0.8511  2.9434
  137OSM   H12B14872   2.622   3.012   6.339 -0.5377  2.8137  1.3395
  137OSM    C1114873   2.778   3.143   6.400  0.2722  0.2513 -0.4037
  137OSM   H11A14874   2.884   3.172   6.381 -0.1059  2.0208 -0.0662
  137OSM   H11B14875   2.780   3.097   6.501  0.4631 -0.0835 -0.5593
  137OSM      P14876   2.546   3.248   6.464 -0.1204 -0.4476  0.1808
  137OSM    O1314877   2.478   3.376   6.446 -0.3310 -1.0165 -0.0521
  137OSM    O1414878   2.470   3.130   6.416 -0.5230  0.3963 -0.6285
  137OSM    O1114879   2.578   3.229   6.617 -0.5352 -0.2043  0.0897
  137OSM    O1214880   2.692   3.256   6.394 -0.9406 -0.2193  0.3906
  137OSM    C1S14881   2.673   3.331   6.664  0.0107  0.0423 -0.3976
  137OSM    H1S14882   2.651   3.429   6.616  1.2477  0.7307  0.3977
  137OSM    H1T14883   2.775   3.300   6.633 -0.1609 -0.1884 -0.7365
  137OSM     NF14884   2.767   3.473   6.837  0.1386  0.6177  0.1721
  137OSM    HNF14885   2.859   3.448   6.866  0.3101 -1.7715 -2.1175
  137OSM    C2S14886   2.681   3.358   6.819  0.0312  0.3549 -0.6493
  137OSM    H2S14887   2.580   3.382   6.860  0.6028 -1.3958  1.9519
  137OSM    C3S14888   2.718   3.232   6.897  0.4914  0.0974  0.1533
  137OSM    H3S14889   2.819   3.201   6.862 -1.8554 -2.5684 -5.6400
  137OSM     O314890   2.623   3.129   6.863 -0.1777  0.4617  0.8321
  137OSM    HO314891   2.562   3.163   6.797 -0.0466 -1.3706 -0.2969
  137OSM    C4S14892   2.718   3.248   7.046  0.1323  0.7869 -0.3269
  137OSM    H4S14893   2.815   3.294   7.071  0.4088  0.1086 -0.1467
  137OSM    C5S14894   2.623   3.201   7.135  0.0887 -0.0013 -0.2407
  137OSM    H5S14895   2.542   3.139   7.094  0.2247  0.1304 -0.7150
  137OSM    C6S14896   2.622   3.223   7.283  0.3922 -0.4002 -0.3384
  137OSM    H6S14897   2.566   3.137   7.326  1.8499 -0.2979  1.9659
  137OSM    H6T14898   2.573   3.322   7.293  1.0267 -0.0139 -0.9467
  137OSM    C7S14899   2.759   3.225   7.357  0.3141 -0.8606  0.3780
  137OSM    H7S14900   2.826   3.309   7.330  2.0406 -2.5010 -0.6764
  137OSM    H7T14901   2.817   3.137   7.323  2.0210  0.8385 -1.4192
  137OSM    C8S14902   2.750   3.203   7.503  0.5926 -0.7742  0.3318
  137OSM    H8S14903   2.855   3.179   7.530  1.1715 -0.2908 -1.3480
  137OSM    H8T14904   2.697   3.112   7.538  0.0048  0.1894  2.1013
  137OSM    C9S14905   2.716   3.325   7.586  0.0128 -0.0595 -0.8881
  137OSM    H9S14906   2.611   3.361   7.583 -0.2962 -0.3669  2.4922
  137OSM    H9T14907   2.774   3.413   7.552 -1.0599  1.1646  0.3347
  137OSM   C10S14908   2.730   3.298   7.737  0.8274  0.5150  0.3888
  137OSM   H10S14909   2.835   3.265   7.751  1.3888  1.6356 -0.8556
  137OSM   H10T14910   2.679   3.206   7.771 -1.5611  0.2623 -3.2083
  137OSM   C11S14911   2.694   3.418   7.827  0.3125  0.3522 -0.1450
  137OSM   H11S14912   2.586   3.442   7.815  0.8522  1.7673 -2.9578
  137OSM   H11T14913   2.754   3.507   7.798  1.7364 -0.2480  0.8185
  137OSM   C12S14914   2.735   3.394   7.976 -0.5905  0.7170  0.5665
  137OSM   H12S14915   2.840   3.358   7.987 -0.0115  1.6348 -1.5075
  137OSM   H12T14916   2.676   3.307   8.014 -2.3080  1.5177 -0.1654
  137OSM   C13S14917   2.696   3.521   8.058 -0.5292  0.1197  0.0881
  137OSM   H13S14918   2.585   3.527   8.058 -0.4974  0.8899  0.4234
  137OSM   H13T14919   2.734   3.609   8.001 -0.1921  0.3935  0.7155
  137OSM   C14S14920   2.726   3.514   8.214  0.1867  0.1596  0.4117
  137OSM   H14S14921   2.691   3.415   8.251 -0.1898  0.3916  0.6818
  137OSM   H14T14922   2.665   3.588   8.270 -0.8244 -0.0766 -0.3437
  137OSM   C15S14923   2.870   3.535   8.244  0.6604 -0.2168  0.5317
  137OSM   H15S14924   2.905   3.639   8.231  0.0237  0.1253  1.4420
  137OSM   H15T14925   2.932   3.475   8.174 -1.3812 -0.1312 -1.4745
  137OSM   C16S14926   2.908   3.509   8.389 -0.4479  0.7730 -0.2501
  137OSM   H16S14927   2.887   3.402   8.408  4.7472 -0.3019  1.0628
  137OSM   H16T14928   2.841   3.572   8.451 -0.0628  1.3650 -0.4208
  137OSM   C17S14929   3.061   3.535   8.413  0.7631  0.0625 -0.0605
  137OSM   H17S14930   3.083   3.633   8.365 -1.9026 -0.9542 -3.8023
  137OSM   H17T14931   3.128   3.459   8.368  1.6592  0.7997 -0.0025
  137OSM   C18S14932   3.099   3.529   8.562  0.2694 -0.2595 -0.6309
  137OSM   H18S14933   3.100   3.426   8.604  2.1230  0.1245  0.3645
  137OSM   H18T14934   3.024   3.583   8.624 -0.5645 -0.6308 -1.3042
  137OSM   H18U14935   3.197   3.581   8.576  0.3103 -0.7749  1.2287
  137OSM    C1F14936   2.734   3.590   6.788  0.9456 -0.8159  0.0052
  137OSM     OF14937   2.616   3.615   6.756 -1.0914 -0.2191 -0.1563
  137OSM    C2F14938   2.836   3.694   6.760  0.0925  0.1745  0.2259
  137OSM    H2F14939   2.786   3.774   6.701 -0.3939 -0.5686 -0.3757
  137OSM    H2G14940   2.909   3.643   6.693  0.8113 -2.3357  2.6951
  137OSM    C3F14941   2.900   3.741   6.889  0.3396  0.1345 -0.3609
  137OSM    H3F14942   2.992   3.802   6.881 -0.5098  2.0868  2.8577
  137OSM    H3G14943   2.926   3.663   6.964  0.2070  1.6935  1.3795
  137OSM    C4F14944   2.812   3.835   6.969 -0.4547 -0.1483  0.0176
  137OSM    H4F14945   2.731   3.785   7.027 -0.7235  0.6831  0.3828
  137OSM    H4G14946   2.764   3.900   6.892  0.9468  1.1220  0.1682
  137OSM    C5F14947   2.895   3.930   7.062  0.6659 -0.8837  0.6183
  137OSM    H5F14948   2.826   4.003   7.108 -0.3180 -0.8636 -0.8554
  137OSM    H5G14949   2.971   3.982   7.000 -0.3546 -0.1656 -0.0643
  137OSM    C6F14950   2.960   3.846   7.176 -0.0203 -0.0964 -0.2793
  137OSM    H6F14951   3.014   3.759   7.135  1.1925  0.7516 -0.5175
  137OSM    H6G14952   2.875   3.810   7.238  0.6050 -2.7564 -0.8391
  137OSM    C7F14953   3.054   3.937   7.257 -0.7662 -0.6688 -0.7840
  137OSM    H7F14954   3.118   3.989   7.182  0.4916 -0.4321  0.4223
  137OSM    H7G14955   3.109   3.879   7.333 -2.0326 -0.6723  0.1638
  137OSM    C8F14956   2.981   4.050   7.330 -0.6203  0.2835  0.3471
  137OSM    H8F14957   2.913   4.104   7.261  0.1580  0.5851 -0.2001
  137OSM    H8G14958   3.064   4.117   7.363 -1.4563  0.5049  2.1317
  137OSM    C9F14959   2.920   4.000   7.455 -0.3122 -0.3945 -0.8205
  137OSM    H9F14960   2.857   3.910   7.447 -0.0951 -0.7128  0.7484
  137OSM   C10F14961   2.938   4.054   7.580 -0.2189  0.6558  0.0063
  137OSM   H10F14962   2.878   4.005   7.658  0.7455 -0.5488  0.0364
  137OSM   C11F14963   3.017   4.172   7.628 -0.0775  0.7278 -0.7938
  137OSM   H11F14964   2.966   4.248   7.691  3.4766  0.7351  2.4197
  137OSM   H11G14965   3.045   4.220   7.531  0.7794 -0.8968 -1.3911
  137OSM   C12F14966   3.150   4.128   7.702  0.0080 -0.2401  0.4363
  137OSM   H12F14967   3.213   4.216   7.725  0.0283  0.1923 -1.2241
  137OSM   H12G14968   3.203   4.075   7.621 -1.2553  0.6581 -1.0451
  137OSM   C13F14969   3.124   4.050   7.836  0.3198 -0.5228  0.0473
  137OSM   H13F14970   3.026   3.998   7.836 -0.4386  0.7876  2.2967
  137OSM   H13G14971   3.106   4.130   7.910 -0.3164 -1.6586  1.1664
  137OSM   C14F14972   3.245   3.963   7.873 -0.1075 -0.5074 -0.1936
  137OSM   H14F14973   3.338   4.021   7.859 -0.3340  0.2344  1.2284
  137OSM   H14G14974   3.234   3.872   7.810 -1.0191 -1.1454  0.8526
  137OSM   C15F14975   3.234   3.927   8.025  0.2961  0.0433  0.2063
  137OSM   H15F14976   3.282   3.827   8.040 -0.4321 -0.3182  0.1382
  137OSM   H15G14977   3.129   3.905   8.052 -0.4707  2.4993 -0.5553
  137OSM   C16F14978   3.307   4.021   8.117  0.5072 -0.5211 -0.0159
  137OSM   H16F14979   3.279   4.125   8.090 -1.2251 -0.8698  0.3034
  137OSM   H16G14980   3.417   4.015   8.109  0.9572  1.5606  2.8831
  137OSM   C17F14981   3.280   3.997   8.268  0.2032  0.4412  0.8275
  137OSM   H17F14982   3.171   4.008   8.282 -0.1974  1.6265 -2.4432
  137OSM   H17G14983   3.324   4.081   8.327  0.4806  0.6139  0.3756
  137OSM   C18F14984   3.332   3.855   8.319 -0.2525 -0.3890 -0.7546
  137OSM   H18F14985   3.276   3.775   8.266 -1.1668 -0.4113  0.2056
  137OSM   H18G14986   3.318   3.842   8.429  0.1963  1.8857 -0.3767
  137OSM   H18H14987   3.443   3.850   8.310 -0.0031  2.0344  0.3174
  138OSM      N14988   2.694   1.732   6.127  0.2502  0.1085  0.2634
  138OSM    C1514989   2.815   1.783   6.199 -0.1370  0.1589  0.2622
  138OSM   H15A14990   2.888   1.703   6.199 -1.6164 -1.2524  0.1105
  138OSM   H15B14991   2.787   1.796   6.303  3.1261 -1.1970  1.4539
  138OSM   H15C14992   2.856   1.868   6.148 -1.5673  0.0372 -1.1834
  138OSM    C1414993   2.625   1.634   6.216 -0.3388 -0.3497  0.1057
  138OSM   H14A14994   2.604   1.682   6.310 -1.5041  1.6667 -1.1140
  138OSM   H14B14995   2.687   1.547   6.231  1.2656  0.3841 -1.7760
  138OSM   H14C14996   2.536   1.601   6.164 -0.4074 -0.3644  0.2332
  138OSM    C1314997   2.609   1.847   6.101 -0.5048  0.2614  0.5866
  138OSM   H13A14998   2.513   1.825   6.055 -1.1316  1.8787  1.0483
  138OSM   H13B14999   2.657   1.928   6.048  1.2923 -0.8062  0.5225
  138OSM   H13C15000   2.591   1.898   6.195 -0.5867  0.1202  0.6482
  138OSM    C1215001   2.729   1.653   5.998  0.5768 -0.1292 -0.0315
  138OSM   H12A15002   2.761   1.723   5.922  0.2136 -0.9653 -0.9716
  138OSM   H12B15003   2.641   1.614   5.950 -0.5767  2.1633  0.1208
  138OSM    C1115004   2.826   1.535   6.015  0.2199  0.6394 -0.2655
  138OSM   H11A15005   2.910   1.578   6.074  0.0498 -1.6892  1.8745
  138OSM   H11B15006   2.858   1.508   5.912 -0.0510  0.8992 -0.4174
  138OSM      P15007   2.863   1.289   6.111 -0.2323  0.0200 -0.0467
  138OSM    O1315008   2.779   1.171   6.123 -0.1207 -0.3966  0.2378
  138OSM    O1415009   2.984   1.281   6.034 -0.4883 -0.5242  0.3734
  138OSM    O1115010   2.913   1.322   6.249  0.2684 -0.0718  0.2480
  138OSM    O1215011   2.770   1.421   6.080  0.4382 -0.5320  0.8891
  138OSM    C1S15012   2.826   1.348   6.363 -0.1423  0.5221 -0.4351
  138OSM    H1S15013   2.753   1.267   6.385  1.2127 -0.9981 -1.3252
  138OSM    H1T15014   2.753   1.427   6.336 -0.6987 -0.3341 -1.4763
  138OSM     NF15015   2.819   1.371   6.609  0.6223  0.1830 -0.0124
  138OSM    HNF15016   2.787   1.455   6.652  1.3984  0.2442  0.4543
  138OSM    C2S15017   2.902   1.393   6.491 -0.5899 -0.4854 -0.2028
  138OSM    H2S15018   2.992   1.330   6.511 -0.8585 -0.8107 -0.0093
  138OSM    C3S15019   2.946   1.538   6.472  0.5453 -0.2184 -0.4957
  138OSM    H3S15020   2.856   1.602   6.456  0.4383 -0.1816  0.2397
  138OSM     O315021   3.026   1.563   6.361 -0.0749  0.5632  0.3552
  138OSM    HO315022   3.023   1.484   6.307 -2.0879  2.8428 -3.3182
  138OSM    C4S15023   3.020   1.576   6.590 -0.3830 -0.7785 -0.7856
  138OSM    H4S15024   3.120   1.534   6.608 -0.3929  0.1023  1.6892
  138OSM    C5S15025   2.977   1.677   6.662 -0.0301  0.1603  0.0346
  138OSM    H5S15026   2.887   1.727   6.626  0.2287  0.4767 -0.1772
  138OSM    C6S15027   3.040   1.740   6.786 -0.4687 -0.2312 -0.1251
  138OSM    H6S15028   3.066   1.842   6.752  1.6835 -0.7254 -0.1298
  138OSM    H6T15029   3.146   1.710   6.803  0.1880  1.8255 -0.3596
  138OSM    C7S15030   2.952   1.738   6.914  0.1568  0.7961  0.8983
  138OSM    H7S15031   2.944   1.629   6.935  3.9049  0.2783  0.3644
  138OSM    H7T15032   2.856   1.786   6.886  0.4470  0.8258 -0.1080
  138OSM    C8S15033   3.014   1.789   7.042  0.3204  0.1219  0.0915
  138OSM    H8S15034   3.059   1.889   7.027  1.5145  0.1145  2.9671
  138OSM    H8T15035   3.092   1.718   7.077 -0.6555 -2.2211 -2.1028
  138OSM    C9S15036   2.914   1.803   7.158 -0.3216 -0.3048  0.2387
  138OSM    H9S15037   2.886   1.696   7.173  1.5819 -0.5903  2.2046
  138OSM    H9T15038   2.828   1.862   7.119  0.1679 -0.2939 -0.8584
  138OSM   C10S15039   2.974   1.869   7.283  0.3741  0.3860 -0.2554
  138OSM   H10S15040   3.010   1.970   7.254 -2.5059  1.8401  0.8832
  138OSM   H10T15041   3.058   1.805   7.317  0.3451  1.1022  1.2392
  138OSM   C11S15042   2.874   1.887   7.397 -0.0946  0.3982 -0.4388
  138OSM   H11S15043   2.816   1.794   7.417  0.8074 -0.1961 -0.5408
  138OSM   H11T15044   2.807   1.972   7.371 -0.0417  0.4842 -0.2935
  138OSM   C12S15045   2.942   1.916   7.539 -0.6289  0.4578 -0.1130
  138OSM   H12S15046   2.865   1.951   7.610  0.2725  0.1302  1.0545
  138OSM   H12T15047   3.023   1.991   7.534 -1.3789  1.2612 -0.3795
  138OSM   C13S15048   2.996   1.786   7.604 -0.0426 -0.0188  0.2213
  138OSM   H13S15049   3.081   1.740   7.548 -1.0728 -1.0850 -0.5076
  138OSM   H13T15050   2.919   1.706   7.599 -0.0894  0.0265  0.2161
  138OSM   C14S15051   3.039   1.814   7.749 -0.1692  0.0095  0.2771
  138OSM   H14S15052   3.067   1.719   7.799  0.4870  0.0714  0.0365
  138OSM   H14T15053   2.941   1.843   7.794 -0.6140  2.7097 -2.0955
  138OSM   C15S15054   3.144   1.922   7.772  0.8574  0.5607 -0.4037
  138OSM   H15S15055   3.089   2.018   7.767 -1.5169 -0.7169 -0.2550
  138OSM   H15T15056   3.222   1.921   7.692  1.3104  0.6912  0.0281
  138OSM   C16S15057   3.211   1.899   7.915 -0.5928 -0.1687  0.1874
  138OSM   H16S15058   3.291   1.975   7.922  1.6787 -2.2954 -1.0697
  138OSM   H16T15059   3.261   1.801   7.928  4.3264  2.1691  1.3454
  138OSM   C17S15060   3.108   1.941   8.020 -0.4242 -0.1608 -0.3085
  138OSM   H17S15061   3.009   1.889   8.015 -0.8943  0.7919 -1.4227
  138OSM   H17T15062   3.077   2.047   8.005 -1.7885 -0.6631 -1.3130
  138OSM   C18S15063   3.166   1.920   8.164  0.2621  0.1984  0.2437
  138OSM   H18S15064   3.091   1.934   8.245 -0.5639  2.0139 -0.7623
  138OSM   H18T15065   3.253   1.988   8.175  0.7306 -0.1517 -1.1491
  138OSM   H18U15066   3.196   1.814   8.177  0.6510  0.3709  0.7897
  138OSM    C1F15067   2.775   1.245   6.645  0.6277 -0.7871  0.5015
  138OSM     OF15068   2.809   1.142   6.592 -0.1928 -0.4485  0.3757
  138OSM    C2F15069   2.681   1.236   6.760  0.2865  0.4765  0.5487
  138OSM    H2F15070   2.628   1.138   6.765  1.0144  0.1338  1.9886
  138OSM    H2G15071   2.606   1.316   6.743  0.8149  0.8140 -0.2297
  138OSM    C3F15072   2.743   1.266   6.900  0.0835 -0.1805 -0.2218
  138OSM    H3F15073   2.779   1.371   6.889 -0.9229  0.1162 -0.7965
  138OSM    H3G15074   2.824   1.196   6.928  0.8323  1.6412  2.7077
  138OSM    C4F15075   2.632   1.265   7.008  0.3761  0.0429  0.0522
  138OSM    H4F15076   2.581   1.168   6.991 -0.8671  0.8058 -0.7607
  138OSM    H4G15077   2.552   1.338   6.982  0.5921  0.3836  0.3296
  138OSM    C5F15078   2.676   1.263   7.152 -0.3237 -0.0919  0.1707
  138OSM    H5F15079   2.755   1.185   7.153 -0.6912 -0.4773 -0.4136
  138OSM    H5G15080   2.589   1.230   7.213 -0.8168  1.7086  0.5002
  138OSM    C6F15081   2.730   1.399   7.197  0.1621  0.2296 -0.4346
  138OSM    H6F15082   2.645   1.470   7.190  1.3852  1.7781 -0.3001
  138OSM    H6G15083   2.811   1.417   7.124  1.2428 -1.4804  0.2729
  138OSM    C7F15084   2.801   1.389   7.328 -0.7576  0.6156 -0.2337
  138OSM    H7F15085   2.885   1.461   7.330  0.4593 -0.7575  0.6093
  138OSM    H7G15086   2.844   1.287   7.342  1.4771  1.0908 -2.7751
  138OSM    C8F15087   2.703   1.404   7.450  0.7381  0.2511 -0.3378
  138OSM    H8F15088   2.753   1.361   7.539 -0.0501 -0.5950 -0.2903
  138OSM    H8G15089   2.610   1.345   7.436  1.1466 -0.5757  0.3715
  138OSM    C9F15090   2.666   1.549   7.464  0.3169  1.4271 -0.0974
  138OSM    H9F15091   2.661   1.603   7.367 -1.0147 -1.3981 -1.7282
  138OSM   C10F15092   2.638   1.614   7.580 -0.1050 -0.2015 -0.1831
  138OSM   H10F15093   2.619   1.722   7.577 -2.3232 -0.5355  0.0054
  138OSM   C11F15094   2.622   1.555   7.713  0.0286 -0.1399 -0.0043
  138OSM   H11F15095   2.616   1.445   7.698 -1.5429 -0.1413  0.4586
  138OSM   H11G15096   2.524   1.588   7.753  0.3837  1.9495 -0.7296
  138OSM   C12F15097   2.726   1.593   7.817 -0.3077  0.0959 -0.8244
  138OSM   H12F15098   2.729   1.703   7.831  4.3117  0.0319  0.2554
  138OSM   H12G15099   2.829   1.571   7.784  0.7393 -1.0101  2.6919
  138OSM   C13F15100   2.714   1.521   7.949  0.3534  0.3568 -0.0414
  138OSM   H13F15101   2.762   1.424   7.925  2.5265  1.4855 -0.5607
  138OSM   H13G15102   2.618   1.492   7.997  0.7662 -0.9552  0.0331
  138OSM   C14F15103   2.797   1.582   8.056 -0.1149  0.4216  0.6772
  138OSM   H14F15104   2.756   1.684   8.078  0.7046  1.1222 -0.8683
  138OSM   H14G15105   2.903   1.602   8.030  0.1919  1.1178  2.2892
  138OSM   C15F15106   2.798   1.492   8.180 -0.0907 -0.0545 -0.2225
  138OSM   H15F15107   2.816   1.383   8.164 -1.0550 -0.2923  0.2027
  138OSM   H15G15108   2.700   1.506   8.232  0.3325 -1.5574  1.0803
  138OSM   C16F15109   2.917   1.523   8.280  1.2552 -0.0291  0.4311
  138OSM   H16F15110   3.003   1.485   8.221  1.5375 -1.8537  1.9458
  138OSM   H16G15111   2.896   1.455   8.365  0.2573 -1.4668 -0.9032
  138OSM   C17F15112   2.949   1.665   8.333  0.9902  0.9667  0.4314
  138OSM   H17F15113   2.924   1.722   8.241  2.0514 -0.3038 -0.6747
  138OSM   H17G15114   3.057   1.667   8.357  0.4959  0.6743  2.9612
  138OSM   C18F15115   2.851   1.712   8.441 -0.0001 -0.9783  0.6326
  138OSM   H18F15116   2.852   1.647   8.531 -1.2446 -1.6920  0.1591
  138OSM   H18G15117   2.748   1.717   8.401  0.5264  0.5806 -0.6840
  138OSM   H18H15118   2.882   1.818   8.454  1.7727 -1.5522  1.4768
  139OSM      N15119   2.074   5.234   6.372 -0.1078  1.3900  0.6527
  139OSM    C1515120   2.024   5.169   6.492  0.2374 -0.0657  0.1482
  139OSM   H15A15121   1.925   5.129   6.473  0.0751 -0.4187  1.6265
  139OSM   H15B15122   2.027   5.234   6.578  1.7317 -1.1517  0.9702
  139OSM   H15C15123   2.082   5.082   6.519 -1.5373 -1.9620 -1.7372
  139OSM    C1415124   2.011   5.153   6.263  0.0274  0.9153 -0.4447
  139OSM   H14A15125   2.021   5.047   6.285 -0.6078  1.2164  1.4322
  139OSM   H14B15126   2.062   5.174   6.171  1.2688  2.7483  0.6077
  139OSM   H14C15127   1.905   5.171   6.256 -0.3793 -1.5767 -2.3990
  139OSM    C1315128   2.018   5.370   6.369  0.0214 -0.0002 -0.8532
  139OSM   H13A15129   2.058   5.431   6.289  1.2228 -0.0857 -0.3485
  139OSM   H13B15130   2.033   5.420   6.463 -2.6390 -0.2014 -0.2667
  139OSM   H13C15131   1.911   5.368   6.356 -0.5432 -3.1672  2.4653
  139OSM    C1215132   2.225   5.231   6.373 -0.2649  0.0600  0.3290
  139OSM   H12A15133   2.254   5.127   6.378 -0.6623 -0.0987 -0.4386
  139OSM   H12B15134   2.273   5.273   6.460 -0.5699 -1.6352  1.3582
  139OSM    C1115135   2.299   5.288   6.246 -0.1863  0.0239 -0.4414
  139OSM   H11A15136   2.247   5.386   6.241  0.9707  0.7768  1.2092
  139OSM   H11B15137   2.283   5.217   6.161 -0.2814 -1.5685  0.8612
  139OSM      P15138   2.483   5.390   6.404 -0.3815  0.2126 -0.0265
  139OSM    O1315139   2.456   5.315   6.527  0.1950  0.0241 -0.3279
  139OSM    O1415140   2.618   5.444   6.380 -0.4209  0.2059 -0.5048
  139OSM    O1115141   2.371   5.506   6.393 -0.3255  0.4175 -0.2288
  139OSM    O1215142   2.437   5.305   6.277  0.2877 -0.3633  0.6178
  139OSM    C1S15143   2.284   5.541   6.502 -1.1096  0.5378  0.4847
  139OSM    H1S15144   2.259   5.448   6.557  2.0573 -1.4361 -1.1685
  139OSM    H1T15145   2.189   5.587   6.465 -0.0219  2.5612  0.0265
  139OSM     NF15146   2.259   5.650   6.727 -0.0893 -0.4883  0.2825
  139OSM    HNF15147   2.214   5.739   6.720  2.9037  1.4993  3.3978
  139OSM    C2S15148   2.346   5.623   6.617  0.6317  0.3629 -0.4592
  139OSM    H2S15149   2.425   5.555   6.657  0.0151  0.4750  1.0217
  139OSM    C3S15150   2.407   5.756   6.554 -0.6432  0.0443 -0.2150
  139OSM    H3S15151   2.330   5.834   6.534 -1.1633  0.9283  4.2619
  139OSM     O315152   2.485   5.732   6.437 -0.3003  0.0183 -0.2046
  139OSM    HO315153   2.466   5.641   6.417  1.1441  0.0992 -2.3075
  139OSM    C4S15154   2.507   5.819   6.650  0.4466  0.2383  0.7402
  139OSM    H4S15155   2.571   5.745   6.701 -0.6825 -0.0666  1.7480
  139OSM    C5S15156   2.533   5.945   6.673 -0.2302 -0.7976 -0.4707
  139OSM    H5S15157   2.487   6.014   6.600  1.2671  2.3097  1.2861
  139OSM    C6S15158   2.639   6.011   6.762  0.2046 -0.3075  0.2107
  139OSM    H6S15159   2.694   6.093   6.712  0.4910 -0.9045 -0.4550
  139OSM    H6T15160   2.716   5.932   6.773 -0.5585 -0.9500  1.1758
  139OSM    C7S15161   2.601   6.045   6.914 -0.3715 -0.3280  0.8437
  139OSM    H7S15162   2.526   6.125   6.901 -2.6767 -2.0933  2.4651
  139OSM    H7T15163   2.699   6.082   6.950 -0.3584 -0.7828  1.2956
  139OSM    C8S15164   2.544   5.928   6.993 -0.8516 -0.3976  0.0153
  139OSM    H8S15165   2.607   5.844   6.956  0.5438  0.0904  1.1520
  139OSM    H8T15166   2.442   5.895   6.965 -1.0269  1.1435 -1.2685
  139OSM    C9S15167   2.558   5.944   7.146  0.2038  0.2777 -0.3730
  139OSM    H9S15168   2.507   6.038   7.178  0.6575  0.5057 -0.3071
  139OSM    H9T15169   2.666   5.952   7.170  0.3710  2.6435 -1.5397
  139OSM   C10S15170   2.480   5.837   7.223 -0.0527  0.4913 -0.6267
  139OSM   H10S15171   2.520   5.740   7.186  1.0822  0.8891 -0.4731
  139OSM   H10T15172   2.373   5.842   7.195 -0.0108 -1.2792 -1.2156
  139OSM   C11S15173   2.494   5.825   7.377  0.0799 -0.0497 -0.2259
  139OSM   H11S15174   2.586   5.767   7.401  0.8260  1.8777  1.9480
  139OSM   H11T15175   2.414   5.763   7.423  0.6248 -0.7109 -0.1500
  139OSM   C12S15176   2.517   5.955   7.448 -0.9918  0.3786 -0.3651
  139OSM   H12S15177   2.446   6.039   7.440  0.7626  1.9730  0.1042
  139OSM   H12T15178   2.612   6.000   7.412 -0.7724  0.6709  0.5361
  139OSM   C13S15179   2.544   5.929   7.594 -0.3964 -0.4405  0.0961
  139OSM   H13S15180   2.595   6.019   7.635 -1.3412  0.8663 -1.4890
  139OSM   H13T15181   2.608   5.843   7.622  0.2766  0.4841  1.5774
  139OSM   C14S15182   2.410   5.928   7.673 -0.3209 -0.3534  0.2570
  139OSM   H14S15183   2.339   5.854   7.630  0.2870 -0.3626 -0.7703
  139OSM   H14T15184   2.359   6.026   7.676 -0.6473 -0.5001 -0.3182
  139OSM   C15S15185   2.438   5.896   7.817 -0.7550  0.3900 -0.3366
  139OSM   H15S15186   2.498   5.980   7.858  1.1869 -0.2368 -1.7211
  139OSM   H15T15187   2.495   5.801   7.822 -0.6765  0.5119  3.0991
  139OSM   C16S15188   2.314   5.879   7.903  0.2706 -0.5959  0.4533
  139OSM   H16S15189   2.249   5.790   7.888 -0.3399 -0.2800  1.1002
  139OSM   H16T15190   2.252   5.969   7.880 -0.1400 -0.9740  0.0462
  139OSM   C17S15191   2.357   5.890   8.055  0.1467 -0.0757  0.0154
  139OSM   H17S15192   2.423   5.976   8.079  1.9060 -1.0609 -1.0764
  139OSM   H17T15193   2.426   5.808   8.084  0.6554  0.8956  1.6993
  139OSM   C18S15194   2.240   5.888   8.150 -0.2442 -0.2072 -0.0635
  139OSM   H18S15195   2.184   5.984   8.143  0.0134 -0.1559 -1.5304
  139OSM   H18T15196   2.276   5.882   8.255 -0.0714 -2.6896 -0.2031
  139OSM   H18U15197   2.184   5.792   8.142  2.8302 -2.2125  0.7099
  139OSM    C1F15198   2.224   5.563   6.819  0.0749  0.0151  0.7572
  139OSM     OF15199   2.290   5.460   6.820  0.3603  0.2319 -0.1274
  139OSM    C2F15200   2.100   5.599   6.903  0.5019  0.7170  0.1262
  139OSM    H2F15201   2.009   5.548   6.865  0.4030  1.3513 -0.4995
  139OSM    H2G15202   2.089   5.709   6.897  0.7617  0.8583  1.8857
  139OSM    C3F15203   2.125   5.556   7.043 -0.5698  0.7459  0.0816
  139OSM    H3F15204   2.229   5.587   7.068 -0.1475 -0.4425 -0.0895
  139OSM    H3G15205   2.117   5.445   7.047  0.6261  0.6493  3.2395
  139OSM    C4F15206   2.031   5.616   7.146 -0.5262 -0.4342  0.0702
  139OSM    H4F15207   1.940   5.553   7.150 -1.7685  1.2680  0.0010
  139OSM    H4G15208   2.000   5.719   7.118  3.9388  1.3486  0.8865
  139OSM    C5F15209   2.094   5.628   7.282 -0.5366  0.3189  0.4840
  139OSM    H5F15210   2.184   5.693   7.275 -1.4333  1.4804 -0.7237
  139OSM    H5G15211   2.134   5.531   7.318  1.5534  0.1885 -1.9267
  139OSM    C6F15212   2.001   5.691   7.388  0.1385  0.0635  0.3936
  139OSM    H6F15213   1.917   5.621   7.409  0.6637 -1.0292 -0.9693
  139OSM    H6G15214   1.952   5.778   7.339 -0.3027  0.8490  2.1519
  139OSM    C7F15215   2.063   5.727   7.521 -0.5578  0.0842  0.3964
  139OSM    H7F15216   2.132   5.809   7.491 -0.4942  0.0157  0.3560
  139OSM    H7G15217   2.127   5.649   7.566  0.2286  0.8405  0.6194
  139OSM    C8F15218   1.954   5.770   7.619 -0.6546 -0.3537  0.3075
  139OSM    H8F15219   1.881   5.687   7.612  0.6479 -1.4024 -1.6723
  139OSM    H8G15220   1.900   5.863   7.591  0.8621  1.3928  2.7974
  139OSM    C9F15221   2.007   5.795   7.761  0.7474 -0.7489  0.4665
  139OSM    H9F15222   2.106   5.842   7.763  0.9435 -0.4924 -4.1732
  139OSM   C10F15223   1.952   5.758   7.878  0.2704 -0.6813  0.3232
  139OSM   H10F15224   1.992   5.798   7.973 -0.2854 -0.7436  0.5919
  139OSM   C11F15225   1.823   5.684   7.893  0.6453 -0.1566  0.8382
  139OSM   H11F15226   1.821   5.602   7.817  0.0732  2.2848 -1.9773
  139OSM   H11G15227   1.743   5.753   7.858 -1.8256 -3.5259 -0.7228
  139OSM   C12F15228   1.807   5.639   8.044 -0.3041  0.1568  0.4709
  139OSM   H12F15229   1.712   5.584   8.063 -1.0445  2.0089  2.4868
  139OSM   H12G15230   1.808   5.725   8.115  0.6024 -0.5583  1.3572
  139OSM   C13F15231   1.928   5.548   8.090 -0.2789  0.3579 -0.9147
  139OSM   H13F15232   2.030   5.592   8.093  0.3643 -1.1170  0.3503
  139OSM   H13G15233   1.921   5.465   8.016  1.3980 -2.2622  1.6530
  139OSM   C14F15234   1.897   5.482   8.225 -0.2363 -0.5178  0.0938
  139OSM   H14F15235   1.986   5.422   8.256 -0.5639 -0.2912  1.5550
  139OSM   H14G15236   1.808   5.416   8.223 -1.7822  1.2480  3.1569
  139OSM   C15F15237   1.885   5.580   8.344  0.5274  0.1095 -0.5359
  139OSM   H15F15238   1.795   5.640   8.319 -0.8469 -2.3460 -1.8367
  139OSM   H15G15239   1.976   5.643   8.340  1.8102 -1.5073  1.2421
  139OSM   C16F15240   1.887   5.519   8.481  0.4138  0.9811 -0.3237
  139OSM   H16F15241   1.847   5.585   8.561  1.8209 -0.0691  1.3238
  139OSM   H16G15242   1.987   5.483   8.512 -0.9418 -1.4729  1.6339
  139OSM   C17F15243   1.795   5.391   8.489 -0.2887 -0.6442 -0.6362
  139OSM   H17F15244   1.827   5.311   8.419  3.2017 -2.3685  2.5416
  139OSM   H17G15245   1.693   5.418   8.454 -0.7814 -1.1013  0.3681
  139OSM   C18F15246   1.773   5.331   8.634 -0.2821 -0.6454  0.1558
  139OSM   H18F15247   1.702   5.246   8.634 -0.7517 -0.2875  1.4250
  139OSM   H18G15248   1.737   5.405   8.709 -0.1305 -2.7294  2.4096
  139OSM   H18H15249   1.869   5.295   8.678  0.1909  0.9881  0.5261
  140OSM      N15250   1.937   1.022   6.234  0.1591 -0.2767 -0.2702
  140OSM    C1515251   1.950   0.908   6.140  1.4299 -0.5901 -0.0757
  140OSM   H15A15252   1.987   0.928   6.040 -0.9876 -1.1727 -1.1674
  140OSM   H15B15253   1.853   0.863   6.129  1.1690 -0.3467  1.1846
  140OSM   H15C15254   2.012   0.832   6.186 -0.3957 -1.5321  0.9172
  140OSM    C1415255   1.870   0.974   6.361 -0.0010  0.3908  0.0514
  140OSM   H14A15256   1.829   1.046   6.430 -1.2131  1.6828 -1.9344
  140OSM   H14B15257   1.946   0.912   6.409 -0.1591  1.4049  1.7033
  140OSM   H14C15258   1.788   0.910   6.333  0.6215 -0.0929 -0.7112
  140OSM    C1315259   2.072   1.072   6.276 -0.0232 -0.0768 -0.0611
  140OSM   H13A15260   2.136   0.992   6.311 -1.2770 -0.3608  1.6772
  140OSM   H13B15261   2.062   1.142   6.358 -0.6686 -1.4808  1.0891
  140OSM   H13C15262   2.125   1.114   6.191  2.1984 -0.3615  1.0965
  140OSM    C1215263   1.856   1.141   6.177  0.8005 -0.3251  0.1107
  140OSM   H12A15264   1.764   1.106   6.132  2.7939 -1.9000 -3.1143
  140OSM   H12B15265   1.915   1.178   6.094  0.2126 -1.9930 -1.1145
  140OSM    C1115266   1.811   1.266   6.266  0.9631  0.6675 -0.2013
  140OSM   H11A15267   1.755   1.227   6.354  0.8209  0.3676 -0.4238
  140OSM   H11B15268   1.745   1.336   6.210 -1.1162 -0.7546  0.3387
  140OSM      P15269   1.912   1.436   6.438  0.0414 -0.0272 -0.0511
  140OSM    O1315270   2.046   1.497   6.472  0.6046 -0.1032 -0.2063
  140OSM    O1415271   1.810   1.537   6.409  0.7345  0.7239  0.1001
  140OSM    O1115272   1.870   1.349   6.562 -0.2664  0.0025 -0.1712
  140OSM    O1215273   1.931   1.332   6.318  0.1790  0.6318  0.0341
  140OSM    C1S15274   1.941   1.226   6.590 -0.1522  0.4854 -0.5459
  140OSM    H1S15275   2.025   1.213   6.518 -1.2717 -0.7667 -1.6885
  140OSM    H1T15276   1.874   1.142   6.560  1.0836 -0.1087 -1.7935
  140OSM     NF15277   2.076   1.081   6.737  0.6828 -0.0831  0.5787
  140OSM    HNF15278   2.026   0.995   6.741 -0.0947  0.2784 -0.7067
  140OSM    C2S15279   1.989   1.202   6.739 -0.6938 -0.3859 -0.2706
  140OSM    H2S15280   2.053   1.289   6.764 -1.1065 -0.1344 -0.0783
  140OSM    C3S15281   1.864   1.205   6.835 -0.2588  0.3500 -1.2687
  140OSM    H3S15282   1.792   1.136   6.784  0.6248 -1.7736  0.1853
  140OSM     O315283   1.795   1.327   6.855  0.5468  0.2629  0.0766
  140OSM    HO315284   1.810   1.364   6.768  1.5512 -0.9553 -0.3024
  140OSM    C4S15285   1.898   1.138   6.964  0.1801 -0.1873  1.0694
  140OSM    H4S15286   1.856   1.036   6.965  1.6778 -0.9469 -1.5318
  140OSM    C5S15287   1.967   1.189   7.066 -0.2999 -0.0228  0.7785
  140OSM    H5S15288   1.988   1.296   7.055 -1.3656  0.1785  0.6096
  140OSM    C6S15289   1.997   1.124   7.198  0.0297 -0.2932  0.0247
  140OSM    H6S15290   2.108   1.130   7.200  0.1492 -1.8788 -0.7431
  140OSM    H6T15291   1.974   1.015   7.202  1.2761 -0.5564  0.6723
  140OSM    C7S15292   1.930   1.199   7.319  0.6424  0.3743  0.4397
  140OSM    H7S15293   1.822   1.212   7.298  1.0723  1.0870 -1.5362
  140OSM    H7T15294   1.971   1.302   7.318 -0.3796  0.8217 -2.0408
  140OSM    C8S15295   1.953   1.130   7.452  0.0545  0.5995 -0.4041
  140OSM    H8S15296   2.064   1.126   7.453  0.0601  0.2360  1.5609
  140OSM    H8T15297   1.911   1.028   7.443 -0.3758  0.7758 -0.4378
  140OSM    C9S15298   1.894   1.204   7.575 -0.2259 -0.4676  0.4027
  140OSM    H9S15299   1.787   1.225   7.556 -0.2220 -1.4156 -0.8163
  140OSM    H9T15300   1.948   1.300   7.588  1.3209 -1.6424  4.1537
  140OSM   C10S15301   1.913   1.122   7.705  0.0411  0.6896  0.8026
  140OSM   H10S15302   2.016   1.081   7.705 -0.8354 -1.6748  0.1125
  140OSM   H10T15303   1.854   1.028   7.713  1.6950 -0.4570  0.1407
  140OSM   C11S15304   1.879   1.195   7.838 -0.5099 -0.3376 -0.3727
  140OSM   H11S15305   1.772   1.224   7.827  0.1658  1.7426 -2.1035
  140OSM   H11T15306   1.944   1.286   7.840 -1.2669  0.1957  0.4696
  140OSM   C12S15307   1.898   1.103   7.962  0.0204 -0.0113 -0.6229
  140OSM   H12S15308   1.995   1.049   7.967 -0.1605 -0.3731 -0.9242
  140OSM   H12T15309   1.821   1.024   7.945 -0.2656  0.2027 -0.3354
  140OSM   C13S15310   1.866   1.173   8.094  0.2737  0.4986  0.0721
  140OSM   H13S15311   1.759   1.200   8.090  0.7108  2.1833 -1.0144
  140OSM   H13T15312   1.923   1.268   8.099  1.4065 -0.1846  0.5197
  140OSM   C14S15313   1.885   1.099   8.223 -0.2942 -0.6800 -0.5849
  140OSM   H14S15314   1.988   1.057   8.224 -1.5111 -4.0147  0.0754
  140OSM   H14T15315   1.816   1.014   8.239  1.2665 -1.8699  0.1316
  140OSM   C15S15316   1.859   1.186   8.346  0.0131 -0.6310 -0.2562
  140OSM   H15S15317   1.766   1.238   8.314 -0.1166  0.7083  2.0708
  140OSM   H15T15318   1.939   1.258   8.374 -0.2429  0.5599 -2.3832
  140OSM   C16S15319   1.819   1.092   8.462  0.0746 -0.2094  0.0445
  140OSM   H16S15320   1.915   1.043   8.491  1.4169  1.7969 -0.7443
  140OSM   H16T15321   1.747   1.011   8.439  0.7538 -0.1918 -2.4871
  140OSM   C17S15322   1.766   1.161   8.588  0.5834 -0.3148  0.3128
  140OSM   H17S15323   1.670   1.210   8.562  1.8639  1.8538 -0.6534
  140OSM   H17T15324   1.834   1.244   8.618  1.2130 -0.8598  0.4320
  140OSM   C18S15325   1.753   1.066   8.708 -0.1978 -0.1437  0.3331
  140OSM   H18S15326   1.843   1.007   8.734  1.1739  1.3619 -0.8471
  140OSM   H18T15327   1.667   0.996   8.699 -1.5268  0.9860  2.9587
  140OSM   H18U15328   1.722   1.119   8.801  1.1729  1.1054  0.1112
  140OSM    C1F15329   2.203   1.077   6.694  0.6131  0.3047 -0.3741
  140OSM     OF15330   2.262   1.180   6.667  0.0518  0.2377 -0.2324
  140OSM    C2F15331   2.264   0.938   6.684  0.3805 -0.3148  0.6402
  140OSM    H2F15332   2.291   0.935   6.576 -3.8009  1.7403 -0.7093
  140OSM    H2G15333   2.195   0.852   6.700 -0.7014  0.2768 -0.5919
  140OSM    C3F15334   2.387   0.929   6.781  0.7398  0.0123  0.1356
  140OSM    H3F15335   2.456   1.009   6.747  0.6008  0.2624  0.4305
  140OSM    H3G15336   2.434   0.829   6.777 -0.0384 -0.3150 -1.7039
  140OSM    C4F15337   2.352   0.954   6.924 -0.3676 -0.1606  0.0201
  140OSM    H4F15338   2.262   1.017   6.942  1.4888  2.7849 -0.3860
  140OSM    H4G15339   2.438   1.011   6.964 -1.5814  1.6681  0.1498
  140OSM    C5F15340   2.333   0.827   7.016  0.4191 -0.7509 -0.0993
  140OSM    H5F15341   2.434   0.784   7.029  1.3559  1.7208  1.2691
  140OSM    H5G15342   2.261   0.758   6.966  0.9182 -0.3089 -1.4938
  140OSM    C6F15343   2.280   0.874   7.155 -0.0613  0.2702  0.2740
  140OSM    H6F15344   2.175   0.896   7.127 -0.0238  0.5832  0.3695
  140OSM    H6G15345   2.318   0.974   7.185 -0.3591  1.1124 -1.9543
  140OSM    C7F15346   2.309   0.774   7.270 -0.3310 -0.8744 -0.4024
  140OSM    H7F15347   2.420   0.769   7.271 -0.3239 -0.7241 -0.4662
  140OSM    H7G15348   2.272   0.673   7.241  1.0268 -0.8893 -2.2183
  140OSM    C8F15349   2.248   0.816   7.401  0.0091 -0.0810 -1.1902
  140OSM    H8F15350   2.138   0.815   7.386 -0.2302 -0.5313  0.4380
  140OSM    H8G15351   2.271   0.923   7.419  0.9022 -0.4674  0.0644
  140OSM    C9F15352   2.279   0.727   7.526 -0.9777  0.1439  0.4361
  140OSM    H9F15353   2.276   0.618   7.508  0.7191  0.4655 -2.4430
  140OSM   C10F15354   2.306   0.757   7.645  0.4842 -0.3684 -0.5195
  140OSM   H10F15355   2.320   0.681   7.723  0.0597 -1.7939 -1.7800
  140OSM   C11F15356   2.285   0.900   7.695 -0.7361  0.5890  0.7551
  140OSM   H11F15357   2.176   0.922   7.695 -1.8585 -3.8398 -1.1589
  140OSM   H11G15358   2.334   0.975   7.630  0.8206  0.3515  1.5946
  140OSM   C12F15359   2.346   0.916   7.834  0.2254 -0.3713 -0.3996
  140OSM   H12F15360   2.353   1.024   7.861  0.1293 -0.5722  0.4445
  140OSM   H12G15361   2.451   0.884   7.848  0.9794  1.9400 -0.2272
  140OSM   C13F15362   2.266   0.834   7.935  0.3352 -0.7006  0.5352
  140OSM   H13F15363   2.318   0.737   7.951  3.0319  0.6218  0.2672
  140OSM   H13G15364   2.162   0.817   7.898  1.4734 -1.9172 -2.3940
  140OSM   C14F15365   2.252   0.924   8.064 -0.2271  0.3123  0.3463
  140OSM   H14F15366   2.194   1.015   8.037 -0.4180 -0.3351 -1.5932
  140OSM   H14G15367   2.355   0.948   8.099  0.3222 -0.3939 -0.7353
  140OSM   C15F15368   2.175   0.852   8.177 -0.9244 -0.4569 -0.6291
  140OSM   H15F15369   2.070   0.827   8.150 -0.7031  0.0747 -2.0689
  140OSM   H15G15370   2.174   0.923   8.262  1.1347 -2.6893  1.4485
  140OSM   C16F15371   2.229   0.726   8.236  0.0259  0.1679 -0.3639
  140OSM   H16F15372   2.219   0.652   8.155 -0.6122 -0.5858  0.3834
  140OSM   H16G15373   2.161   0.684   8.313  0.4233  0.7782  0.3367
  140OSM   C17F15374   2.371   0.734   8.296 -0.7851  0.7429 -0.4912
  140OSM   H17F15375   2.367   0.658   8.377 -1.9630  0.4840 -0.7797
  140OSM   H17G15376   2.399   0.827   8.351  0.8870  1.0917 -1.8417
  140OSM   C18F15377   2.489   0.701   8.194 -0.0268  0.1234 -1.0927
  140OSM   H18F15378   2.483   0.592   8.177 -2.1856 -0.3089  1.8168
  140OSM   H18G15379   2.588   0.714   8.243 -0.4268 -2.4863  0.5671
  140OSM   H18H15380   2.495   0.759   8.099  2.7382  0.2525 -0.9130
  141OSM      N15381   3.836   3.984   6.513 -0.3273 -0.7249 -0.0111
  141OSM    C1515382   3.804   4.107   6.595  0.1093  0.2181 -0.0466
  141OSM   H15A15383   3.736   4.093   6.678 -0.7009 -0.5735 -0.8246
  141OSM   H15B15384   3.752   4.184   6.539  1.2950  0.5308 -0.7648
  141OSM   H15C15385   3.885   4.159   6.644 -1.4513  1.7721  0.9719
  141OSM    C1415386   3.716   3.940   6.438 -0.3590 -0.7102 -0.1417
  141OSM   H14A15387   3.734   3.836   6.416  2.0969 -0.9347  2.4313
  141OSM   H14B15388   3.689   3.996   6.349 -1.7596 -2.7801 -1.1031
  141OSM   H14C15389   3.630   3.948   6.502 -0.0319 -1.4092  0.3942
  141OSM    C1315390   3.942   4.025   6.407  0.6410 -0.6693 -0.0543
  141OSM   H13A15391   3.947   3.939   6.341  2.2387 -3.3107  3.2384
  141OSM   H13B15392   4.039   4.051   6.444  1.2674 -1.5115 -1.0405
  141OSM   H13C15393   3.901   4.104   6.345  0.5454 -0.9408 -0.3401
  141OSM    C1215394   3.877   3.867   6.598  0.3129 -0.6305 -0.5590
  141OSM   H12A15395   3.786   3.865   6.657  0.7578  1.3699  0.2811
  141OSM   H12B15396   3.962   3.899   6.657 -0.1114 -0.0461 -0.2531
  141OSM    C1115397   3.907   3.724   6.544 -0.5118 -0.3047 -0.4477
  141OSM   H11A15398   3.938   3.658   6.628  1.2660 -0.5441 -1.2434
  141OSM   H11B15399   3.997   3.729   6.480 -0.1909  2.6418  0.1027
  141OSM      P15400   3.751   3.530   6.451  0.6206 -0.2912 -0.0024
  141OSM    O1315401   3.643   3.534   6.352 -0.6242 -0.1917 -0.1363
  141OSM    O1415402   3.868   3.446   6.415 -0.3480 -0.4539 -0.2773
  141OSM    O1115403   3.677   3.463   6.577 -0.0719 -0.5428 -0.2716
  141OSM    O1215404   3.788   3.679   6.487 -0.5611  0.2369  0.7340
  141OSM    C1S15405   3.718   3.498   6.710  0.2200 -0.2084 -0.1005
  141OSM    H1S15406   3.738   3.606   6.728  1.3396 -0.0892 -1.7914
  141OSM    H1T15407   3.818   3.454   6.729 -0.1672 -0.3278  1.8459
  141OSM     NF15408   3.646   3.487   6.946 -0.4890  0.7076 -0.7491
  141OSM    HNF15409   3.677   3.430   7.022  0.0851  2.7629  0.6271
  141OSM    C2S15410   3.622   3.428   6.817  0.2067 -0.4156  0.1486
  141OSM    H2S15411   3.517   3.445   6.785  0.1664 -1.6186 -0.4043
  141OSM    C3S15412   3.641   3.278   6.805  0.2538 -0.5784  0.2843
  141OSM    H3S15413   3.746   3.254   6.830 -0.0629 -0.3061  2.0165
  141OSM     O315414   3.618   3.221   6.678  0.1866 -0.1985 -0.6586
  141OSM    HO315415   3.648   3.295   6.625  0.8462 -0.5025 -0.7213
  141OSM    C4S15416   3.556   3.202   6.906 -0.6648  0.2798  0.0480
  141OSM    H4S15417   3.446   3.203   6.893 -0.7515  0.4825  0.7595
  141OSM    C5S15418   3.619   3.136   7.008 -0.1732  0.2196  0.0853
  141OSM    H5S15419   3.729   3.146   7.002 -0.2943  1.6246 -0.3094
  141OSM    C6S15420   3.557   3.059   7.119 -0.5573 -0.5586  0.4104
  141OSM    H6S15421   3.446   3.051   7.119 -0.8505  2.1564  1.8485
  141OSM    H6T15422   3.589   3.097   7.218  2.7178 -0.5556 -0.5288
  141OSM    C7S15423   3.599   2.901   7.133 -0.4568  0.0165  0.1480
  141OSM    H7S15424   3.710   2.907   7.133 -0.4038 -0.7561  1.2677
  141OSM    H7T15425   3.575   2.848   7.038  1.0392  0.5421 -0.5601
  141OSM    C8S15426   3.544   2.826   7.256  0.0776 -0.2029 -0.3877
  141OSM    H8S15427   3.609   2.737   7.275  1.2929  0.4416 -1.4009
  141OSM    H8T15428   3.441   2.789   7.239 -0.9436  1.8397  0.9126
  141OSM    C9S15429   3.539   2.912   7.379 -0.1297 -0.4665  0.1839
  141OSM    H9S15430   3.448   2.976   7.380 -1.4585 -2.2844  0.4283
  141OSM    H9T15431   3.631   2.974   7.377 -1.3496  1.4256 -2.1118
  141OSM   C10S15432   3.535   2.836   7.518 -0.7501 -0.1148 -0.1195
  141OSM   H10S15433   3.507   2.730   7.503 -0.0037 -0.4491  0.8021
  141OSM   H10T15434   3.449   2.878   7.576  0.0637  0.1638  0.9096
  141OSM   C11S15435   3.671   2.864   7.583  0.2027  0.5815 -0.1612
  141OSM   H11S15436   3.675   2.970   7.615  0.5309  0.4969  0.0910
  141OSM   H11T15437   3.747   2.836   7.508  0.2002  0.1283 -0.0015
  141OSM   C12S15438   3.699   2.765   7.707  0.1014 -0.1212  0.5445
  141OSM   H12S15439   3.805   2.736   7.719 -0.3304 -1.3064  1.8175
  141OSM   H12T15440   3.632   2.681   7.677 -2.0233  1.3618  0.8565
  141OSM   C13S15441   3.643   2.819   7.848 -0.1905 -0.1658  0.0842
  141OSM   H13S15442   3.551   2.876   7.820 -1.5942 -0.9311  2.8243
  141OSM   H13T15443   3.705   2.889   7.907 -0.7502 -1.0622  1.8200
  141OSM   C14S15444   3.602   2.713   7.946 -0.4988 -0.4553  0.4389
  141OSM   H14S15445   3.685   2.639   7.944 -0.1830 -0.1433  1.2265
  141OSM   H14T15446   3.509   2.668   7.906 -0.8122  0.7820 -0.2733
  141OSM   C15S15447   3.571   2.756   8.088 -0.0232 -0.5099 -0.7697
  141OSM   H15S15448   3.641   2.841   8.102 -0.0683 -0.6409  0.3224
  141OSM   H15T15449   3.594   2.674   8.159 -0.0122  0.4557  0.3582
  141OSM   C16S15450   3.420   2.795   8.116  0.8596  0.0651  0.2925
  141OSM   H16S15451   3.363   2.704   8.088  0.9809 -0.3275  1.2921
  141OSM   H16T15452   3.410   2.891   8.061  0.4535 -0.8234 -1.2316
  141OSM   C17S15453   3.391   2.801   8.270  0.0133 -0.4215 -0.5956
  141OSM   H17S15454   3.451   2.887   8.308  1.6595  0.0831 -3.9717
  141OSM   H17T15455   3.423   2.704   8.314 -3.6329 -1.8608 -0.7956
  141OSM   C18S15456   3.245   2.834   8.302  0.5439 -0.1910  0.2593
  141OSM   H18S15457   3.174   2.756   8.267 -0.3991  0.6783  0.2000
  141OSM   H18T15458   3.226   2.925   8.241  1.1655  3.2142  4.6073
  141OSM   H18U15459   3.216   2.867   8.404 -2.1658  0.4218 -0.6185
  141OSM    C1F15460   3.621   3.611   6.974  0.2291 -0.4641 -0.5032
  141OSM     OF15461   3.570   3.684   6.889 -0.0237 -0.0420  0.5335
  141OSM    C2F15462   3.654   3.664   7.105 -0.1528  0.2559 -0.4852
  141OSM    H2F15463   3.763   3.668   7.124 -0.2451  1.2421 -0.1268
  141OSM    H2G15464   3.607   3.600   7.183 -0.4152 -0.0906 -0.9268
  141OSM    C3F15465   3.589   3.806   7.140  0.2862  0.8183  0.5646
  141OSM    H3F15466   3.482   3.798   7.111  0.9381 -1.4347 -1.4878
  141OSM    H3G15467   3.637   3.890   7.084 -1.0115  1.5952  0.5812
  141OSM    C4F15468   3.600   3.855   7.287 -0.1257  0.2392 -0.3437
  141OSM    H4F15469   3.538   3.948   7.287 -1.9675 -0.9381 -0.0076
  141OSM    H4G15470   3.703   3.893   7.304 -1.0416  3.2286 -0.7648
  141OSM    C5F15471   3.555   3.753   7.398  0.3940  0.0433  0.1598
  141OSM    H5F15472   3.645   3.692   7.423  0.3033 -1.3657 -2.6059
  141OSM    H5G15473   3.483   3.679   7.359 -0.4278 -0.2537  2.1193
  141OSM    C6F15474   3.483   3.807   7.524 -0.4730 -0.1268  0.0049
  141OSM    H6F15475   3.455   3.715   7.579  2.1009 -1.7334 -1.1571
  141OSM    H6G15476   3.390   3.858   7.489 -0.9729 -0.4478  0.8354
  141OSM    C7F15477   3.563   3.905   7.611  0.5882 -0.3600  0.0513
  141OSM    H7F15478   3.494   3.958   7.679 -0.7458 -0.2182 -1.3550
  141OSM    H7G15479   3.616   3.982   7.551  2.2193  0.2518  2.1446
  141OSM    C8F15480   3.682   3.832   7.685 -0.7125  0.6221  0.0629
  141OSM    H8F15481   3.735   3.908   7.745 -0.7263 -0.8395  2.0338
  141OSM    H8G15482   3.750   3.797   7.604 -0.4813  2.8875 -0.7920
  141OSM    C9F15483   3.631   3.712   7.763 -0.2364  0.9225 -0.5227
  141OSM    H9F15484   3.617   3.617   7.710 -0.0789  0.1126  0.8346
  141OSM   C10F15485   3.599   3.705   7.897  0.8021  0.0079  0.0951
  141OSM   H10F15486   3.551   3.617   7.942 -0.9248 -0.6735 -2.7841
  141OSM   C11F15487   3.621   3.820   7.989 -1.1695 -0.7723  0.4931
  141OSM   H11F15488   3.542   3.826   8.067 -0.2307 -1.8137  1.5647
  141OSM   H11G15489   3.624   3.914   7.929  0.5863 -2.2751 -1.9850
  141OSM   C12F15490   3.751   3.803   8.064  0.0214 -0.5284  0.3554
  141OSM   H12F15491   3.781   3.903   8.104 -2.1892  0.5963 -0.5990
  141OSM   H12G15492   3.834   3.780   7.994 -0.9974  0.7289 -1.3656
  141OSM   C13F15493   3.736   3.712   8.186  0.0824 -0.0670  0.0127
  141OSM   H13F15494   3.719   3.613   8.137  2.6689 -1.1465  1.0797
  141OSM   H13G15495   3.640   3.727   8.239  0.3947  1.3405  0.2039
  141OSM   C14F15496   3.848   3.706   8.286  0.2846  0.0965  0.2974
  141OSM   H14F15497   3.835   3.803   8.338 -1.2547 -0.2297  0.5926
  141OSM   H14G15498   3.947   3.710   8.237  0.1250 -0.5022 -0.0849
  141OSM   C15F15499   3.850   3.588   8.388  0.2347 -0.2856 -0.0451
  141OSM   H15F15500   3.870   3.494   8.331  0.3049 -0.4835  0.3030
  141OSM   H15G15501   3.750   3.582   8.436 -0.6676 -0.7314 -1.8982
  141OSM   C16F15502   3.973   3.600   8.490  0.6491  0.5168 -0.4188
  141OSM   H16F15503   3.982   3.707   8.516 -0.0687  0.4029  0.3462
  141OSM   H16G15504   4.069   3.588   8.435 -0.2413  0.4299 -2.0169
  141OSM   C17F15505   3.967   3.516   8.617 -0.5264  0.4627  0.8112
  141OSM   H17F15506   3.922   3.414   8.609 -1.2784  0.6362  2.4443
  141OSM   H17G15507   3.904   3.568   8.692  0.9910  0.1267  2.3912
  141OSM   C18F15508   4.112   3.507   8.669  0.3858 -0.1805 -0.4484
  141OSM   H18F15509   4.170   3.601   8.662  1.1266 -0.5756  0.1875
  141OSM   H18G15510   4.175   3.428   8.622  2.0531 -0.0194  1.3955
  141OSM   H18H15511   4.118   3.470   8.773  0.0825  1.8335  0.3121
  142OSM      N15512   1.390   3.059   6.149  0.0811  0.7712  0.3929
  142OSM    C1515513   1.525   3.053   6.079 -0.1218 -0.9565 -0.2354
  142OSM   H15A15514   1.587   2.976   6.122 -0.9117 -2.1427 -1.1669
  142OSM   H15B15515   1.569   3.150   6.102 -1.6341 -0.0128 -1.1680
  142OSM   H15C15516   1.529   3.049   5.971 -0.7662  1.3897 -0.4180
  142OSM    C1415517   1.317   2.929   6.132  0.2817 -0.0231  0.1626
  142OSM   H14A15518   1.388   2.851   6.156  0.1076  0.0773  1.0252
  142OSM   H14B15519   1.292   2.916   6.028  1.9237  1.0932 -0.4204
  142OSM   H14C15520   1.238   2.922   6.205  1.5188  2.6100  1.9528
  142OSM    C1315521   1.426   3.082   6.295  0.3816 -0.1754  0.0557
  142OSM   H13A15522   1.519   3.030   6.314 -0.4932 -2.2423 -0.9525
  142OSM   H13B15523   1.346   3.051   6.361  0.4791 -0.8785 -0.1494
  142OSM   H13C15524   1.444   3.186   6.314  2.8706 -0.6392  0.5513
  142OSM    C1215525   1.305   3.179   6.099 -0.1405  0.0277 -0.0295
  142OSM   H12A15526   1.212   3.177   6.155 -0.2243 -0.1963 -0.1774
  142OSM   H12B15527   1.274   3.152   5.999 -0.9889 -2.3117  0.7923
  142OSM    C1115528   1.366   3.320   6.121  0.1538  0.1300  0.1538
  142OSM   H11A15529   1.313   3.395   6.057  0.0940 -0.6692 -0.7451
  142OSM   H11B15530   1.469   3.317   6.081  0.1891  1.8866  0.0112
  142OSM      P15531   1.240   3.420   6.336 -0.0138 -0.1730 -0.6611
  142OSM    O1315532   1.264   3.560   6.370  0.2384 -0.4579 -0.6660
  142OSM    O1415533   1.116   3.392   6.270  0.5305 -0.3135 -0.1776
  142OSM    O1115534   1.228   3.343   6.475  0.2281 -0.5089 -0.0460
  142OSM    O1215535   1.370   3.357   6.262 -0.0596 -0.0433  0.2035
  142OSM    C1S15536   1.334   3.363   6.569 -0.2879 -0.2718 -0.6689
  142OSM    H1S15537   1.322   3.466   6.610  0.0904 -0.5171  0.0758
  142OSM    H1T15538   1.434   3.350   6.522  0.6600 -0.6900  1.3405
  142OSM     NF15539   1.426   3.312   6.792  0.2692  0.0909 -0.3204
  142OSM    HNF15540   1.472   3.235   6.834  0.3823 -0.0763 -0.7566
  142OSM    C2S15541   1.320   3.282   6.694  0.9970  0.2990 -0.4313
  142OSM    H2S15542   1.227   3.316   6.745  0.7763 -0.9807  0.0526
  142OSM    C3S15543   1.308   3.123   6.660  0.3576 -0.3797 -0.3682
  142OSM    H3S15544   1.408   3.084   6.631  0.0197 -1.6347  0.0934
  142OSM     O315545   1.208   3.095   6.557 -0.3932 -0.6330 -0.2324
  142OSM    HO315546   1.195   3.185   6.524 -1.3931 -0.3248  0.9250
  142OSM    C4S15547   1.268   3.063   6.789  0.1006 -0.2140 -0.3949
  142OSM    H4S15548   1.354   3.065   6.858 -2.2836  2.2072  2.8162
  142OSM    C5S15549   1.155   2.997   6.828 -0.0712  0.0060 -0.2186
  142OSM    H5S15550   1.072   2.984   6.756  0.1899  1.7371 -0.8940
  142OSM    C6S15551   1.141   2.932   6.967 -0.0357 -0.1618  0.2501
  142OSM    H6S15552   1.155   2.822   6.957 -0.4467 -0.0563 -1.9541
  142OSM    H6T15553   1.036   2.952   6.997 -0.1206  0.2697 -0.3325
  142OSM    C7S15554   1.239   2.986   7.078 -0.0019 -0.0014  0.3124
  142OSM    H7S15555   1.232   3.097   7.079  0.2204  0.0125  0.3998
  142OSM    H7T15556   1.340   2.957   7.041 -0.5192  0.9567 -2.0790
  142OSM    C8S15557   1.209   2.922   7.214  0.1153  0.2687 -0.8793
  142OSM    H8S15558   1.099   2.926   7.230  0.3572  2.5942  0.5485
  142OSM    H8T15559   1.259   2.987   7.288 -0.8257 -2.6985  2.6482
  142OSM    C9S15560   1.264   2.779   7.241  0.0672  0.1176  0.3582
  142OSM    H9S15561   1.372   2.779   7.267  0.0988 -2.4212  0.4158
  142OSM    H9T15562   1.245   2.719   7.149 -1.5299  2.0267 -0.6403
  142OSM   C10S15563   1.187   2.709   7.358  0.3741 -0.1615 -0.0224
  142OSM   H10S15564   1.215   2.602   7.357  0.7271 -0.1018 -2.4926
  142OSM   H10T15565   1.079   2.708   7.329  0.2371 -3.0895  0.3544
  142OSM   C11S15566   1.214   2.774   7.491  0.7362 -0.2498 -0.0525
  142OSM   H11S15567   1.182   2.880   7.490  0.7228 -0.2463 -1.2020
  142OSM   H11T15568   1.321   2.774   7.521  0.7012 -0.6630  0.0740
  142OSM   C12S15569   1.137   2.703   7.612 -0.4246 -0.1422  1.3324
  142OSM   H12S15570   1.184   2.604   7.625  1.5598  0.7055  1.0026
  142OSM   H12T15571   1.035   2.688   7.572 -0.4271  1.3720  0.6862
  142OSM   C13S15572   1.147   2.773   7.747  0.0610 -0.5491  0.3792
  142OSM   H13S15573   1.115   2.877   7.726 -1.7571 -0.9775  0.8278
  142OSM   H13T15574   1.255   2.783   7.767 -0.0639  3.7686 -0.1833
  142OSM   C14S15575   1.080   2.706   7.863  0.2868  0.1398 -0.3589
  142OSM   H14S15576   1.077   2.597   7.844 -1.5443  0.2306 -0.7332
  142OSM   H14T15577   0.972   2.732   7.868  0.4231  0.5950  0.5579
  142OSM   C15S15578   1.152   2.726   7.996 -0.2687 -0.6713  0.0948
  142OSM   H15S15579   1.169   2.835   8.005  1.7344 -0.6354 -2.6364
  142OSM   H15T15580   1.251   2.676   7.999 -0.3694 -0.8633  0.2651
  142OSM   C16S15581   1.082   2.674   8.119  0.2075  0.4336  0.7981
  142OSM   H16S15582   1.068   2.564   8.123 -0.8429  0.5038 -0.3142
  142OSM   H16T15583   0.975   2.699   8.135 -0.6809 -2.9354  0.9567
  142OSM   C17S15584   1.143   2.712   8.243  0.6900  0.0913 -0.8092
  142OSM   H17S15585   1.140   2.823   8.251  0.9833 -0.0186  4.5983
  142OSM   H17T15586   1.251   2.684   8.253  0.5875  0.0275  0.1986
  142OSM   C18S15587   1.074   2.636   8.363 -0.1496  0.6021  0.2775
  142OSM   H18S15588   1.098   2.529   8.343  2.1651  1.3059 -1.0624
  142OSM   H18T15589   0.966   2.659   8.374 -0.1799  0.1773  0.9332
  142OSM   H18U15590   1.124   2.669   8.457  1.1776  0.5866 -0.4068
  142OSM    C1F15591   1.458   3.430   6.842 -0.5135  0.6125  0.2840
  142OSM     OF15592   1.395   3.528   6.819  0.0296  0.2596 -0.1937
  142OSM    C2F15593   1.582   3.421   6.929  0.8243  0.5454  0.5838
  142OSM    H2F15594   1.650   3.355   6.871  0.0458  0.8393 -0.6776
  142OSM    H2G15595   1.563   3.352   7.014 -0.6274  0.1535 -0.0388
  142OSM    C3F15596   1.628   3.564   6.962 -0.1897  0.3701 -0.2480
  142OSM    H3F15597   1.544   3.620   7.008 -0.1875 -0.3629  0.6898
  142OSM    H3G15598   1.664   3.624   6.876 -1.4600 -0.0627 -1.1011
  142OSM    C4F15599   1.740   3.570   7.071 -0.2405 -1.0585  0.1765
  142OSM    H4F15600   1.761   3.679   7.066  1.4019 -1.3611 -0.3353
  142OSM    H4G15601   1.835   3.523   7.037 -0.5190  0.4295 -3.0889
  142OSM    C5F15602   1.692   3.524   7.207  0.3981  0.5023 -0.0412
  142OSM    H5F15603   1.669   3.416   7.205 -0.1198  0.6212 -0.9611
  142OSM    H5G15604   1.591   3.563   7.233  0.8210  1.8025 -0.2868
  142OSM    C6F15605   1.797   3.563   7.322  0.6404 -0.8279 -0.2292
  142OSM    H6F15606   1.806   3.672   7.343  0.5753 -0.1877 -3.1500
  142OSM    H6G15607   1.898   3.531   7.289 -0.0530 -1.6117 -1.6814
  142OSM    C7F15608   1.762   3.485   7.444  0.2158  0.2090  0.1295
  142OSM    H7F15609   1.796   3.379   7.441 -2.4676 -0.6974 -0.4658
  142OSM    H7G15610   1.651   3.481   7.441  0.2106  0.6400 -0.4211
  142OSM    C8F15611   1.810   3.541   7.577 -0.5141 -0.6761 -0.3822
  142OSM    H8F15612   1.768   3.643   7.592 -0.8514 -0.6919 -1.1598
  142OSM    H8G15613   1.920   3.555   7.570 -0.2185 -2.5374 -0.0438
  142OSM    C9F15614   1.760   3.455   7.692  0.1096 -0.4748  0.1966
  142OSM    H9F15615   1.658   3.418   7.675  0.0550 -0.2774  0.0902
  142OSM   C10F15616   1.816   3.431   7.812  0.0268 -0.8899  0.1933
  142OSM   H10F15617   1.764   3.367   7.885  2.9641  0.8319  4.0920
  142OSM   C11F15618   1.949   3.490   7.859  0.4566  0.7028 -0.1464
  142OSM   H11F15619   1.975   3.578   7.797 -1.0420 -0.1362 -2.0860
  142OSM   H11G15620   2.031   3.418   7.841 -0.1017  0.0807 -0.2549
  142OSM   C12F15621   1.954   3.526   8.007  1.0733  0.0097  0.5481
  142OSM   H12F15622   1.883   3.598   8.054  0.6342 -1.4183  2.1699
  142OSM   H12G15623   2.050   3.582   8.014  0.9896  0.5800 -1.8520
  142OSM   C13F15624   1.965   3.406   8.104 -0.6565 -0.5734 -0.7511
  142OSM   H13F15625   2.056   3.349   8.076 -0.5342 -0.4735 -0.5547
  142OSM   H13G15626   1.874   3.346   8.080 -1.6582 -0.8790  3.1861
  142OSM   C14F15627   1.952   3.438   8.254 -0.2349  0.0838 -0.4594
  142OSM   H14F15628   1.852   3.487   8.264 -0.0579  0.0663  1.7713
  142OSM   H14G15629   2.031   3.507   8.291 -0.5018 -0.9968  2.3519
  142OSM   C15F15630   1.941   3.305   8.339  0.1311  0.0317 -0.3871
  142OSM   H15F15631   2.045   3.267   8.342  0.7495  1.7085  2.1900
  142OSM   H15G15632   1.873   3.235   8.286 -0.7214  0.9903 -0.6070
  142OSM   C16F15633   1.894   3.322   8.480 -0.3261  0.2383 -0.1477
  142OSM   H16F15634   1.790   3.361   8.485 -0.1909  0.4740  2.1755
  142OSM   H16G15635   1.954   3.383   8.550 -1.2189  2.5549 -1.3116
  142OSM   C17F15636   1.892   3.182   8.552  0.0524 -1.1675  0.5207
  142OSM   H17F15637   1.997   3.150   8.567  1.4298  1.9241 -1.5018
  142OSM   H17G15638   1.846   3.105   8.487  2.9549  0.0009 -3.2723
  142OSM   C18F15639   1.816   3.191   8.681 -0.0427 -0.3700 -0.6080
  142OSM   H18F15640   1.856   3.268   8.751  1.7605 -0.7651 -1.1418
  142OSM   H18G15641   1.821   3.092   8.731 -0.8377 -0.1781 -0.1326
  142OSM   H18H15642   1.712   3.221   8.658 -0.5598 -1.5676  0.1041
  143OSM      N15643   4.402   1.162   6.271 -0.2046  0.0976 -0.0757
  143OSM    C1515644   4.414   1.053   6.172  0.1571  0.1083  0.0463
  143OSM   H15A15645   4.323   1.023   6.123  1.3130 -0.0864 -2.1504
  143OSM   H15B15646   4.474   0.971   6.208 -0.0544 -0.2140 -0.3272
  143OSM   H15C15647   4.483   1.091   6.098  0.8011  1.1718  1.1624
  143OSM    C1415648   4.534   1.177   6.336 -0.2510  0.1333 -0.7480
  143OSM   H14A15649   4.598   1.172   6.249 -0.7219 -3.2020 -1.0494
  143OSM   H14B15650   4.563   1.093   6.397  2.1185  0.5430 -1.1896
  143OSM   H14C15651   4.540   1.268   6.393 -1.2343  2.0851 -3.5414
  143OSM    C1315652   4.367   1.293   6.197 -0.0759 -0.5021  0.7526
  143OSM   H13A15653   4.442   1.309   6.121  1.1495 -0.1960  1.9862
  143OSM   H13B15654   4.364   1.377   6.265 -2.8498  0.5684 -0.5457
  143OSM   H13C15655   4.266   1.291   6.159  0.0058  0.1434  0.4929
  143OSM    C1215656   4.295   1.133   6.380 -0.0960  0.3330  0.6474
  143OSM   H12A15657   4.286   1.204   6.460  1.5401 -0.1315  1.2940
  143OSM   H12B15658   4.323   1.043   6.434 -2.4560  0.3160  1.9755
  143OSM    C1115659   4.149   1.114   6.328  0.5226  0.6883  0.4349
  143OSM   H11A15660   4.131   1.202   6.262  1.0711  0.3418 -0.1798
  143OSM   H11B15661   4.083   1.136   6.415  1.1660  1.9498  0.6261
  143OSM      P15662   4.134   0.852   6.314 -0.1839  0.4807  0.0660
  143OSM    O1315663   4.002   0.844   6.384  0.0220 -0.1051 -0.3979
  143OSM    O1415664   4.161   0.750   6.214  0.1561  0.6075 -0.3344
  143OSM    O1115665   4.243   0.859   6.425  0.1972 -0.0503  0.2696
  143OSM    O1215666   4.137   0.992   6.246  0.3636 -0.0081  0.3857
  143OSM    C1S15667   4.231   0.779   6.545 -0.5444  0.3871 -0.1616
  143OSM    H1S15668   4.163   0.692   6.535  0.0197  0.0590 -1.2757
  143OSM    H1T15669   4.203   0.848   6.628  1.1931  0.8990  0.0512
  143OSM     NF15670   4.356   0.656   6.723 -0.0820 -0.3622 -0.1261
  143OSM    HNF15671   4.374   0.710   6.805  0.3550 -0.9221  0.1492
  143OSM    C2S15672   4.372   0.726   6.599  0.1168  0.1237 -0.5342
  143OSM    H2S15673   4.412   0.652   6.526 -1.4251 -0.5144 -0.7741
  143OSM    C3S15674   4.475   0.841   6.600 -0.2711  0.5589  0.1843
  143OSM    H3S15675   4.433   0.924   6.661  4.0340  0.5415  3.6142
  143OSM     O315676   4.510   0.883   6.469  0.1383  0.5501 -0.1163
  143OSM    HO315677   4.438   0.841   6.422 -1.3939  0.9684  1.7069
  143OSM    C4S15678   4.606   0.804   6.671  0.3063 -0.2852  0.4579
  143OSM    H4S15679   4.666   0.723   6.626 -0.2256 -1.6971  2.1939
  143OSM    C5S15680   4.645   0.853   6.789 -0.6158 -0.5750  0.0023
  143OSM    H5S15681   4.591   0.938   6.834  0.5035  0.7288 -1.0436
  143OSM    C6S15682   4.773   0.824   6.866 -1.0383  0.3363  0.5511
  143OSM    H6S15683   4.840   0.912   6.877 -0.5037  0.4726 -2.7891
  143OSM    H6T15684   4.824   0.746   6.806 -1.8145  0.3208 -0.1077
  143OSM    C7S15685   4.752   0.767   7.007 -0.1306 -0.3488 -0.0704
  143OSM    H7S15686   4.700   0.669   6.998 -1.4032  0.3351 -0.3748
  143OSM    H7T15687   4.677   0.838   7.048  2.3766  3.1072 -0.9538
  143OSM    C8S15688   4.872   0.768   7.104 -0.4184 -0.7390  0.0435
  143OSM    H8S15689   4.885   0.874   7.134 -4.1009 -0.5807  1.5815
  143OSM    H8T15690   4.971   0.751   7.056  1.7133  2.8913  2.6315
  143OSM    C9S15691   4.846   0.670   7.224 -0.3459  0.1346 -0.9038
  143OSM    H9S15692   4.872   0.571   7.181 -1.4806  0.3658 -2.1749
  143OSM    H9T15693   4.740   0.691   7.247  0.2633  2.1862  0.3268
  143OSM   C10S15694   4.910   0.715   7.359 -0.6050  0.2178  0.0378
  143OSM   H10S15695   4.910   0.825   7.375 -1.9365 -0.1819  3.8409
  143OSM   H10T15696   5.017   0.683   7.354 -0.5804  0.1217  1.0132
  143OSM   C11S15697   4.852   0.642   7.483  0.1113  0.2508 -0.6954
  143OSM   H11S15698   4.894   0.539   7.480  0.6250  0.4873 -2.1778
  143OSM   H11T15699   4.741   0.641   7.473 -0.0363 -4.2390 -0.4997
  143OSM   C12S15700   4.887   0.704   7.618  0.1759  0.1956 -0.1681
  143OSM   H12S15701   4.887   0.814   7.607  0.8237  0.0865 -1.3977
  143OSM   H12T15702   4.992   0.686   7.652 -0.3708 -0.5822  1.1961
  143OSM   C13S15703   4.799   0.667   7.738  0.6804 -0.3921  0.2204
  143OSM   H13S15704   4.791   0.556   7.743  0.1207 -0.3222  1.1631
  143OSM   H13T15705   4.698   0.705   7.713  0.9202 -0.7968 -1.4856
  143OSM   C14S15706   4.839   0.715   7.881 -0.5956 -0.3178 -0.2239
  143OSM   H14S15707   4.861   0.824   7.891  0.7604 -0.7108  1.7554
  143OSM   H14T15708   4.947   0.695   7.900  0.0676  3.5620  1.0351
  143OSM   C15S15709   4.749   0.661   7.993 -0.1695 -0.6358 -0.0486
  143OSM   H15S15710   4.759   0.552   8.011 -0.7511 -0.6199  0.3998
  143OSM   H15T15711   4.641   0.687   7.988 -0.5054 -1.8164  0.7073
  143OSM   C16S15712   4.803   0.730   8.122  0.6563 -0.5341 -0.5056
  143OSM   H16S15713   4.807   0.839   8.106  0.4639 -0.8630 -3.1704
  143OSM   H16T15714   4.901   0.677   8.124  0.0627 -1.7013 -0.9567
  143OSM   C17S15715   4.735   0.692   8.255 -0.5137  0.3581 -0.1661
  143OSM   H17S15716   4.812   0.686   8.335  0.3877  0.3566 -1.0185
  143OSM   H17T15717   4.699   0.587   8.250  2.4440 -0.9735  2.5055
  143OSM   C18S15718   4.619   0.788   8.291  0.4379 -0.4189  1.1564
  143OSM   H18S15719   4.553   0.750   8.372 -2.3672  2.6696  0.5530
  143OSM   H18T15720   4.568   0.805   8.194 -1.4618 -0.4298  2.1040
  143OSM   H18U15721   4.665   0.883   8.327 -1.1237  0.4400  0.9936
  143OSM    C1F15722   4.296   0.538   6.735  0.0258  0.3198 -0.4265
  143OSM     OF15723   4.265   0.476   6.636 -0.2882  0.5658 -0.4746
  143OSM    C2F15724   4.281   0.488   6.875 -0.7054 -0.3644  0.1542
  143OSM    H2F15725   4.317   0.560   6.951 -1.4836  0.8209 -0.5614
  143OSM    H2G15726   4.340   0.394   6.876 -0.8023 -0.4753 -1.5373
  143OSM    C3F15727   4.136   0.445   6.907  0.1571  0.1296  0.0929
  143OSM    H3F15728   4.092   0.376   6.832  1.7781 -2.8113  1.6380
  143OSM    H3G15729   4.078   0.539   6.913  0.6857  0.4998 -0.4882
  143OSM    C4F15730   4.137   0.384   7.042  0.1811 -0.7817  0.2005
  143OSM    H4F15731   4.031   0.372   7.073  0.2880 -2.1452  0.1087
  143OSM    H4G15732   4.178   0.448   7.123 -2.4343 -1.7623  2.4926
  143OSM    C5F15733   4.185   0.236   7.059 -0.4205 -0.1297 -0.3131
  143OSM    H5F15734   4.295   0.229   7.047  0.0321  1.8704  1.8473
  143OSM    H5G15735   4.136   0.178   6.978 -1.5162 -3.6852  2.6685
  143OSM    C6F15736   4.144   0.175   7.198  0.7569 -0.3402 -0.0843
  143OSM    H6F15737   4.208   0.084   7.206  0.4905 -0.9072 -3.1864
  143OSM    H6G15738   4.039   0.141   7.193  0.5060  0.4883 -0.4520
  143OSM    C7F15739   4.161   0.253   7.331  0.2528  0.8039  0.3848
  143OSM    H7F15740   4.089   0.338   7.338  1.1552  1.6978 -0.6681
  143OSM    H7G15741   4.266   0.290   7.335  0.9890 -0.8637 -1.6525
  143OSM    C8F15742   4.113   0.172   7.454  0.0133  0.0787 -0.2588
  143OSM    H8F15743   4.186   0.089   7.458  1.6207  1.4835  0.8025
  143OSM    H8G15744   4.016   0.119   7.439  0.0536  0.2145 -1.0382
  143OSM    C9F15745   4.112   0.246   7.583 -0.7148 -0.4402 -0.5352
  143OSM    H9F15746   4.111   0.356   7.581  1.6172 -0.3691 -0.3820
  143OSM   C10F15747   4.121   0.190   7.707  0.7355 -0.5606  0.5318
  143OSM   H10F15748   4.134   0.258   7.793  0.5959  1.0513 -0.6840
  143OSM   C11F15749   4.136   0.046   7.745 -0.0498 -0.0411 -0.5812
  143OSM   H11F15750   4.130  -0.016   7.653 -1.3280 -0.5590 -0.1612
  143OSM   H11G15751   4.051   0.011   7.806  0.6463  2.2616  1.8813
  143OSM   C12F15752   4.263   0.022   7.825 -0.2554 -0.7120  0.5138
  143OSM   H12F15753   4.254   0.083   7.917 -3.2819  0.6441 -0.5866
  143OSM   H12G15754   4.357   0.059   7.778 -2.1229  0.7571 -2.3099
  143OSM   C13F15755   4.286  -0.129   7.874 -0.4114  0.1387  0.3434
  143OSM   H13F15756   4.336  -0.180   7.789  1.6049 -0.2233  1.6716
  143OSM   H13G15757   4.187  -0.178   7.884 -0.2312 -0.7147 -1.6836
  143OSM   C14F15758   4.372  -0.151   8.000  0.3346 -0.0367  0.4203
  143OSM   H14F15759   4.471  -0.112   7.966 -0.1090 -1.4209 -2.8598
  143OSM   H14G15760   4.392  -0.258   8.018  3.2268  0.2605 -0.4951
  143OSM   C15F15761   4.323  -0.079   8.126 -0.0260 -0.0663  0.0438
  143OSM   H15F15762   4.217  -0.107   8.142 -0.4892  1.9282  0.8301
  143OSM   H15G15763   4.340   0.030   8.115  2.0383 -0.4116 -0.5478
  143OSM   C16F15764   4.395  -0.133   8.251 -0.3664 -0.0140  0.4712
  143OSM   H16F15765   4.503  -0.117   8.232 -0.3940 -0.1303  0.1998
  143OSM   H16G15766   4.374  -0.241   8.269 -0.9433  0.1677  0.9326
  143OSM   C17F15767   4.345  -0.069   8.377  0.2335  0.2109  0.0585
  143OSM   H17F15768   4.241  -0.101   8.397 -0.2659  0.1066 -2.4097
  143OSM   H17G15769   4.371   0.039   8.382  2.8973 -0.3993  1.4410
  143OSM   C18F15770   4.424  -0.109   8.500 -0.0178  0.8611  0.3556
  143OSM   H18F15771   4.426  -0.219   8.516  0.1168  0.6994 -0.6854
  143OSM   H18G15772   4.401  -0.044   8.587  2.2326 -0.2725  1.8914
  143OSM   H18H15773   4.531  -0.082   8.495 -0.1219  1.1216 -0.6544
  144OSM      N15774   2.742   5.065   6.063 -0.7127  0.0516 -0.2710
  144OSM    C1515775   2.652   4.955   6.018 -0.2959  0.0719  0.6582
  144OSM   H15A15776   2.569   4.939   6.085 -0.6104  2.9943  1.1212
  144OSM   H15B15777   2.706   4.862   6.013  2.0418  1.4169 -1.3683
  144OSM   H15C15778   2.613   4.986   5.922  0.3454 -2.9980 -0.6968
  144OSM    C1415779   2.853   5.083   5.964 -0.2345 -0.6791 -0.1360
  144OSM   H14A15780   2.922   5.000   5.976  1.0967  0.5532  1.0709
  144OSM   H14B15781   2.921   5.166   5.960  0.2061 -0.9999  0.4650
  144OSM   H14C15782   2.816   5.074   5.863  0.0055 -3.2888 -0.0592
  144OSM    C1315783   2.667   5.195   6.061  0.0807 -0.9321 -0.4655
  144OSM   H13A15784   2.717   5.269   6.121 -1.7415  0.6685 -0.8034
  144OSM   H13B15785   2.566   5.176   6.097  0.9170 -0.2983  2.5173
  144OSM   H13C15786   2.675   5.230   5.959  1.9555 -2.0478 -0.7484
  144OSM    C1215787   2.803   5.033   6.206 -0.4059 -0.9503  0.5262
  144OSM   H12A15788   2.878   5.110   6.220 -2.1013  1.3484 -1.8551
  144OSM   H12B15789   2.863   4.944   6.192  0.0850 -0.6775  0.8641
  144OSM    C1115790   2.707   5.009   6.330 -0.2970 -0.5547  0.1463
  144OSM   H11A15791   2.655   5.106   6.347 -0.4084  0.1605 -3.5216
  144OSM   H11B15792   2.781   4.995   6.412  1.5571  1.9947 -0.9549
  144OSM      P15793   2.684   4.751   6.347  0.3928 -0.6191 -0.2544
  144OSM    O1315794   2.583   4.653   6.305 -0.2671 -0.3997 -0.1765
  144OSM    O1415795   2.821   4.746   6.292 -0.0373  0.6702  0.3849
  144OSM    O1115796   2.686   4.760   6.505 -0.4533 -0.0089 -0.0212
  144OSM    O1215797   2.619   4.897   6.314 -0.7236  0.6488 -0.2802
  144OSM    C1S15798   2.606   4.839   6.589  0.0858  0.2593 -0.1938
  144OSM    H1S15799   2.500   4.811   6.569  0.8261 -1.6067 -1.8030
  144OSM    H1T15800   2.620   4.947   6.567 -3.1148  0.7671 -0.2895
  144OSM     NF15801   2.523   4.843   6.822  0.9085  0.1871 -0.7856
  144OSM    HNF15802   2.530   4.934   6.863  2.4876  0.0590 -0.7024
  144OSM    C2S15803   2.633   4.798   6.739 -0.9162 -0.5404  0.1693
  144OSM    H2S15804   2.635   4.687   6.744 -0.6389 -0.4841  2.4235
  144OSM    C3S15805   2.777   4.852   6.784 -0.5573  0.4091  0.2794
  144OSM    H3S15806   2.786   4.958   6.752 -0.0191  0.4502  0.5473
  144OSM     O315807   2.872   4.784   6.704  0.5613  0.4105  0.3502
  144OSM    HO315808   2.827   4.777   6.620 -1.2054 -0.2330  1.2989
  144OSM    C4S15809   2.791   4.850   6.930  0.0570 -0.1740 -0.1167
  144OSM    H4S15810   2.771   4.952   6.965 -1.9264 -0.4712 -0.2984
  144OSM    C5S15811   2.819   4.749   7.013  0.0308  0.1898 -0.6273
  144OSM    H5S15812   2.817   4.646   6.974 -1.8250  0.0350 -0.1894
  144OSM    C6S15813   2.829   4.761   7.161  0.3540 -0.2472  0.4607
  144OSM    H6S15814   2.901   4.843   7.182 -0.2376  0.7880 -1.3247
  144OSM    H6T15815   2.853   4.668   7.217  0.5548  0.8100  2.2285
  144OSM    C7S15816   2.693   4.804   7.227 -0.1604  0.0748  0.1232
  144OSM    H7S15817   2.662   4.907   7.198  0.6700  1.3106  3.2238
  144OSM    H7T15818   2.718   4.809   7.335  0.5187 -0.4089 -0.0027
  144OSM    C8S15819   2.565   4.725   7.206  0.4151  0.0255 -0.0246
  144OSM    H8S15820   2.579   4.623   7.247 -0.1952  0.1377  0.4869
  144OSM    H8T15821   2.551   4.725   7.095 -0.3043  0.0885  0.0593
  144OSM    C9S15822   2.439   4.789   7.269 -0.7821 -0.1619  0.0734
  144OSM    H9S15823   2.359   4.712   7.262 -0.6715 -0.1269 -3.0704
  144OSM    H9T15824   2.405   4.878   7.212  1.6702 -0.3378 -1.8393
  144OSM   C10S15825   2.461   4.818   7.413 -0.3066 -0.3184 -0.0202
  144OSM   H10S15826   2.529   4.907   7.418  1.2577 -1.5172  1.7214
  144OSM   H10T15827   2.507   4.723   7.449 -1.6187 -1.6200 -1.6826
  144OSM   C11S15828   2.326   4.841   7.475  0.0148 -0.5850 -0.0554
  144OSM   H11S15829   2.272   4.746   7.491 -2.6168  1.0356  1.5278
  144OSM   H11T15830   2.275   4.908   7.402 -0.7778  1.0181  1.8469
  144OSM   C12S15831   2.328   4.909   7.616  0.4387  0.2646 -0.4577
  144OSM   H12S15832   2.383   5.006   7.616 -0.1485  0.6017 -0.0634
  144OSM   H12T15833   2.378   4.842   7.689 -2.1613 -0.7638  0.4632
  144OSM   C13S15834   2.184   4.933   7.661 -0.1351 -0.5472 -0.3253
  144OSM   H13S15835   2.132   4.834   7.659 -2.3061  0.4497  1.4213
  144OSM   H13T15836   2.137   5.003   7.589 -2.2815  0.2260  1.7026
  144OSM   C14S15837   2.175   4.989   7.805 -0.7654 -0.2375  0.3961
  144OSM   H14S15838   2.205   5.096   7.818  0.5933 -0.6106  0.4818
  144OSM   H14T15839   2.249   4.939   7.871  0.8848  0.7910 -0.5861
  144OSM   C15S15840   2.033   4.959   7.857 -0.7370  0.0159  0.0281
  144OSM   H15S15841   2.029   4.848   7.869 -1.0800  0.0882  0.6088
  144OSM   H15T15842   1.960   4.986   7.778 -0.8232  2.6911  0.9460
  144OSM   C16S15843   1.983   5.020   7.991  0.4163 -0.4173  0.3484
  144OSM   H16S15844   1.879   4.995   8.019  0.5650 -0.3126  0.9982
  144OSM   H16T15845   1.980   5.131   7.989 -0.9254 -0.4399  0.0898
  144OSM   C17S15846   2.075   4.989   8.116 -0.5451 -0.6582 -0.5886
  144OSM   H17S15847   2.177   5.024   8.092 -0.4068  0.2134  1.1047
  144OSM   H17T15848   2.064   4.883   8.148 -1.1126 -0.9087 -1.5658
  144OSM   C18S15849   2.039   5.075   8.234  0.3996  0.0850 -0.3328
  144OSM   H18S15850   2.103   5.048   8.321  1.3528  1.4664 -0.5564
  144OSM   H18T15851   1.935   5.065   8.271  0.0815  1.5206 -0.7706
  144OSM   H18U15852   2.063   5.183   8.217  1.0979  0.0178  0.1708
  144OSM    C1F15853   2.399   4.784   6.809  0.4955 -0.2963  0.4464
  144OSM     OF15854   2.386   4.686   6.737 -0.7285 -0.1280 -0.9303
  144OSM    C2F15855   2.280   4.842   6.878  0.1341  0.3815 -0.6391
  144OSM    H2F15856   2.198   4.855   6.804 -0.8334  2.0655  0.6497
  144OSM    H2G15857   2.293   4.944   6.921 -1.5210 -0.3595  1.8033
  144OSM    C3F15858   2.236   4.743   6.982  0.2028 -0.0886 -0.0494
  144OSM    H3F15859   2.307   4.740   7.067 -2.1684  0.6484  2.0788
  144OSM    H3G15860   2.234   4.638   6.944  1.8562  0.2134 -1.0439
  144OSM    C4F15861   2.106   4.779   7.061 -0.1479  0.6449  0.3330
  144OSM    H4F15862   2.018   4.781   6.994 -1.7157  0.1439  2.2700
  144OSM    H4G15863   2.097   4.881   7.104  0.8660  2.3973 -3.2466
  144OSM    C5F15864   2.080   4.675   7.181 -1.0440 -0.3224  0.1415
  144OSM    H5F15865   2.164   4.682   7.253  1.0032  0.6227 -2.1929
  144OSM    H5G15866   2.071   4.577   7.130  1.2507  0.3007 -1.6291
  144OSM    C6F15867   1.952   4.709   7.265 -0.2831  0.6034 -0.8277
  144OSM    H6F15868   1.874   4.709   7.186  1.1468  2.2736 -2.3198
  144OSM    H6G15869   1.977   4.809   7.307  2.1186 -0.6519  0.9770
  144OSM    C7F15870   1.927   4.597   7.373  0.0555 -0.3010 -0.3947
  144OSM    H7F15871   2.021   4.590   7.432 -0.4549 -1.1411  0.3486
  144OSM    H7G15872   1.921   4.497   7.324  0.5033 -0.6490  0.2429
  144OSM    C8F15873   1.811   4.614   7.470  0.3919 -0.3113  0.1463
  144OSM    H8F15874   1.822   4.536   7.548 -1.2557 -2.7637 -1.8924
  144OSM    H8G15875   1.716   4.602   7.413 -1.0511 -0.6044  2.5113
  144OSM    C9F15876   1.791   4.749   7.531  0.3002 -0.1309  0.0632
  144OSM    H9F15877   1.766   4.835   7.467  1.5784 -0.3557 -0.7917
  144OSM   C10F15878   1.774   4.775   7.660 -0.6566  0.3651 -0.4150
  144OSM   H10F15879   1.767   4.878   7.699 -2.2820  0.4163 -0.8069
  144OSM   C11F15880   1.763   4.675   7.780  0.0643 -0.8096  0.3385
  144OSM   H11F15881   1.861   4.657   7.828 -0.9870 -1.0196  2.5191
  144OSM   H11G15882   1.728   4.574   7.752  0.8951 -0.8350 -0.6819
  144OSM   C12F15883   1.670   4.744   7.889  0.3010 -0.2979 -0.2986
  144OSM   H12F15884   1.581   4.784   7.836 -0.3753 -2.5936 -1.0208
  144OSM   H12G15885   1.726   4.829   7.934 -0.9063  0.2977  0.1146
  144OSM   C13F15886   1.640   4.645   8.000  0.7002  0.9238  0.0935
  144OSM   H13F15887   1.660   4.544   7.959 -1.9142  0.5508 -0.4019
  144OSM   H13G15888   1.532   4.651   8.024  0.6921 -0.7814  0.6633
  144OSM   C14F15889   1.721   4.666   8.129  0.0298  0.1219 -0.2144
  144OSM   H14F15890   1.829   4.689   8.121 -0.2252  4.5817  4.1809
  144OSM   H14G15891   1.715   4.581   8.199  0.6803  0.9743  0.9044
  144OSM   C15F15892   1.680   4.789   8.202 -0.3812  0.7843  0.1524
  144OSM   H15F15893   1.570   4.775   8.204 -0.0736 -2.5044  0.0572
  144OSM   H15G15894   1.708   4.875   8.139  0.9968 -0.3748 -0.8789
  144OSM   C16F15895   1.728   4.803   8.347 -0.4203  0.4507 -0.1088
  144OSM   H16F15896   1.839   4.813   8.345 -0.4270  0.4461 -0.8194
  144OSM   H16G15897   1.712   4.699   8.384 -1.1147  0.4200 -0.4820
  144OSM   C17F15898   1.665   4.910   8.427  0.6641 -0.4094  0.4976
  144OSM   H17F15899   1.555   4.905   8.443  0.4299  2.0000 -0.0749
  144OSM   H17G15900   1.702   5.004   8.382  0.7971  0.4139  2.2497
  144OSM   C18F15901   1.712   4.914   8.571 -0.2742 -0.3484  0.0707
  144OSM   H18F15902   1.704   4.809   8.608 -0.4442 -0.5941 -0.6537
  144OSM   H18G15903   1.642   4.973   8.634 -0.2374  0.0262 -0.2423
  144OSM   H18H15904   1.819   4.943   8.576  0.0856 -1.0755 -2.2493
  145SAPE     N15905   5.715   6.581  10.895  0.2449 -0.3189  0.2576
  145SAPE   HN115906   5.615   6.596  10.917  0.8823  3.6991  1.3377
  145SAPE   HN215907   5.752   6.492  10.934 -0.5631 -0.3085  1.0818
  145SAPE   HN315908   5.775   6.661  10.926  0.4972 -0.3764 -0.0689
  145SAPE   C1215909   5.743   6.573  10.742 -0.2014 -0.3534 -0.1987
  145SAPE  H12A15910   5.687   6.483  10.710 -0.3172 -0.0211 -0.9337
  145SAPE  H12B15911   5.851   6.563  10.716 -0.2021  1.4982 -1.0826
  145SAPE   C1115912   5.681   6.688  10.668 -0.5991 -0.1865 -0.9149
  145SAPE  H11A15913   5.718   6.680  10.563  1.3567 -0.2372 -0.2619
  145SAPE  H11B15914   5.729   6.782  10.701  0.6950 -1.1945  0.1590
  145SAPE     P15915   5.462   6.799  10.744 -0.3456 -0.3045  0.0527
  145SAPE   O1315916   5.317   6.769  10.730 -0.5461  0.3506  0.1437
  145SAPE   O1415917   5.521   6.809  10.880  1.0305 -0.1682 -0.2891
  145SAPE   O1215918   5.540   6.693  10.683  0.1430 -0.1045  0.3615
  145SAPE   O1115919   5.502   6.922  10.659  0.1227  0.7502  0.2702
  145SAPE    C115920   5.512   6.929  10.518 -0.0588  0.2185  0.1151
  145SAPE    HA15921   5.618   6.935  10.486 -0.3848  0.1653 -1.0379
  145SAPE    HB15922   5.461   6.851  10.456 -2.8653  1.3201  0.8612
  145SAPE    C215923   5.458   7.069  10.477  0.3884 -0.4788 -0.1735
  145SAPE    HS15924   5.456   7.123  10.574  1.5989 -1.8491  0.6634
  145SAPE   O2115925   5.321   7.048  10.436  0.1359  0.6321 -0.1049
  145SAPE   C2115926   5.247   7.153  10.430  0.0706 -0.3402  0.1123
  145SAPE   O2215927   5.285   7.267  10.456  0.6916  0.5848  0.6306
  145SAPE   C2215928   5.107   7.118  10.385  0.0460 -0.0462 -0.1193
  145SAPE   H2R15929   5.107   7.029  10.319  2.3656  1.0528 -1.7357
  145SAPE   H2S15930   5.049   7.095  10.477  3.9683 -0.6360  2.4453
  145SAPE    C315931   5.555   7.141  10.374  0.5193  0.2236 -0.2234
  145SAPE    HX15932   5.655   7.147  10.422  1.1863 -0.1223 -1.5183
  145SAPE    HY15933   5.515   7.242  10.349 -0.2945 -0.8167 -3.6474
  145SAPE   O3115934   5.563   7.058  10.252  0.1675 -0.2956  0.1784
  145SAPE   C3115935   5.578   7.132  10.137 -0.7280  0.3603  0.0222
  145SAPE   O3215936   5.616   7.249  10.135  0.6806 -0.1999 -0.1461
  145SAPE   C3215937   5.532   7.056  10.015 -0.1340 -0.2514 -0.3571
  145SAPE   H2X15938   5.424   7.037  10.030 -0.6428  1.9846 -0.8637
  145SAPE   H2Y15939   5.605   6.974  10.000  2.1130  1.8183 -1.3830
  145SAPE   C2315940   5.031   7.235  10.315 -1.1488  0.4354 -0.4697
  145SAPE   H3R15941   5.101   7.306  10.265 -0.2041  0.3226  0.6523
  145SAPE   H3S15942   4.967   7.299  10.380 -2.8713 -1.5954 -0.0639
  145SAPE   C2415943   4.929   7.182  10.215 -0.8605  0.1341 -0.6174
  145SAPE   H4R15944   4.871   7.098  10.261  0.0753  0.4399  1.2041
  145SAPE   H4S15945   4.983   7.130  10.133 -1.6876 -4.2294  1.3091
  145SAPE   C2515946   4.843   7.300  10.172 -0.0676 -0.1010 -0.0719
  145SAPE   H5R15947   4.800   7.354  10.257  0.6623  0.8682 -0.3002
  145SAPE   C2615948   4.813   7.349  10.047 -0.2001  0.3269 -0.1481
  145SAPE   H6R15949   4.736   7.426  10.034  1.3360  1.5863 -2.3858
  145SAPE   C2715950   4.880   7.298   9.927  0.0196  0.3119 -0.1254
  145SAPE   H7R15951   4.839   7.351   9.838  1.0129  0.6658 -0.3842
  145SAPE   H7S15952   4.855   7.192   9.905 -1.8898  0.8472 -0.7321
  145SAPE   C2815953   5.031   7.325   9.936 -0.8044  0.4576 -0.4521
  145SAPE   H8R15954   5.059   7.409  10.001 -1.1570  1.7140 -1.8914
  145SAPE   C2915955   5.125   7.263   9.862  0.6232 -0.5499  0.3497
  145SAPE   H9R15956   5.229   7.291   9.883  1.0981 -1.6353 -0.4863
  145SAPE  C21015957   5.084   7.155   9.757 -0.2212 -1.0328 -0.0212
  145SAPE  H10R15958   5.002   7.191   9.692  1.2882  3.9772  0.4029
  145SAPE  H10S15959   5.037   7.070   9.812  0.4408  0.4155  2.9952
  145SAPE  C21115960   5.207   7.119   9.682 -0.9405 -0.7488  0.2186
  145SAPE  H11R15961   5.287   7.069   9.737  0.1625  1.4137  0.6692
  145SAPE  C21215962   5.226   7.126   9.549  0.5612  0.7061 -0.1385
  145SAPE  H12R15963   5.323   7.092   9.512  0.3392 -0.1666  0.0499
  145SAPE  C21315964   5.126   7.162   9.445 -0.0842 -0.3692 -0.4107
  145SAPE  H13R15965   5.179   7.179   9.349 -2.2671  2.3536 -1.2570
  145SAPE  H13S15966   5.080   7.259   9.474 -0.8384 -0.6555 -0.6511
  145SAPE  C21415967   5.023   7.053   9.429 -0.8853  0.1924 -0.2434
  145SAPE  H14R15968   4.975   7.019   9.523  1.1774 -1.5421  0.2687
  145SAPE  C21515969   4.977   6.993   9.315 -0.3752 -0.3508  0.4305
  145SAPE  H15R15970   4.893   6.921   9.315 -0.1582 -0.6037 -0.1918
  145SAPE  C21615971   5.022   7.028   9.175  1.3370 -0.2931  0.4995
  145SAPE  H16R15972   5.053   7.134   9.164  1.8553 -0.4250  0.6519
  145SAPE  H16S15973   4.938   7.027   9.104  1.5760  1.2041  0.1575
  145SAPE  C21715974   5.130   6.931   9.120  0.0287 -0.1630 -0.0208
  145SAPE  H17R15975   5.084   6.830   9.126 -1.0700  0.3278  0.1037
  145SAPE  H17S15976   5.214   6.940   9.193  0.5407  0.3510 -0.6557
  145SAPE  C21815977   5.180   6.968   8.978  0.1167  0.5180  0.4402
  145SAPE  H18R15978   5.287   6.940   8.975  0.2565  1.0437  0.4167
  145SAPE  H18S15979   5.173   7.075   8.951 -0.3139  0.1435 -1.0128
  145SAPE  C21915980   5.115   6.872   8.876 -0.9202  1.0702 -0.1441
  145SAPE  H19R15981   5.005   6.868   8.890 -1.1953  2.0240 -1.7397
  145SAPE  H19S15982   5.143   6.769   8.904 -0.8564  0.8928 -0.8636
  145SAPE  C22015983   5.136   6.892   8.730 -0.1083 -0.1588 -0.3369
  145SAPE  H20R15984   5.086   6.814   8.669  0.0401  0.2623 -1.0099
  145SAPE  H20S15985   5.245   6.885   8.708  0.1299 -1.9902  1.1690
  145SAPE  H20T15986   5.099   6.991   8.696  1.3836  1.3113  2.0055
  145SAPE   C3315987   5.551   7.141   9.883 -0.3313  0.5862  0.3146
  145SAPE   H3X15988   5.643   7.203   9.892 -0.7907  1.1703  1.0792
  145SAPE   H3Y15989   5.475   7.218   9.859 -1.8831 -1.0255 -0.2265
  145SAPE   C3415990   5.565   7.042   9.768 -0.3346  0.5093 -0.6211
  145SAPE   H4X15991   5.479   6.974   9.756 -0.2526  0.5930 -1.7877
  145SAPE   H4Y15992   5.636   6.963   9.800 -1.2417  0.1152  0.4538
  145SAPE   C3515993   5.599   7.104   9.631  0.3005  0.2341  0.4154
  145SAPE   H5X15994   5.694   7.160   9.622 -0.0089  0.6036 -0.7087
  145SAPE   H5Y15995   5.513   7.174   9.623  1.0082  1.0744  0.1402
  145SAPE   C3615996   5.591   6.997   9.525  0.5365 -0.1028  0.1633
  145SAPE   H6X15997   5.504   6.931   9.541  0.4086  0.1078  0.3403
  145SAPE   H6Y15998   5.685   6.939   9.533  0.0350 -1.0952 -0.8776
  145SAPE   C3715999   5.584   7.062   9.377  0.3737 -0.2115 -0.2989
  145SAPE   H7X16000   5.665   7.138   9.371  1.5626 -1.4221  0.0319
  145SAPE   H7Y16001   5.490   7.119   9.365  0.4505 -0.0744 -0.2502
  145SAPE   C3816002   5.595   6.957   9.270 -0.9115  0.1103  0.2510
  145SAPE   H8X16003   5.524   6.874   9.291  1.5102 -1.7178  1.8390
  145SAPE   H8Y16004   5.697   6.911   9.268  0.5998  3.2300  0.0917
  145SAPE   C3916005   5.572   7.001   9.122  0.2825  0.0430  0.2128
  145SAPE   H9X16006   5.647   7.083   9.108 -0.0965  0.4183  0.3515
  145SAPE   H9Y16007   5.469   7.041   9.108 -0.1696 -1.3221 -0.4736
  145SAPE  C31016008   5.588   6.876   9.030  0.6683 -0.5719  0.2135
  145SAPE  H10X16009   5.524   6.790   9.058 -0.6771 -0.4381 -2.2048
  145SAPE  H10Y16010   5.695   6.846   9.041  1.2104  0.9042 -0.7788
  145SAPE  C31116011   5.562   6.900   8.880  0.4299  0.1492  0.2267
  145SAPE  H11X16012   5.488   6.982   8.872  0.2527 -0.0208  0.1339
  145SAPE  H11Y16013   5.536   6.806   8.827  1.9915  0.3356 -0.9684
  145SAPE  C31216014   5.692   6.959   8.814 -0.1180  0.2647 -0.5268
  145SAPE  H12X16015   5.785   6.910   8.851  0.9588  2.6795  0.1284
  145SAPE  H12Y16016   5.703   7.066   8.843 -1.0377  0.4712 -0.9182
  145SAPE  C31316017   5.682   6.950   8.657 -0.6676 -0.4408  0.1616
  145SAPE  H13X16018   5.708   6.843   8.638  0.2682 -0.1519 -0.2278
  145SAPE  H13Y16019   5.756   7.013   8.604 -1.0317 -0.2851 -0.1654
  145SAPE  C31416020   5.547   6.970   8.592  0.1093  0.4354 -0.3520
  145SAPE  H14X16021   5.521   7.072   8.628  3.7439  0.7039  1.9946
  145SAPE  H14Y16022   5.465   6.908   8.635  1.1778 -2.3741 -2.0756
  145SAPE  C31516023   5.547   6.958   8.435  0.1296  0.9591  0.1687
  145SAPE  H15X16024   5.576   6.856   8.404 -1.7982  0.5916 -0.5733
  145SAPE  H15Y16025   5.624   7.027   8.395  0.6595  0.3241  0.0872
  145SAPE  C31616026   5.412   6.987   8.377 -0.7752 -0.3454 -0.2968
  145SAPE  H16X16027   5.386   7.092   8.402  1.4957  0.2442 -0.1699
  145SAPE  H16Y16028   5.337   6.923   8.428  0.2754  1.0041  3.2537
  145SAPE  C31716029   5.416   6.977   8.226 -0.1160 -0.4299  0.2097
  145SAPE  H17X16030   5.312   6.970   8.186  0.8710  0.2008 -2.7600
  145SAPE  H17Y16031   5.465   6.881   8.199 -0.0185 -0.3939  0.2568
  145SAPE  C31816032   5.492   7.094   8.162  0.3464 -0.0730 -0.3078
  145SAPE  H18X16033   5.487   7.078   8.052  0.9278 -1.1468 -0.1983
  145SAPE  H18Y16034   5.597   7.092   8.199 -0.1847  0.7388  1.3563
  145SAPE  H18Z16035   5.440   7.187   8.192 -1.1255 -0.7448 -0.7039
  146SAPE     N16036   3.476   2.154  11.211  0.2214 -0.1875  0.3514
  146SAPE   HN116037   3.505   2.251  11.185 -1.0736  0.6918  1.9959
  146SAPE   HN216038   3.436   2.105  11.129  2.4088 -3.4178  1.0101
  146SAPE   HN316039   3.398   2.155  11.280  1.8144  1.3625  2.2720
  146SAPE   C1216040   3.585   2.078  11.259 -0.3311  0.2288 -0.6493
  146SAPE  H12A16041   3.542   1.981  11.292 -1.2333  0.4480 -1.1562
  146SAPE  H12B16042   3.634   2.126  11.347 -2.5540 -1.1268  1.4617
  146SAPE   C1116043   3.703   2.068  11.166  0.1196 -0.0387  0.3081
  146SAPE  H11A16044   3.667   2.017  11.074  0.6084 -0.8193  0.5416
  146SAPE  H11B16045   3.783   2.003  11.206 -0.8445 -1.5067 -0.0387
  146SAPE     P16046   3.865   2.206  11.029  0.0883 -0.0252 -0.3025
  146SAPE   O1316047   3.866   2.345  10.976 -0.2465 -0.1890 -0.5210
  146SAPE   O1416048   3.988   2.158  11.087 -0.6067  0.2710 -0.8157
  146SAPE   O1216049   3.746   2.199  11.134 -0.3407 -0.2177  0.3603
  146SAPE   O1116050   3.825   2.106  10.915  0.5331  0.0332  0.3023
  146SAPE    C116051   3.720   2.150  10.832 -0.1356  0.6468  0.0271
  146SAPE    HA16052   3.634   2.184  10.893 -1.6857 -1.6861 -0.7533
  146SAPE    HB16053   3.752   2.237  10.769 -1.4028  0.9861 -0.1900
  146SAPE    C216054   3.670   2.042  10.732  0.2662 -0.4203  0.4055
  146SAPE    HS16055   3.636   1.955  10.792 -0.8591  0.6027  1.3016
  146SAPE   O2116056   3.782   2.002  10.650 -0.3782  0.6914  0.6793
  146SAPE   C2116057   3.758   1.890  10.578 -0.5747  0.1305 -0.0511
  146SAPE   O2216058   3.654   1.826  10.588  0.3814  0.7396  0.2460
  146SAPE   C2216059   3.875   1.868  10.485 -0.0834 -0.3179 -0.3152
  146SAPE   H2R16060   3.923   1.959  10.443 -0.3134 -0.1084 -0.1283
  146SAPE   H2S16061   3.956   1.816  10.541  0.8491 -0.3817 -1.6638
  146SAPE    C316062   3.545   2.095  10.649  0.1009  0.7853 -0.7438
  146SAPE    HX16063   3.464   2.109  10.723 -2.2188 -2.9889 -2.3036
  146SAPE    HY16064   3.508   2.010  10.588 -2.9284  1.4284  0.0565
  146SAPE   O3116065   3.570   2.210  10.568 -0.5442  1.1574  0.1634
  146SAPE   C3116066   3.540   2.325  10.615  0.9863 -0.6831 -0.6060
  146SAPE   O3216067   3.471   2.344  10.716 -0.6629  0.3516  0.1591
  146SAPE   C3216068   3.612   2.434  10.541 -0.1442  0.3480 -0.2659
  146SAPE   H2X16069   3.717   2.403  10.526 -0.5009 -1.7363  1.0888
  146SAPE   H2Y16070   3.614   2.523  10.607  0.2381  0.4178 -0.3714
  146SAPE   C2316071   3.837   1.769  10.375 -0.4171  0.0593  0.1460
  146SAPE   H3R16072   3.729   1.770  10.346 -0.1390  1.3658 -0.9472
  146SAPE   H3S16073   3.851   1.664  10.411  0.7050  0.2888  0.4194
  146SAPE   C2416074   3.920   1.765  10.243 -0.2729 -0.9435  0.1207
  146SAPE   H4R16075   3.928   1.868  10.204 -0.1282 -1.5698 -1.6155
  146SAPE   H4S16076   3.874   1.699  10.165 -0.8684 -1.4399  0.8814
  146SAPE   C2516077   4.051   1.697  10.283  0.6331 -0.2906  0.3333
  146SAPE   H5R16078   4.067   1.699  10.392 -1.9850  0.1638  0.7833
  146SAPE   C2616079   4.141   1.631  10.206  0.1926 -0.2683 -0.4261
  146SAPE   H6R16080   4.217   1.586  10.271 -1.4803  0.9023  2.5730
  146SAPE   C2716081   4.137   1.602  10.063  0.1282  0.0501 -0.3062
  146SAPE   H7R16082   4.239   1.582  10.024  0.3339  1.1828 -0.3889
  146SAPE   H7S16083   4.107   1.699  10.019  1.3976  0.8249  0.4756
  146SAPE   C2816084   4.033   1.500  10.021 -0.2946 -0.1366  0.1700
  146SAPE   H8R16085   3.953   1.480  10.094 -1.0612 -2.1916 -1.1465
  146SAPE   C2916086   4.024   1.436   9.908 -0.5152  0.0774  0.6977
  146SAPE   H9R16087   3.940   1.367   9.888 -2.4251  2.8181 -1.5151
  146SAPE  C21016088   4.109   1.446   9.781 -0.2820 -0.7073 -0.4553
  146SAPE  H10R16089   4.094   1.355   9.719 -0.1028 -1.0387 -0.0101
  146SAPE  H10S16090   4.216   1.442   9.810 -0.5839 -2.3088  0.5446
  146SAPE  C21116091   4.068   1.573   9.712  0.0975  0.2490 -0.3008
  146SAPE  H11R16092   4.066   1.656   9.784 -1.2473  1.0947 -1.2842
  146SAPE  C21216093   4.038   1.588   9.584 -0.3308 -0.0895  0.3666
  146SAPE  H12R16094   4.022   1.689   9.542 -0.7728 -0.4831 -0.4407
  146SAPE  C21316095   4.039   1.478   9.487  0.2762 -0.2557  0.0295
  146SAPE  H13R16096   4.074   1.378   9.522 -1.0193 -0.1192  1.8532
  146SAPE  H13S16097   4.099   1.509   9.399 -3.4058  1.2163 -2.1835
  146SAPE  C21416098   3.901   1.457   9.429 -0.0577 -0.5188  0.2434
  146SAPE  H14R16099   3.821   1.476   9.501  0.3898 -0.2952  0.6854
  146SAPE  C21516100   3.863   1.413   9.304 -0.9577  0.3194  0.1447
  146SAPE  H15R16101   3.755   1.405   9.281 -0.4974 -0.9212 -1.8332
  146SAPE  C21616102   3.954   1.371   9.189  0.2775  0.1726 -0.1490
  146SAPE  H16R16103   4.060   1.361   9.220  0.8416  2.0208 -1.3018
  146SAPE  H16S16104   3.964   1.446   9.107  1.8824  0.9494  0.7089
  146SAPE  C21716105   3.908   1.240   9.111  0.4320  0.6876 -0.5120
  146SAPE  H17R16106   3.808   1.268   9.072  0.6045  3.0433  0.5212
  146SAPE  H17S16107   3.897   1.150   9.175  0.1445  1.9797  1.3612
  146SAPE  C21816108   3.996   1.192   8.994  0.5320  0.9830  0.2149
  146SAPE  H18R16109   3.985   1.256   8.904  0.4293  0.8499  0.1323
  146SAPE  H18S16110   3.954   1.094   8.965 -1.0503  1.7027  0.0170
  146SAPE  C21916111   4.141   1.166   9.033  0.7770 -0.0662 -0.1325
  146SAPE  H19R16112   4.136   1.100   9.122 -1.6238  0.3957  0.1500
  146SAPE  H19S16113   4.200   1.255   9.065 -0.9255  1.1645 -0.2644
  146SAPE  C22016114   4.218   1.100   8.913 -0.2337  0.0552  0.0255
  146SAPE  H20R16115   4.230   1.178   8.834  0.0664  0.5065  0.5148
  146SAPE  H20S16116   4.147   1.028   8.866 -1.7326  1.7535 -0.4426
  146SAPE  H20T16117   4.317   1.065   8.947 -0.0781 -0.3130 -0.7790
  146SAPE   C3316118   3.548   2.465  10.407  0.6181 -0.4186  0.5671
  146SAPE   H3X16119   3.437   2.459  10.410  0.4693  0.6778 -1.2475
  146SAPE   H3Y16120   3.595   2.388  10.343  0.4056  0.0593 -0.1779
  146SAPE   C3416121   3.592   2.604  10.354 -0.4772  0.2235  0.0756
  146SAPE   H4X16122   3.702   2.598  10.367 -0.4228 -0.4136 -0.6148
  146SAPE   H4Y16123   3.549   2.680  10.423 -0.9763  0.7847 -0.8410
  146SAPE   C3516124   3.561   2.642  10.205 -0.1342  0.1780 -0.4433
  146SAPE   H5X16125   3.607   2.738  10.174 -2.0905  0.3951 -3.0790
  146SAPE   H5Y16126   3.452   2.658  10.188 -0.2145 -2.6236 -3.5672
  146SAPE   C3616127   3.620   2.537  10.108  0.7104 -0.2376 -0.1165
  146SAPE   H6X16128   3.574   2.436  10.103  2.1152 -1.0841  2.2727
  146SAPE   H6Y16129   3.725   2.513  10.138  0.7268 -1.6206 -1.1534
  146SAPE   C3716130   3.611   2.590   9.962 -0.2596  0.6918 -0.3807
  146SAPE   H7X16131   3.679   2.677   9.962 -0.0767  0.5754  1.0320
  146SAPE   H7Y16132   3.511   2.636   9.944 -0.5496 -0.5140 -2.0188
  146SAPE   C3816133   3.659   2.493   9.855 -0.3562  0.5852  0.8017
  146SAPE   H8X16134   3.585   2.411   9.848  1.1116 -0.7544  0.5155
  146SAPE   H8Y16135   3.759   2.464   9.892  0.1339  2.3632  1.0009
  146SAPE   C3916136   3.677   2.555   9.714 -0.2662  0.4968 -0.7204
  146SAPE   H9X16137   3.720   2.657   9.722 -0.9729  0.6659  2.0938
  146SAPE   H9Y16138   3.579   2.581   9.669 -1.0213 -2.0981 -0.7757
  146SAPE  C31016139   3.753   2.464   9.624  0.1932  0.2538 -0.3862
  146SAPE  H10X16140   3.710   2.362   9.616  3.0823 -0.9698 -1.6737
  146SAPE  H10Y16141   3.854   2.443   9.664 -0.1001  0.1966  0.3279
  146SAPE  C31116142   3.766   2.530   9.490 -0.4292 -0.6154  0.2125
  146SAPE  H11X16143   3.826   2.624   9.488 -1.6142  0.1719  0.1360
  146SAPE  H11Y16144   3.660   2.560   9.473 -0.2170 -0.5967 -1.2271
  146SAPE  C31216145   3.808   2.428   9.399 -0.2760  0.2018  0.1823
  146SAPE  H12X16146   3.737   2.343   9.397  2.2828 -2.1694  1.8245
  146SAPE  H12Y16147   3.908   2.391   9.431 -0.4141 -0.3607 -0.0157
  146SAPE  C31316148   3.825   2.467   9.251  0.7061  0.1320  1.0552
  146SAPE  H13X16149   3.898   2.549   9.233 -0.4079  0.6931 -1.4080
  146SAPE  H13Y16150   3.728   2.513   9.224  0.6719 -0.0993  0.7893
  146SAPE  C31416151   3.845   2.359   9.149  0.7011  0.7995 -0.7950
  146SAPE  H14X16152   3.810   2.395   9.050 -0.7399  0.6469 -0.3694
  146SAPE  H14Y16153   3.774   2.273   9.161  0.0396  1.5964  1.8386
  146SAPE  C31516154   3.993   2.318   9.126  0.2291  0.0375  0.3755
  146SAPE  H15X16155   4.013   2.234   9.195 -0.3273  0.1048  0.6244
  146SAPE  H15Y16156   4.058   2.405   9.149 -0.5281  0.2254  1.9789
  146SAPE  C31616157   4.013   2.261   8.986  0.8106 -0.1869 -0.1029
  146SAPE  H16X16158   3.912   2.232   8.950  0.1845  1.3506  0.3142
  146SAPE  H16Y16159   4.072   2.168   8.999  0.0649 -0.6842 -0.2631
  146SAPE  C31716160   4.083   2.352   8.887  0.1617  0.5668 -0.3697
  146SAPE  H17X16161   4.100   2.299   8.791 -1.1507 -1.4039  0.4160
  146SAPE  H17Y16162   4.189   2.352   8.921  0.6589 -2.0392 -1.6645
  146SAPE  C31816163   4.021   2.491   8.863  0.2420 -0.3765  0.1443
  146SAPE  H18X16164   3.920   2.476   8.820 -0.0582  1.0212  0.3173
  146SAPE  H18Y16165   4.075   2.540   8.779 -1.4802 -0.7731 -1.2369
  146SAPE  H18Z16166   4.016   2.552   8.956 -1.5500  0.7307 -0.6197
  147SAPE     N16167   1.365   0.960  10.690 -0.3336  0.3765  0.1409
  147SAPE   HN116168   1.416   0.990  10.775 -1.6757 -1.0859  1.5396
  147SAPE   HN216169   1.333   0.873  10.738  0.4958 -0.7023 -1.2008
  147SAPE   HN316170   1.432   0.947  10.612 -0.0555 -0.6554  0.5285
  147SAPE   C1216171   1.242   1.043  10.660  0.3985 -0.4119 -0.4344
  147SAPE  H12A16172   1.173   0.983  10.597 -1.3097  1.8929 -0.8986
  147SAPE  H12B16173   1.278   1.132  10.603  2.1856 -1.4972 -1.0777
  147SAPE   C1116174   1.179   1.088  10.796  0.4475 -0.3589  0.4319
  147SAPE  H11A16175   1.137   1.001  10.850 -1.8019  0.1644 -0.3764
  147SAPE  H11B16176   1.093   1.149  10.761  0.4386 -1.0167 -0.7642
  147SAPE     P16177   1.227   1.315  10.923  0.3650  0.4167  0.3795
  147SAPE   O1316178   1.097   1.309  11.001 -0.6348 -0.1602  0.4298
  147SAPE   O1416179   1.336   1.376  10.998  0.5276 -0.0266  0.1363
  147SAPE   O1216180   1.267   1.175  10.868  0.1870 -0.0795 -0.1725
  147SAPE   O1116181   1.216   1.395  10.792 -0.3058 -0.4820 -0.2610
  147SAPE    C116182   1.329   1.419  10.705 -0.2943  0.2653  0.0431
  147SAPE    HA16183   1.425   1.369  10.731 -1.6387 -1.7589  1.3170
  147SAPE    HB16184   1.312   1.366  10.609  3.3797  0.4253 -0.8475
  147SAPE    C216185   1.364   1.569  10.663  0.0071  1.2705 -0.7122
  147SAPE    HS16186   1.288   1.635  10.710 -0.4601  3.0456 -3.6893
  147SAPE   O2116187   1.360   1.571  10.518  0.4654 -0.4037  0.2785
  147SAPE   C2116188   1.255   1.640  10.475 -0.4096 -0.9931 -1.0157
  147SAPE   O2216189   1.192   1.719  10.541  0.3856  0.1815 -0.4583
  147SAPE   C2216190   1.239   1.623  10.326 -0.4845 -0.2070  0.2313
  147SAPE   H2R16191   1.163   1.695  10.288  1.0594  1.9038  0.9427
  147SAPE   H2S16192   1.337   1.649  10.282  0.5301 -1.1536  1.8223
  147SAPE    C316193   1.513   1.611  10.714 -0.2372  0.1639 -1.2458
  147SAPE    HX16194   1.582   1.537  10.668 -1.1017 -0.7065 -1.1758
  147SAPE    HY16195   1.511   1.598  10.825  4.3738  2.8533 -0.6120
  147SAPE   O3116196   1.540   1.749  10.688 -0.6656  0.4579  0.8833
  147SAPE   C3116197   1.471   1.845  10.744 -0.3149  0.3010 -0.2620
  147SAPE   O3216198   1.374   1.823  10.817 -0.8596  0.4042 -0.1513
  147SAPE   C3216199   1.520   1.985  10.690  0.0433 -0.7514  0.3760
  147SAPE   H2X16200   1.626   2.004  10.720  0.4390 -0.9866 -0.8162
  147SAPE   H2Y16201   1.459   2.068  10.731 -0.7059 -0.8319 -0.5591
  147SAPE   C2316202   1.192   1.478  10.284 -0.0601 -1.0898 -0.1003
  147SAPE   H3R16203   1.091   1.456  10.324 -0.7520 -0.2417 -1.3034
  147SAPE   H3S16204   1.255   1.394  10.321 -0.4016 -1.5692 -0.5842
  147SAPE   C2416205   1.177   1.486  10.128 -0.5598  0.1178 -0.2519
  147SAPE   H4R16206   1.121   1.578  10.102 -0.8481 -0.1964 -0.7753
  147SAPE   H4S16207   1.113   1.398  10.104  0.8618 -0.7446 -1.0048
  147SAPE   C2516208   1.307   1.467  10.057  0.2084  1.1503 -0.3115
  147SAPE   H5R16209   1.391   1.429  10.117 -0.4252 -0.0113 -0.1460
  147SAPE   C2616210   1.335   1.512   9.934 -0.3161  0.8659 -0.2768
  147SAPE   H6R16211   1.440   1.501   9.903  1.0136 -1.1095  4.1743
  147SAPE   C2716212   1.249   1.586   9.834  0.4968  0.1957 -0.6578
  147SAPE   H7R16213   1.159   1.635   9.877  1.4061  0.8739  0.5544
  147SAPE   H7S16214   1.208   1.511   9.764  1.7252 -1.7035  0.5427
  147SAPE   C2816215   1.314   1.697   9.755  0.2080 -1.1382 -0.4520
  147SAPE   H8R16216   1.363   1.777   9.813 -0.1055  0.0507 -1.7616
  147SAPE   C2916217   1.313   1.711   9.622 -0.0466  0.1075 -0.3734
  147SAPE   H9R16218   1.363   1.794   9.569 -1.1824 -0.7216 -2.8749
  147SAPE  C21016219   1.227   1.631   9.524 -0.1925 -0.7330 -0.3539
  147SAPE  H10R16220   1.236   1.522   9.541 -1.6905 -0.7572  0.4640
  147SAPE  H10S16221   1.264   1.652   9.422  0.4108  2.3646  0.3893
  147SAPE  C21116222   1.077   1.659   9.542 -0.3707 -0.1220  1.5095
  147SAPE  H11R16223   1.043   1.673   9.646 -0.2898  0.4298  1.4658
  147SAPE  C21216224   0.989   1.654   9.430 -0.3954  0.0524 -0.0082
  147SAPE  H12R16225   0.882   1.668   9.451 -0.5271 -0.2943 -0.4373
  147SAPE  C21316226   1.029   1.636   9.289 -0.4093  0.3351  0.3054
  147SAPE  H13R16227   1.139   1.622   9.289 -0.0109  2.8898 -0.3304
  147SAPE  H13S16228   1.016   1.730   9.231 -1.3067 -0.0349 -0.1057
  147SAPE  C21416229   0.967   1.515   9.225  0.4667 -0.5814  0.0418
  147SAPE  H14R16230   0.975   1.427   9.291  0.9635 -1.3915 -1.0669
  147SAPE  C21516231   0.909   1.507   9.097  0.6256  0.8501  0.0116
  147SAPE  H15R16232   0.854   1.416   9.071  0.4672  1.0400 -0.3227
  147SAPE  C21616233   0.900   1.616   8.989 -0.1941  0.3827 -0.0520
  147SAPE  H16R16234   0.918   1.715   9.038 -1.5017 -0.3394  2.0141
  147SAPE  H16S16235   0.797   1.617   8.948 -0.0410 -0.7518 -0.4921
  147SAPE  C21716236   0.998   1.619   8.876 -0.4033 -0.3149 -0.0789
  147SAPE  H17R16237   0.973   1.691   8.795 -0.2603 -2.5891 -2.2717
  147SAPE  H17S16238   0.987   1.525   8.818 -1.5676  0.3605 -0.9869
  147SAPE  C21816239   1.146   1.627   8.922 -1.6437 -0.1545 -0.6621
  147SAPE  H18R16240   1.210   1.595   8.837  0.6481  0.5282  0.7162
  147SAPE  H18S16241   1.163   1.545   8.996 -0.3912  0.3347 -0.3727
  147SAPE  C21916242   1.197   1.759   8.982  0.2892  0.4211 -0.0656
  147SAPE  H19R16243   1.274   1.737   9.060 -0.1490 -0.0443  0.2464
  147SAPE  H19S16244   1.117   1.814   9.037  0.3388  1.9242 -1.4236
  147SAPE  C22016245   1.253   1.852   8.880 -0.3576 -0.0878  0.5166
  147SAPE  H20R16246   1.360   1.823   8.867 -0.3846 -0.0568  0.2417
  147SAPE  H20S16247   1.261   1.960   8.907  0.8468  0.1665 -0.7270
  147SAPE  H20T16248   1.189   1.828   8.793 -2.4326 -2.0855  2.4787
  147SAPE   C3316249   1.514   1.995  10.538 -0.0387 -0.4116 -0.0160
  147SAPE   H3X16250   1.410   1.975  10.505 -0.3030 -3.1250  2.1429
  147SAPE   H3Y16251   1.587   1.923  10.495  0.1910 -0.4577  0.4439
  147SAPE   C3416252   1.567   2.130  10.495  0.1618  0.2785 -1.0210
  147SAPE   H4X16253   1.673   2.142  10.525 -0.1130  1.8029 -0.6097
  147SAPE   H4Y16254   1.494   2.206  10.529  1.1086  0.4816  0.6880
  147SAPE   C3516255   1.582   2.153  10.343  0.2064  0.8286 -0.2752
  147SAPE   H5X16256   1.481   2.158  10.296 -0.5946  1.1600  1.4064
  147SAPE   H5Y16257   1.619   2.061  10.294 -1.4333  0.6387 -1.2576
  147SAPE   C3616258   1.660   2.279  10.306 -0.0325 -0.2263  0.3552
  147SAPE   H6X16259   1.757   2.263  10.358 -0.5733  1.3636  1.9892
  147SAPE   H6Y16260   1.615   2.374  10.342 -0.3050 -0.9306  1.9353
  147SAPE   C3716261   1.687   2.277  10.154 -0.4820  0.3230  0.1455
  147SAPE   H7X16262   1.606   2.305  10.083 -1.3540 -2.2339  0.0405
  147SAPE   H7Y16263   1.708   2.172  10.123 -0.7743  1.0918 -3.0652
  147SAPE   C3816264   1.800   2.375  10.132 -0.1981  0.2093 -0.1132
  147SAPE   H8X16265   1.880   2.375  10.209 -1.7489  2.2180  1.6316
  147SAPE   H8Y16266   1.766   2.477  10.162  0.2171 -0.0587  1.3403
  147SAPE   C3916267   1.864   2.378   9.992 -0.0100 -0.2811  0.3992
  147SAPE   H9X16268   1.788   2.417   9.920 -0.5686 -0.3996  0.9169
  147SAPE   H9Y16269   1.896   2.278   9.957 -0.8171 -0.0991 -0.9506
  147SAPE  C31016270   1.995   2.469   9.982  0.3190 -0.2403  0.2877
  147SAPE  H10X16271   2.072   2.418  10.043 -0.7431 -1.2671  0.8158
  147SAPE  H10Y16272   1.976   2.561  10.042  1.9101  1.6656 -1.9422
  147SAPE  C31116273   2.042   2.493   9.835 -0.4969  0.3549 -0.3548
  147SAPE  H11X16274   2.138   2.547   9.851 -0.0822 -1.0348  2.4579
  147SAPE  H11Y16275   1.971   2.550   9.772 -2.0875  0.0492  1.0938
  147SAPE  C31216276   2.064   2.374   9.744  0.2442 -0.0128 -0.0827
  147SAPE  H12X16277   1.969   2.324   9.717  0.1238  0.2891 -0.2189
  147SAPE  H12Y16278   2.119   2.303   9.809  2.2821  1.4025 -0.1655
  147SAPE  C31316279   2.150   2.414   9.619 -0.5175 -0.2433  0.7286
  147SAPE  H13X16280   2.189   2.321   9.572 -0.7034  0.3504 -0.6392
  147SAPE  H13Y16281   2.235   2.470   9.661 -0.6135 -1.0071  1.9830
  147SAPE  C31416282   2.083   2.506   9.513 -0.9155  0.0418 -0.2578
  147SAPE  H14X16283   2.165   2.540   9.447 -0.6525 -0.4443 -0.1828
  147SAPE  H14Y16284   2.032   2.595   9.556 -1.7156  0.5501 -2.1606
  147SAPE  C31516285   1.981   2.427   9.439 -0.7264  0.4434 -0.0271
  147SAPE  H15X16286   1.905   2.485   9.383 -0.1188  0.6700 -0.6331
  147SAPE  H15Y16287   1.926   2.357   9.505  1.2144 -0.7109  0.4509
  147SAPE  C31616288   2.045   2.323   9.335  0.2846  0.1750  0.3589
  147SAPE  H16X16289   2.106   2.240   9.374  1.6575  0.1905 -1.6203
  147SAPE  H16Y16290   2.111   2.380   9.266 -1.7784 -0.6392 -2.4945
  147SAPE  C31716291   1.933   2.267   9.242  0.1559 -0.0747 -0.0363
  147SAPE  H17X16292   1.865   2.351   9.215 -1.1110 -1.9201 -3.1694
  147SAPE  H17Y16293   1.870   2.187   9.286  0.5735  1.3228  3.4289
  147SAPE  C31816294   1.985   2.205   9.109  0.2531 -0.7388  0.4918
  147SAPE  H18X16295   2.036   2.284   9.049 -0.3473  0.4689  1.5168
  147SAPE  H18Y16296   1.905   2.161   9.045  2.9276 -2.2596 -2.0924
  147SAPE  H18Z16297   2.055   2.122   9.131  0.2591 -1.3195 -1.4764
  148SAPE     N16298   2.698   0.170  10.744 -0.0903  0.9480 -0.1853
  148SAPE   HN116299   2.715   0.253  10.683  0.3089  2.1258  1.4450
  148SAPE   HN216300   2.595   0.167  10.747 -0.0982  0.4874 -0.7766
  148SAPE   HN316301   2.733   0.189  10.840  0.0059 -2.2420  0.4955
  148SAPE   C1216302   2.755   0.040  10.686  0.1515  0.2571  0.0219
  148SAPE  H12A16303   2.724   0.033  10.580 -1.0645  0.9514  0.3235
  148SAPE  H12B16304   2.709  -0.044  10.742  2.4183 -0.7528  0.5206
  148SAPE   C1116305   2.908   0.038  10.695 -0.1660  0.2078 -0.5004
  148SAPE  H11A16306   2.944   0.140  10.669  0.0205 -0.0412 -1.2493
  148SAPE  H11B16307   2.944  -0.037  10.621  1.2902 -0.3172  0.6998
  148SAPE     P16308   3.097   0.010  10.873 -0.0739 -0.0537  0.4342
  148SAPE   O1316309   3.132   0.139  10.939  0.3313  0.4680 -0.1021
  148SAPE   O1416310   3.132  -0.111  10.949 -0.5740 -0.0973  0.1524
  148SAPE   O1216311   2.947   0.010  10.833 -0.2255  0.4455 -0.4858
  148SAPE   O1116312   3.167   0.003  10.738  0.3063  0.3694 -0.1980
  148SAPE    C116313   3.265  -0.088  10.696 -0.5001  0.2110 -0.0521
  148SAPE    HA16314   3.338  -0.032  10.633 -0.5104 -0.2955 -0.5246
  148SAPE    HB16315   3.322  -0.140  10.776 -0.1264 -0.2061 -0.5797
  148SAPE    C216316   3.202  -0.205  10.602 -1.2287 -0.2163  0.0956
  148SAPE    HS16317   3.286  -0.263  10.558 -1.8467  1.0235 -2.9517
  148SAPE   O2116318   3.135  -0.148  10.498  0.5041  0.0813  0.6789
  148SAPE   C2116319   3.202  -0.087  10.399 -0.2386 -0.0416  0.5962
  148SAPE   O2216320   3.325  -0.092  10.390  0.2561  0.1310  0.5231
  148SAPE   C2216321   3.111  -0.013  10.301  0.2385 -0.3123 -0.1557
  148SAPE   H2R16322   3.076  -0.086  10.225 -0.3395  0.6668 -0.8650
  148SAPE   H2S16323   3.025   0.035  10.353 -0.0079 -0.7451 -0.1601
  148SAPE    C316324   3.105  -0.293  10.679  0.5949  0.2922 -0.4700
  148SAPE    HX16325   3.017  -0.232  10.708  1.3518  2.1334 -1.8005
  148SAPE    HY16326   3.151  -0.326  10.775  2.4538  1.4428 -0.9008
  148SAPE   O3116327   3.059  -0.406  10.598  0.3017 -0.0927 -0.8222
  148SAPE   C3116328   3.150  -0.512  10.605 -0.3742 -0.3750  0.4907
  148SAPE   O3216329   3.255  -0.510  10.661 -0.7044  0.1748 -0.4720
  148SAPE   C3216330   3.095  -0.626  10.516  0.4342 -0.3029 -0.2523
  148SAPE   H2X16331   2.991  -0.648  10.550 -0.6096  0.7326 -2.5371
  148SAPE   H2Y16332   3.144  -0.725  10.516  0.1336 -0.4530 -0.5441
  148SAPE   C2316333   3.184   0.090  10.209  0.1846  0.1724 -0.5231
  148SAPE   H3R16334   3.260   0.032  10.151  2.5509  2.1735  0.4197
  148SAPE   H3S16335   3.234   0.159  10.280  0.8971 -1.6501  0.8249
  148SAPE   C2416336   3.092   0.184  10.135 -0.6001 -0.7826 -0.3776
  148SAPE   H4R16337   3.162   0.257  10.089 -0.3883 -0.4897  0.4004
  148SAPE   H4S16338   3.025   0.234  10.208 -0.6275 -1.8263  0.3358
  148SAPE   C2516339   3.017   0.127  10.019 -0.7999  1.0588  0.8005
  148SAPE   H5R16340   2.921   0.080  10.045  0.4603 -2.1026  0.1846
  148SAPE   C2616341   3.057   0.124   9.892 -0.1374 -0.4834  0.1728
  148SAPE   H6R16342   2.989   0.089   9.812 -2.3477 -0.8272  2.0908
  148SAPE   C2716343   3.186   0.175   9.826  0.6424  0.0834 -0.0694
  148SAPE   H7R16344   3.224   0.093   9.761  1.2567 -1.8844  2.6153
  148SAPE   H7S16345   3.272   0.195   9.893  0.7263 -1.4051  0.3011
  148SAPE   C2816346   3.156   0.299   9.749 -0.1819  0.1545 -0.2916
  148SAPE   H8R16347   3.121   0.376   9.819 -2.3277 -1.3664  0.4248
  148SAPE   C2916348   3.166   0.326   9.618  0.1965 -0.9278  0.0498
  148SAPE   H9R16349   3.132   0.426   9.587  0.3220 -1.0102 -0.3538
  148SAPE  C21016350   3.210   0.226   9.511 -0.5399  0.2374  0.2508
  148SAPE  H10R16351   3.267   0.141   9.554 -2.4905  0.4233  3.5604
  148SAPE  H10S16352   3.276   0.270   9.433 -0.1336 -1.3676 -0.3573
  148SAPE  C21116353   3.073   0.183   9.467  0.1620  0.4176  0.1188
  148SAPE  H11R16354   3.018   0.109   9.527 -0.4474 -0.1152 -1.0787
  148SAPE  C21216355   3.022   0.208   9.343 -0.6134 -1.0060 -0.7705
  148SAPE  H12R16356   2.917   0.176   9.331 -1.9394  2.0641  1.1629
  148SAPE  C21316357   3.082   0.288   9.223 -0.0227  0.3600  0.3303
  148SAPE  H13R16358   3.183   0.329   9.246  0.0277  1.8315 -2.1735
  148SAPE  H13S16359   3.026   0.382   9.202  1.1028  1.1718  0.8526
  148SAPE  C21416360   3.080   0.198   9.105 -0.3134 -0.5638 -0.6351
  148SAPE  H14R16361   3.159   0.122   9.096  1.1016  0.7398  0.2420
  148SAPE  C21516362   2.991   0.200   9.008  0.4537  0.4622  0.5257
  148SAPE  H15R16363   3.001   0.140   8.916 -0.8274 -0.4159  0.9377
  148SAPE  C21616364   2.877   0.298   8.994  0.0379  0.2574  0.1509
  148SAPE  H16R16365   2.853   0.357   9.085 -0.0461  1.0407 -0.3643
  148SAPE  H16S16366   2.787   0.241   8.964  0.8981 -0.5907 -0.9390
  148SAPE  C21716367   2.905   0.400   8.872 -0.0801  0.7255 -0.7452
  148SAPE  H17R16368   3.002   0.452   8.886 -0.8735  2.3158 -0.9067
  148SAPE  H17S16369   2.827   0.478   8.892 -0.6860  0.0005 -0.2307
  148SAPE  C21816370   2.877   0.334   8.733 -1.0638  0.3505 -0.5674
  148SAPE  H18R16371   2.784   0.275   8.748 -1.0234  0.7571  1.5900
  148SAPE  H18S16372   2.963   0.266   8.714 -2.0028 -0.9715 -0.1970
  148SAPE  C21916373   2.864   0.440   8.625  0.2774  0.9465 -0.5690
  148SAPE  H19R16374   2.961   0.493   8.610  0.9431 -0.7429 -2.7510
  148SAPE  H19S16375   2.802   0.514   8.679 -2.8971 -0.5454 -1.8954
  148SAPE  C22016376   2.789   0.398   8.500  0.7684  0.6285  0.0541
  148SAPE  H20R16377   2.703   0.331   8.521  0.8409  0.2791 -0.7264
  148SAPE  H20S16378   2.852   0.340   8.429 -0.1801 -1.8373  1.1021
  148SAPE  H20T16379   2.742   0.480   8.443 -0.9524 -0.6538 -0.4652
  148SAPE   C3316380   3.080  -0.579  10.366  0.0192  0.4068  0.2106
  148SAPE   H3X16381   3.049  -0.472  10.366 -4.3475 -0.6530 -1.1014
  148SAPE   H3Y16382   3.003  -0.633  10.307  0.4254  2.9727 -2.9414
  148SAPE   C3416383   3.213  -0.604  10.288  0.2269 -0.3864  0.0528
  148SAPE   H4X16384   3.228  -0.712  10.308  1.5343  0.1762  2.4634
  148SAPE   H4Y16385   3.297  -0.546  10.331 -0.1491  0.3906 -0.2380
  148SAPE   C3516386   3.208  -0.590  10.134  0.0057  0.2234 -0.1561
  148SAPE   H5X16387   3.117  -0.635  10.089  0.1587  0.6418 -0.8941
  148SAPE   H5Y16388   3.290  -0.646  10.083 -0.5103  0.2913 -1.0857
  148SAPE   C3616389   3.229  -0.441  10.080  0.0867  0.0362 -0.2724
  148SAPE   H6X16390   3.332  -0.409  10.107  0.9709 -0.6313 -2.5745
  148SAPE   H6Y16391   3.164  -0.371  10.135 -0.9837  0.5814 -2.1427
  148SAPE   C3716392   3.221  -0.423   9.929 -0.0888  0.3835 -0.1625
  148SAPE   H7X16393   3.117  -0.438   9.895  1.4527 -1.4255 -4.9338
  148SAPE   H7Y16394   3.291  -0.494   9.880  2.0678  1.7585  0.7672
  148SAPE   C3816395   3.273  -0.283   9.882  0.2384  0.0471 -0.9323
  148SAPE   H8X16396   3.382  -0.279   9.906 -0.2296  1.7995  1.2241
  148SAPE   H8Y16397   3.210  -0.212   9.940  0.3417 -0.7438  0.1841
  148SAPE   C3916398   3.273  -0.270   9.729 -1.0353  0.2989  0.6632
  148SAPE   H9X16399   3.315  -0.361   9.681  0.1047 -0.0583  2.2404
  148SAPE   H9Y16400   3.351  -0.192   9.717  1.8328 -2.2398  1.5004
  148SAPE  C31016401   3.139  -0.237   9.667  0.3482  0.6865  0.1190
  148SAPE  H10X16402   3.089  -0.175   9.744 -0.8866  0.1607 -0.2428
  148SAPE  H10Y16403   3.073  -0.324   9.648  0.2429  0.6807  0.5123
  148SAPE  C31116404   3.152  -0.148   9.543  0.5303 -0.1560  0.0971
  148SAPE  H11X16405   3.230  -0.072   9.563 -1.0901  0.7154  4.0162
  148SAPE  H11Y16406   3.051  -0.109   9.519 -1.9726 -3.0849  4.4574
  148SAPE  C31216407   3.190  -0.222   9.407 -0.1543  0.4369 -0.7084
  148SAPE  H12X16408   3.103  -0.284   9.377  0.6985 -1.3663  0.3557
  148SAPE  H12Y16409   3.273  -0.295   9.422  1.2458  1.9744 -0.6932
  148SAPE  C31316410   3.234  -0.133   9.292 -0.0224 -0.2281 -0.6368
  148SAPE  H13X16411   3.173  -0.041   9.290  0.7924  0.4265  1.4513
  148SAPE  H13Y16412   3.235  -0.193   9.198 -1.7515  0.5067 -1.1575
  148SAPE  C31416413   3.382  -0.095   9.318  0.3616 -0.1975  0.3734
  148SAPE  H14X16414   3.443  -0.185   9.340  2.2289  0.8678 -0.2828
  148SAPE  H14Y16415   3.393  -0.026   9.405  1.9045 -1.8345  1.5336
  148SAPE  C31516416   3.447  -0.003   9.208 -0.6016  0.6127  0.5046
  148SAPE  H15X16417   3.548   0.026   9.243 -0.2083 -0.4493  0.2899
  148SAPE  H15Y16418   3.375   0.082   9.203 -0.7331  0.5469  1.2300
  148SAPE  C31616419   3.463  -0.080   9.073  0.3993 -0.3005 -0.4838
  148SAPE  H16X16420   3.362  -0.113   9.042  0.6137 -0.2286 -1.2746
  148SAPE  H16Y16421   3.530  -0.168   9.084  0.6456 -0.0976 -0.3543
  148SAPE  C31716422   3.519   0.007   8.959 -0.2841  0.0005 -0.4798
  148SAPE  H17X16423   3.630   0.005   8.966 -0.2580  0.3963 -0.8056
  148SAPE  H17Y16424   3.484   0.111   8.973  1.3601  0.4644  0.3999
  148SAPE  C31816425   3.497  -0.045   8.824  0.5805  0.6499  0.4639
  148SAPE  H18X16426   3.394  -0.038   8.784 -0.3509 -1.0604  2.3835
  148SAPE  H18Y16427   3.515  -0.155   8.825  0.9804  0.7105  0.2543
  148SAPE  H18Z16428   3.560  -0.004   8.742  0.9302  1.1256  0.9692
  149SAPE     N16429   2.290   1.028  11.270  0.6568  0.7583  0.6190
  149SAPE   HN116430   2.372   1.065  11.218  0.8676 -0.6502 -0.1040
  149SAPE   HN216431   2.253   1.086  11.347  0.1254  1.0536  0.1455
  149SAPE   HN316432   2.331   0.941  11.310  1.6431  1.9539  2.3449
  149SAPE   C1216433   2.176   1.018  11.176  0.6566  0.4234  0.3651
  149SAPE  H12A16434   2.141   0.913  11.188 -0.7849  0.9429  0.7972
  149SAPE  H12B16435   2.218   1.020  11.073  1.3383 -2.0030  0.5382
  149SAPE   C1116436   2.069   1.125  11.194  0.1529 -0.0515  0.8361
  149SAPE  H11A16437   2.017   1.099  11.289  2.9022 -0.7993  2.2425
  149SAPE  H11B16438   1.992   1.130  11.115  0.9969  1.6138  0.0740
  149SAPE     P16439   2.082   1.383  11.128  0.3773 -0.4722 -0.2914
  149SAPE   O1316440   1.967   1.448  11.191 -0.4341 -0.9026 -0.0847
  149SAPE   O1416441   2.200   1.468  11.097 -0.3402 -0.4501 -0.3883
  149SAPE   O1216442   2.127   1.257  11.210  0.0221 -0.1447  0.0810
  149SAPE   O1116443   2.020   1.325  10.992 -0.7834  0.2362 -0.3240
  149SAPE    C116444   2.115   1.262  10.902  0.6586 -0.7540  0.9493
  149SAPE    HA16445   2.208   1.224  10.949  1.1547 -0.4963  0.1913
  149SAPE    HB16446   2.064   1.187  10.837 -2.2439  1.9243 -0.1161
  149SAPE    C216447   2.161   1.367  10.797  0.3607  0.1457  0.1268
  149SAPE    HS16448   2.214   1.438  10.864  0.9972 -0.6943  0.5334
  149SAPE   O2116449   2.051   1.441  10.738  0.4909  0.2523 -0.4527
  149SAPE   C2116450   2.080   1.546  10.665  0.5060  0.0900  0.2165
  149SAPE   O2216451   2.193   1.600  10.663 -0.1070  0.4668  0.1243
  149SAPE   C2216452   1.961   1.581  10.580  0.3929  0.4985  0.0403
  149SAPE   H2R16453   1.908   1.487  10.553  1.1728 -0.3598  1.4098
  149SAPE   H2S16454   1.903   1.657  10.637 -0.1749 -0.5649  0.9067
  149SAPE    C316455   2.261   1.308  10.699 -0.1998 -0.3682 -0.5395
  149SAPE    HX16456   2.349   1.262  10.750 -0.0746  1.0413  0.5704
  149SAPE    HY16457   2.307   1.377  10.626 -0.1940  1.8171  1.4322
  149SAPE   O3116458   2.188   1.203  10.620  0.7276  0.0636  0.0694
  149SAPE   C3116459   2.209   1.072  10.646  0.1233  0.2598 -0.1098
  149SAPE   O3216460   2.284   1.025  10.729 -0.5208  0.5031  0.0285
  149SAPE   C3216461   2.131   0.991  10.545 -0.6053 -0.4616  0.1453
  149SAPE   H2X16462   2.120   1.054  10.454 -2.0804 -1.0951 -0.1375
  149SAPE   H2Y16463   2.030   0.979  10.589 -0.4312 -3.0947 -0.0259
  149SAPE   C2316464   2.005   1.653  10.451 -0.4836 -0.5083  0.2700
  149SAPE   H3R16465   2.094   1.603  10.408  0.9955  0.8494  1.5856
  149SAPE   H3S16466   2.041   1.755  10.477 -1.2993  0.0383 -0.6880
  149SAPE   C2416467   1.889   1.641  10.339  0.2854 -0.2539 -0.6887
  149SAPE   H4R16468   1.848   1.538  10.334 -0.0188 -0.0825 -2.2114
  149SAPE   H4S16469   1.932   1.639  10.237 -1.3163 -2.3964 -1.3895
  149SAPE   C2516470   1.764   1.724  10.350 -0.5354  0.2683 -0.0577
  149SAPE   H5R16471   1.729   1.733  10.454 -1.8798  0.3870 -0.4889
  149SAPE   C2616472   1.703   1.799  10.256 -0.4850 -0.9701 -0.3133
  149SAPE   H6R16473   1.614   1.850  10.295  0.4770 -0.1181  0.8516
  149SAPE   C2716474   1.746   1.818  10.113  0.1786  0.1670 -0.3005
  149SAPE   H7R16475   1.655   1.836  10.052  1.2218 -0.0267 -1.9671
  149SAPE   H7S16476   1.794   1.732  10.062  1.6756  0.0677  1.1731
  149SAPE   C2816477   1.844   1.930  10.086  0.4608  0.4349  0.2408
  149SAPE   H8R16478   1.880   1.991  10.170  2.3209  1.1817 -1.0181
  149SAPE   C2916479   1.907   1.959   9.975  0.0633 -0.5764  1.2851
  149SAPE   H9R16480   1.973   2.047   9.984 -0.3864 -0.3083  2.0644
  149SAPE  C21016481   1.887   1.887   9.842 -0.5064 -0.4493 -0.3207
  149SAPE  H10R16482   1.784   1.847   9.834 -0.5113 -0.3341 -0.8629
  149SAPE  H10S16483   1.945   1.792   9.837  1.2259  0.5208  0.1820
  149SAPE  C21116484   1.934   1.974   9.728  0.0005 -0.1968 -0.2450
  149SAPE  H11R16485   2.039   2.005   9.734  1.0115 -2.8377 -2.3382
  149SAPE  C21216486   1.880   1.976   9.608 -0.3332 -0.7046 -0.4211
  149SAPE  H12R16487   1.917   2.045   9.531  0.6384  0.1625  0.7686
  149SAPE  C21316488   1.756   1.896   9.572 -0.7595  0.1471  0.1736
  149SAPE  H13R16489   1.686   1.880   9.657 -1.0235 -1.3433 -0.3013
  149SAPE  H13S16490   1.783   1.794   9.537  0.6808  0.9027 -1.0488
  149SAPE  C21416491   1.675   1.977   9.476  0.1601 -0.3370  0.6478
  149SAPE  H14R16492   1.630   2.073   9.504 -1.7021 -1.1843  0.7441
  149SAPE  C21516493   1.657   1.945   9.337 -0.4856 -0.6566 -0.0962
  149SAPE  H15R16494   1.620   2.026   9.273 -0.1660  0.7470  1.4438
  149SAPE  C21616495   1.705   1.824   9.262  0.0736  0.6883 -0.5412
  149SAPE  H16R16496   1.618   1.762   9.233 -0.0504  1.0744 -1.0148
  149SAPE  H16S16497   1.772   1.764   9.327 -0.8646  0.0233 -0.1715
  149SAPE  C21716498   1.789   1.855   9.136  0.4076  0.1406  0.2562
  149SAPE  H17R16499   1.818   1.757   9.092  1.0496  0.2214  0.4870
  149SAPE  H17S16500   1.873   1.921   9.168 -0.1363  1.7248 -1.4241
  149SAPE  C21816501   1.708   1.920   9.022  0.2958  0.9578 -0.6464
  149SAPE  H18R16502   1.679   2.026   9.040  0.1965  0.7731  0.3334
  149SAPE  H18S16503   1.629   1.846   8.997  2.3967 -1.4619 -0.4763
  149SAPE  C21916504   1.791   1.934   8.888 -0.2020  0.3399 -0.3741
  149SAPE  H19R16505   1.796   1.833   8.843 -3.3410  0.1744 -0.5875
  149SAPE  H19S16506   1.891   1.973   8.917 -1.0701  0.8144  2.3073
  149SAPE  C22016507   1.715   2.014   8.786  0.6972 -0.3072  0.1193
  149SAPE  H20R16508   1.777   2.038   8.697 -1.3713  1.8347 -0.8424
  149SAPE  H20S16509   1.660   2.104   8.820 -1.2483 -1.2217 -0.4808
  149SAPE  H20T16510   1.635   1.945   8.752 -0.9032  1.9868 -1.0066
  149SAPE   C3316511   2.204   0.858  10.514 -0.1635  0.0770 -0.9503
  149SAPE   H3X16512   2.141   0.783  10.461  0.2472 -0.7980 -0.2317
  149SAPE   H3Y16513   2.247   0.816  10.608  1.1109  0.1870 -1.4609
  149SAPE   C3416514   2.336   0.875  10.428 -0.0651 -0.3741  0.3409
  149SAPE   H4X16515   2.381   0.777  10.403 -1.1962 -1.1539  1.2161
  149SAPE   H4Y16516   2.408   0.946  10.473 -1.4021 -0.6685  3.1967
  149SAPE   C3516517   2.301   0.932  10.285 -0.8862 -0.3922  0.8805
  149SAPE   H5X16518   2.266   1.037  10.291  0.3857  0.2316 -1.5075
  149SAPE   H5Y16519   2.209   0.880  10.249 -0.8516 -0.6805  1.2008
  149SAPE   C3616520   2.430   0.932  10.193 -0.4897 -0.0278 -0.0280
  149SAPE   H6X16521   2.464   0.826  10.191 -0.6119 -0.0569 -0.7775
  149SAPE   H6Y16522   2.516   0.992  10.230 -0.0174 -1.2816  0.9897
  149SAPE   C3716523   2.402   0.971  10.051 -0.4294 -0.1651  0.4008
  149SAPE   H7X16524   2.332   1.056  10.041  0.2537  0.2783 -0.9802
  149SAPE   H7Y16525   2.352   0.893   9.990 -1.1038  0.4162  0.1976
  149SAPE   C3816526   2.524   1.017   9.963 -0.0148  0.1269 -0.0528
  149SAPE   H8X16527   2.590   0.928   9.950  0.2060  0.3925 -0.7897
  149SAPE   H8Y16528   2.581   1.090  10.023  2.1617 -1.6518  0.2138
  149SAPE   C3916529   2.498   1.065   9.825 -0.2649 -0.3185 -0.2751
  149SAPE   H9X16530   2.581   1.128   9.785 -0.4964  2.9481  3.7399
  149SAPE   H9Y16531   2.417   1.140   9.833  0.4962  0.4256  0.7221
  149SAPE  C31016532   2.444   0.956   9.725 -0.3307  0.4983 -0.1726
  149SAPE  H10X16533   2.340   0.927   9.754 -0.5241  1.5451  0.2346
  149SAPE  H10Y16534   2.513   0.870   9.717  3.2303  3.0830  0.5168
  149SAPE  C31116535   2.427   1.009   9.583  0.4062  0.0393 -0.3956
  149SAPE  H11X16536   2.533   1.022   9.550  1.0703  1.0655  1.8676
  149SAPE  H11Y16537   2.383   1.111   9.585 -2.5948 -1.1655 -0.6309
  149SAPE  C31216538   2.352   0.925   9.487  0.7026  0.6332 -1.0467
  149SAPE  H12X16539   2.246   0.902   9.515 -0.1547  2.2868 -2.7214
  149SAPE  H12Y16540   2.404   0.827   9.483 -0.6128 -0.1063 -4.7632
  149SAPE  C31316541   2.362   0.981   9.345  0.2995  0.0915 -0.1530
  149SAPE  H13X16542   2.469   1.002   9.327  0.3791 -0.3164 -0.1704
  149SAPE  H13Y16543   2.306   1.077   9.351  0.1216 -0.0504  0.6316
  149SAPE  C31416544   2.305   0.879   9.246  0.5424 -0.8824 -0.1156
  149SAPE  H14X16545   2.216   0.841   9.300 -0.5306 -0.0332 -1.2108
  149SAPE  H14Y16546   2.376   0.795   9.231  0.4707 -1.0606  0.5416
  149SAPE  C31516547   2.255   0.944   9.116 -0.4960  0.6395 -0.0391
  149SAPE  H15X16548   2.337   0.997   9.063 -0.4314 -0.7814 -1.4555
  149SAPE  H15Y16549   2.177   1.017   9.147  0.7725  1.3717  1.5846
  149SAPE  C31616550   2.188   0.831   9.033  0.4517  0.0442  0.0065
  149SAPE  H16X16551   2.115   0.788   9.105 -0.7222  1.7671 -0.1111
  149SAPE  H16Y16552   2.264   0.757   9.001  1.2496  1.2272 -0.9306
  149SAPE  C31716553   2.108   0.883   8.914 -0.0683  0.6651 -0.4696
  149SAPE  H17X16554   2.027   0.945   8.956 -0.3957  0.5612 -0.9335
  149SAPE  H17Y16555   2.051   0.808   8.855 -3.6886  3.5694 -1.0513
  149SAPE  C31816556   2.189   0.960   8.805 -0.7083  0.4029  0.5899
  149SAPE  H18X16557   2.257   1.026   8.864  0.7598 -1.8733  1.5978
  149SAPE  H18Y16558   2.135   1.021   8.729  1.1850 -0.1609 -1.3161
  149SAPE  H18Z16559   2.250   0.891   8.742  1.2473  1.6809  0.9986
  150SAPE     N16560   6.070   6.701  11.015  0.4169  0.3418 -0.3978
  150SAPE   HN116561   6.147   6.738  10.956  3.0927 -0.4009  2.4078
  150SAPE   HN216562   6.072   6.598  11.006  0.5239  0.2676  0.4052
  150SAPE   HN316563   5.973   6.727  10.988  0.5433  0.4825 -0.7181
  150SAPE   C1216564   6.116   6.740  11.148 -1.0632  0.2723 -1.2580
  150SAPE  H12A16565   6.060   6.688  11.229 -0.6568 -0.7657 -1.6257
  150SAPE  H12B16566   6.091   6.847  11.163 -1.8617 -0.1329  0.6280
  150SAPE   C1116567   6.263   6.707  11.174  0.0031 -0.5401 -0.4032
  150SAPE  H11A16568   6.290   6.734  11.278 -2.8554 -1.2227  0.6074
  150SAPE  H11B16569   6.326   6.781  11.119  0.3193 -0.8580 -0.4733
  150SAPE     P16570   6.398   6.530  11.024 -0.2376 -0.1707  0.0547
  150SAPE   O1316571   6.504   6.634  11.023  0.2421  0.0286 -0.5115
  150SAPE   O1416572   6.435   6.382  11.038 -0.2548 -0.4053  0.1640
  150SAPE   O1216573   6.302   6.571  11.145  0.2632  0.3731  0.3953
  150SAPE   O1116574   6.312   6.557  10.899 -0.5720 -0.0690 -0.5983
  150SAPE    C116575   6.246   6.451  10.826  0.1104 -0.3664  0.8124
  150SAPE    HA16576   6.235   6.356  10.882 -0.5174 -1.0072 -0.3540
  150SAPE    HB16577   6.151   6.478  10.774 -0.9290 -1.5280  2.0269
  150SAPE    C216578   6.347   6.405  10.714  0.0905 -0.2339  0.8256
  150SAPE    HS16579   6.443   6.381  10.764 -0.1446  1.7440  2.3193
  150SAPE   O2116580   6.358   6.515  10.621  0.6643 -0.3276 -0.3858
  150SAPE   C2116581   6.457   6.527  10.545  0.0843 -0.0353  0.5541
  150SAPE   O2216582   6.562   6.465  10.548 -0.1910  0.0530  0.0091
  150SAPE   C2216583   6.416   6.628  10.445 -1.0865  0.3786  0.4666
  150SAPE   H2R16584   6.307   6.647  10.452 -1.4644 -2.0222  2.4689
  150SAPE   H2S16585   6.470   6.716  10.485 -0.1115 -0.2342  0.5308
  150SAPE    C316586   6.294   6.278  10.637  0.8017 -0.1185 -0.2405
  150SAPE    HX16587   6.192   6.310  10.604  0.6273  0.6560  0.9817
  150SAPE    HY16588   6.281   6.198  10.713 -0.6081  0.1688 -0.1388
  150SAPE   O3116589   6.369   6.238  10.523  0.6099  0.1996 -0.3787
  150SAPE   C3116590   6.468   6.155  10.540  0.3395  0.5023  0.5419
  150SAPE   O3216591   6.502   6.106  10.649  0.6312 -0.0807 -0.2645
  150SAPE   C3216592   6.529   6.129  10.400 -0.2708 -0.0841 -0.2395
  150SAPE   H2X16593   6.469   6.179  10.320  2.2369 -0.8219 -2.7121
  150SAPE   H2Y16594   6.539   6.022  10.375 -0.6328  0.1292 -1.3525
  150SAPE   C2316595   6.478   6.593  10.307  0.5915 -0.5276  0.1284
  150SAPE   H3R16596   6.585   6.560  10.311  0.3358 -1.5841 -0.9758
  150SAPE   H3S16597   6.484   6.691  10.256 -0.7154 -0.4471  0.1039
  150SAPE   C2416598   6.387   6.490  10.232  0.3176  0.3531  0.2256
  150SAPE   H4R16599   6.364   6.410  10.306  1.5917 -0.4891 -0.2504
  150SAPE   H4S16600   6.448   6.453  10.146 -0.6669 -1.4563  0.2545
  150SAPE   C2516601   6.265   6.561  10.182 -0.5556 -0.5035 -0.3195
  150SAPE   H5R16602   6.173   6.557  10.242 -0.9318  0.1273 -0.8280
  150SAPE   C2616603   6.246   6.621  10.063 -0.5357  0.3566  0.3927
  150SAPE   H6R16604   6.150   6.666  10.033 -0.8225 -0.7618 -0.4281
  150SAPE   C2716605   6.350   6.633   9.953 -0.3268  0.3063  0.1182
  150SAPE   H7R16606   6.448   6.674   9.987 -0.1744 -0.0819  0.1448
  150SAPE   H7S16607   6.318   6.712   9.882  1.0336 -0.1719 -1.0822
  150SAPE   C2816608   6.373   6.501   9.880  0.3775  1.0772 -0.4561
  150SAPE   H8R16609   6.397   6.421   9.951 -1.7514  1.1097  0.3662
  150SAPE   C2916610   6.359   6.477   9.746  0.2301 -0.1641  0.5938
  150SAPE   H9R16611   6.384   6.376   9.709 -3.2653 -1.3355  1.0918
  150SAPE  C21016612   6.319   6.566   9.635  0.1581 -0.2412 -1.2055
  150SAPE  H10R16613   6.279   6.663   9.671  0.6768 -0.8179  1.1054
  150SAPE  H10S16614   6.233   6.515   9.588 -2.0045  1.4908  0.6506
  150SAPE  C21116615   6.431   6.597   9.541 -0.6137 -0.0218  0.2536
  150SAPE  H11R16616   6.481   6.690   9.572  1.5384 -0.4377 -1.7340
  150SAPE  C21216617   6.474   6.518   9.436 -0.4680 -0.2300 -0.1528
  150SAPE  H12R16618   6.563   6.557   9.386  0.8655 -1.8754  0.8173
  150SAPE  C21316619   6.424   6.390   9.371  0.5908 -0.1089  0.2834
  150SAPE  H13R16620   6.327   6.359   9.412 -1.4137 -1.1933 -4.5533
  150SAPE  H13S16621   6.483   6.302   9.404 -0.9664 -1.2893  0.0368
  150SAPE  C21416622   6.404   6.402   9.222 -0.4001 -0.5672 -0.7378
  150SAPE  H14R16623   6.301   6.434   9.201 -0.2060  3.1545  2.7290
  150SAPE  C21516624   6.488   6.364   9.124 -0.7646 -0.5879 -0.2883
  150SAPE  H15R16625   6.468   6.389   9.019  0.1536 -0.4449 -0.4363
  150SAPE  C21616626   6.624   6.309   9.151  0.0056  0.0367  0.4714
  150SAPE  H16R16627   6.616   6.211   9.202 -3.0811  0.5383  1.1271
  150SAPE  H16S16628   6.675   6.373   9.226 -3.0036 -0.5109  3.1739
  150SAPE  C21716629   6.706   6.292   9.023 -0.5786 -0.4589 -0.2916
  150SAPE  H17R16630   6.735   6.389   8.978  3.6202 -0.3527  2.1339
  150SAPE  H17S16631   6.668   6.217   8.950 -0.7899 -1.0503  0.4045
  150SAPE  C21816632   6.847   6.240   9.050 -0.2818 -0.1031 -0.1629
  150SAPE  H18R16633   6.853   6.138   9.094  2.8021 -0.4766 -1.1784
  150SAPE  H18S16634   6.890   6.308   9.127 -0.3288  0.1414 -0.3531
  150SAPE  C21916635   6.941   6.240   8.925 -0.3712 -0.7101 -0.2881
  150SAPE  H19R16636   6.890   6.177   8.849  0.4095  0.4312 -1.8150
  150SAPE  H19S16637   7.035   6.188   8.955 -0.8840 -0.8784  1.0545
  150SAPE  C22016638   6.983   6.378   8.870 -0.0882  0.1380 -0.4363
  150SAPE  H20R16639   6.896   6.432   8.827 -0.3720  0.8585  0.9687
  150SAPE  H20S16640   7.067   6.381   8.797 -0.3417 -0.1172 -0.7417
  150SAPE  H20T16641   7.029   6.445   8.946  1.4516 -0.3367 -0.9132
  150SAPE   C3316642   6.666   6.195  10.396  0.7234 -0.1150 -0.3325
  150SAPE   H3X16643   6.720   6.144  10.479  0.0919 -0.5667 -0.1914
  150SAPE   H3Y16644   6.662   6.304  10.413  1.9609 -0.2577  1.1664
  150SAPE   C3416645   6.736   6.154  10.266 -0.0611  0.0126  0.1469
  150SAPE   H4X16646   6.720   6.047  10.239  0.7094 -0.1880  0.4559
  150SAPE   H4Y16647   6.843   6.171  10.287  0.1497 -0.2209 -0.7094
  150SAPE   C3516648   6.685   6.235  10.142 -0.9948 -0.4499 -0.3219
  150SAPE   H5X16649   6.728   6.337  10.142  2.2444 -1.7104 -1.4316
  150SAPE   H5Y16650   6.574   6.245  10.150 -0.9946  4.6284 -2.8299
  150SAPE   C3616651   6.721   6.179  10.004  0.8506  1.1522  0.1000
  150SAPE   H6X16652   6.673   6.079   9.995  1.5723  0.7527  0.5731
  150SAPE   H6Y16653   6.832   6.168   9.999  0.8829  1.5749 -0.1162
  150SAPE   C3716654   6.669   6.267   9.883 -0.1146 -0.3592 -0.2051
  150SAPE   H7X16655   6.678   6.375   9.905 -0.5286 -0.1921 -0.8421
  150SAPE   H7Y16656   6.562   6.236   9.884 -0.4270  0.6633  1.1727
  150SAPE   C3816657   6.711   6.231   9.741 -0.2656 -0.6116  0.2387
  150SAPE   H8X16658   6.630   6.258   9.670 -0.8361 -0.9721  0.7417
  150SAPE   H8Y16659   6.723   6.121   9.735  1.6874 -0.4209 -0.1099
  150SAPE   C3916660   6.838   6.299   9.695  0.2682 -1.0724  0.5626
  150SAPE   H9X16661   6.912   6.217   9.702 -0.5437 -1.8422  0.3066
  150SAPE   H9Y16662   6.863   6.376   9.771 -0.4464 -0.4408  0.1675
  150SAPE  C31016663   6.831   6.378   9.555  0.1514 -0.1859 -0.5249
  150SAPE  H10X16664   6.753   6.456   9.559 -0.2426 -0.5767 -0.5427
  150SAPE  H10Y16665   6.790   6.315   9.473  0.4449  2.2297 -2.6760
  150SAPE  C31116666   6.966   6.430   9.512  0.5560 -0.4568  0.0417
  150SAPE  H11X16667   7.036   6.347   9.489  1.4940  0.0533  0.9710
  150SAPE  H11Y16668   7.013   6.486   9.596  1.0123 -0.5782 -0.1273
  150SAPE  C31216669   6.979   6.513   9.390 -0.1641 -0.2804  0.0714
  150SAPE  H12X16670   6.911   6.599   9.408  1.5240  1.1365  0.0557
  150SAPE  H12Y16671   6.952   6.459   9.297 -0.2304  2.3890 -1.5644
  150SAPE  C31316672   7.129   6.564   9.382  0.2539 -0.2960 -0.6284
  150SAPE  H13X16673   7.192   6.473   9.375  1.3660  0.0164  3.0465
  150SAPE  H13Y16674   7.148   6.619   9.477  1.3576 -0.9609 -0.4518
  150SAPE  C31416675   7.157   6.650   9.264  0.0278  0.2338 -0.3671
  150SAPE  H14X16676   7.104   6.746   9.285  0.7024  0.2019  1.8061
  150SAPE  H14Y16677   7.114   6.605   9.173 -1.6339 -0.2170  0.6094
  150SAPE  C31516678   7.304   6.684   9.238  0.0727  0.3018 -0.1545
  150SAPE  H15X16679   7.370   6.596   9.251 -1.0529 -0.5206  0.1251
  150SAPE  H15Y16680   7.346   6.753   9.314  2.6166  0.4349 -1.5770
  150SAPE  C31616681   7.337   6.752   9.101 -0.7680  0.0584  0.0419
  150SAPE  H16X16682   7.443   6.780   9.117 -0.0435 -1.2430 -2.0904
  150SAPE  H16Y16683   7.280   6.846   9.085  0.2586  0.5082 -1.1699
  150SAPE  C31716684   7.313   6.675   8.974 -0.3471 -0.3930  0.3574
  150SAPE  H17X16685   7.206   6.689   8.949 -0.5406 -0.5864  1.0510
  150SAPE  H17Y16686   7.335   6.569   8.996  1.8497 -0.7867 -2.9470
  150SAPE  C31816687   7.394   6.722   8.845 -0.0939  0.2191 -0.4609
  150SAPE  H18X16688   7.380   6.639   8.772 -1.4777 -1.1311  1.2239
  150SAPE  H18Y16689   7.501   6.726   8.872  0.5811 -2.2298 -2.3839
  150SAPE  H18Z16690   7.361   6.821   8.808  0.7219 -0.0726 -2.0255
  151SAPE     N16691   1.521   0.080  10.793  0.4351  0.0506 -0.0496
  151SAPE   HN116692   1.617   0.049  10.819  0.2910  0.3620  0.9165
  151SAPE   HN216693   1.485   0.158  10.851  1.2862  0.5776 -0.2113
  151SAPE   HN316694   1.447   0.008  10.807  2.4607 -2.2078 -0.2124
  151SAPE   C1216695   1.516   0.124  10.648 -0.1508 -0.3857  0.1982
  151SAPE  H12A16696   1.466   0.223  10.650 -0.6680 -0.6418  0.2652
  151SAPE  H12B16697   1.462   0.038  10.603 -0.8128 -0.7297  1.5820
  151SAPE   C1116698   1.662   0.133  10.596  0.5051  0.2114 -0.6807
  151SAPE  H11A16699   1.662   0.190  10.500  0.5398  5.0913  1.9333
  151SAPE  H11B16700   1.707   0.032  10.581  2.2892  0.7868  0.5038
  151SAPE     P16701   1.845   0.126  10.789 -0.1787  0.2108 -0.3527
  151SAPE   O1316702   1.943   0.234  10.832 -0.1959  0.2090 -0.4473
  151SAPE   O1416703   1.771   0.050  10.891 -0.1368  0.4930 -0.2567
  151SAPE   O1216704   1.747   0.201  10.693  0.4887  0.4091  0.3779
  151SAPE   O1116705   1.906   0.026  10.684 -0.7271  0.0917 -0.3272
  151SAPE    C116706   2.029   0.051  10.605  0.0179  0.1610  0.5029
  151SAPE    HA16707   2.004   0.095  10.506  1.9311 -0.0189 -0.1153
  151SAPE    HB16708   2.099   0.133  10.633  1.7587  0.4138 -3.8389
  151SAPE    C216709   2.110  -0.080  10.575 -0.0446  0.0833  0.3626
  151SAPE    HS16710   2.185  -0.054  10.497 -0.5450  0.8022  0.1144
  151SAPE   O2116711   2.019  -0.185  10.530 -0.0996  0.5721 -0.3057
  151SAPE   C2116712   1.986  -0.176  10.404 -0.1820  0.0168 -0.6801
  151SAPE   O2216713   2.033  -0.097  10.325 -0.4080  0.0391  0.3408
  151SAPE   C2216714   1.885  -0.281  10.352 -0.1741  0.2980 -0.1823
  151SAPE   H2R16715   1.881  -0.362  10.428 -2.4022 -0.2387 -0.7965
  151SAPE   H2S16716   1.796  -0.215  10.355  0.5722  1.2986  2.3715
  151SAPE    C316717   2.194  -0.132  10.698  0.0003  0.4192  0.3874
  151SAPE    HX16718   2.131  -0.102  10.785 -0.8959  1.5892 -0.6284
  151SAPE    HY16719   2.287  -0.072  10.705  0.9490 -1.0113  0.2841
  151SAPE   O3116720   2.217  -0.273  10.698 -0.2653 -0.0277  0.7710
  151SAPE   C3116721   2.320  -0.308  10.618  0.3148  0.6064  0.9690
  151SAPE   O3216722   2.384  -0.228  10.551 -0.3998  0.1750 -0.6145
  151SAPE   C3216723   2.333  -0.461  10.623 -0.1404  0.7167  0.5211
  151SAPE   H2X16724   2.309  -0.496  10.726 -0.9993 -0.1010  0.0477
  151SAPE   H2Y16725   2.440  -0.475  10.595 -1.2335 -1.8376 -3.0474
  151SAPE   C2316726   1.918  -0.348  10.215  0.3118 -0.4472 -0.0220
  151SAPE   H3R16727   1.971  -0.273  10.153 -0.3463 -0.2065 -0.3009
  151SAPE   H3S16728   1.818  -0.357  10.168  0.0566 -0.6103  0.5431
  151SAPE   C2416729   1.997  -0.483  10.225  0.8763  0.2932 -0.5290
  151SAPE   H4R16730   2.076  -0.472  10.302 -1.0557 -2.0616  1.9934
  151SAPE   H4S16731   2.038  -0.518  10.128  1.8280 -0.0120 -0.0289
  151SAPE   C2516732   1.903  -0.591  10.282 -0.9466 -0.3603 -0.0138
  151SAPE   H5R16733   1.899  -0.599  10.392  0.1626 -1.5158 -0.0307
  151SAPE   C2616734   1.832  -0.680  10.211  0.1379  0.1276 -0.1069
  151SAPE   H6R16735   1.767  -0.752  10.264  0.6194  0.4169  0.9057
  151SAPE   C2716736   1.826  -0.713  10.065  0.5072 -0.2841 -0.2270
  151SAPE   H7R16737   1.812  -0.624   9.999  1.5604  0.6754  0.8037
  151SAPE   H7S16738   1.737  -0.775  10.041  0.0867  1.0787 -2.5025
  151SAPE   C2816739   1.942  -0.804  10.031 -0.0462 -0.1621  0.9009
  151SAPE   H8R16740   2.011  -0.833  10.112 -0.2381 -1.7438  0.5313
  151SAPE   C2916741   1.954  -0.852   9.907  0.9903 -0.2113 -0.6065
  151SAPE   H9R16742   2.025  -0.933   9.885 -1.2451 -1.7103 -2.8242
  151SAPE  C21016743   1.866  -0.823   9.788 -0.4682 -0.2931  0.3107
  151SAPE  H10R16744   1.794  -0.742   9.813 -0.1033 -0.2263  1.1878
  151SAPE  H10S16745   1.804  -0.914   9.770  2.9967 -2.9087  0.5803
  151SAPE  C21116746   1.959  -0.785   9.675 -0.3207 -0.1320  0.2954
  151SAPE  H11R16747   2.006  -0.686   9.681 -0.5768  0.0967 -1.1842
  151SAPE  C21216748   1.991  -0.865   9.567 -0.4076  0.5547 -0.1137
  151SAPE  H12R16749   2.046  -0.818   9.483  2.0014 -1.4138  0.2369
  151SAPE  C21316750   1.930  -0.995   9.545  0.1085 -0.0319 -0.6977
  151SAPE  H13R16751   1.819  -0.987   9.551  0.3215  3.4735  0.9289
  151SAPE  H13S16752   1.940  -1.060   9.634 -2.9476 -1.2720 -1.1096
  151SAPE  C21416753   1.971  -1.064   9.415  0.8706 -0.3869  0.4057
  151SAPE  H14R16754   2.051  -1.137   9.433  1.0845  0.2418  2.2523
  151SAPE  C21516755   1.945  -1.030   9.286  0.4118  0.4041 -0.5607
  151SAPE  H15R16756   1.994  -1.087   9.206  0.7088  0.0913 -0.1611
  151SAPE  C21616757   1.860  -0.912   9.242 -0.3402  0.5004  0.3187
  151SAPE  H16R16758   1.856  -0.833   9.319 -1.0411  1.0364 -0.2565
  151SAPE  H16S16759   1.760  -0.952   9.215  0.1928 -2.1689  1.9109
  151SAPE  C21716760   1.922  -0.844   9.121 -0.7212 -0.7485  1.1333
  151SAPE  H17R16761   1.937  -0.920   9.041  1.0929  3.0682 -2.5079
  151SAPE  H17S16762   2.018  -0.798   9.150 -0.1377 -0.1490 -1.4684
  151SAPE  C21816763   1.835  -0.733   9.054 -0.4310  0.5788  0.6062
  151SAPE  H18R16764   1.813  -0.651   9.126 -1.8754  0.6938  0.0807
  151SAPE  H18S16765   1.735  -0.775   9.030  0.0470 -2.0636  2.7983
  151SAPE  C21916766   1.913  -0.668   8.929 -0.0210  0.2325 -0.2344
  151SAPE  H19R16767   1.933  -0.741   8.848 -1.8239 -0.4148 -0.1251
  151SAPE  H19S16768   2.018  -0.649   8.961 -0.1478  0.6239 -0.0395
  151SAPE  C22016769   1.845  -0.548   8.873  0.0317 -0.0523 -0.1490
  151SAPE  H20R16770   1.734  -0.547   8.880  0.0508  1.0370  0.2885
  151SAPE  H20S16771   1.863  -0.525   8.766  1.3333 -1.1123 -0.1752
  151SAPE  H20T16772   1.858  -0.453   8.930 -0.4190 -0.2029  0.2175
  151SAPE   C3316773   2.258  -0.541  10.509 -0.1351  0.4364  0.3891
  151SAPE   H3X16774   2.251  -0.487  10.412  1.0778 -1.6173 -0.9186
  151SAPE   H3Y16775   2.153  -0.562  10.537 -0.1014 -1.9260 -0.9785
  151SAPE   C3416776   2.335  -0.672  10.469  0.1927  0.6671  0.8207
  151SAPE   H4X16777   2.342  -0.741  10.556  1.4643 -1.1140 -0.6094
  151SAPE   H4Y16778   2.440  -0.642  10.450 -0.1625  1.0266 -0.6504
  151SAPE   C3516779   2.287  -0.731  10.339 -0.6763  0.3672  0.4951
  151SAPE   H5X16780   2.177  -0.737  10.348 -0.4995 -1.4617  2.2639
  151SAPE   H5Y16781   2.337  -0.830  10.343 -0.7277  0.2864 -0.6895
  151SAPE   C3616782   2.334  -0.665  10.202 -0.4033 -0.4831 -0.5924
  151SAPE   H6X16783   2.327  -0.555  10.210 -0.0291 -0.4128 -1.1709
  151SAPE   H6Y16784   2.274  -0.703  10.116  0.4755 -1.9136 -0.6172
  151SAPE   C3716785   2.474  -0.702  10.166 -0.1861  0.0101  0.3055
  151SAPE   H7X16786   2.485  -0.813  10.165  0.7171  0.0743 -1.3630
  151SAPE   H7Y16787   2.538  -0.660  10.246  2.5283 -2.2063 -0.5328
  151SAPE   C3816788   2.513  -0.647  10.029 -0.3124 -0.4316  1.0792
  151SAPE   H8X16789   2.509  -0.536  10.033 -1.2617 -0.3985 -0.1418
  151SAPE   H8Y16790   2.447  -0.686   9.948  1.0765  1.0737 -0.8952
  151SAPE   C3916791   2.653  -0.679   9.964 -0.2383 -0.1971  0.1674
  151SAPE   H9X16792   2.665  -0.789   9.958 -0.7596 -0.3081  1.0430
  151SAPE   H9Y16793   2.727  -0.644  10.038  0.7522 -1.4720 -0.1737
  151SAPE  C31016794   2.652  -0.627   9.823 -0.6339  0.6804 -0.0145
  151SAPE  H10X16795   2.628  -0.520   9.810  1.3986  1.0204 -1.6421
  151SAPE  H10Y16796   2.578  -0.678   9.758 -0.5830  0.0017  0.4497
  151SAPE  C31116797   2.789  -0.653   9.743 -0.2855 -0.4977 -0.3835
  151SAPE  H11X16798   2.812  -0.762   9.746  1.0166 -0.3583 -2.8398
  151SAPE  H11Y16799   2.872  -0.589   9.779 -0.6042 -0.5127  0.3852
  151SAPE  C31216800   2.785  -0.615   9.598  0.2379  0.2860  0.1533
  151SAPE  H12X16801   2.745  -0.511   9.592  0.6653  0.5933  1.8556
  151SAPE  H12Y16802   2.713  -0.683   9.549  0.0075  0.1974  0.6054
  151SAPE  C31316803   2.921  -0.620   9.531 -1.6053  0.1064  0.0006
  151SAPE  H13X16804   2.975  -0.718   9.535 -1.0787  0.3051 -1.5772
  151SAPE  H13Y16805   2.985  -0.557   9.596 -2.2583 -0.2570  1.0341
  151SAPE  C31416806   2.936  -0.563   9.395 -0.1225 -0.2182  0.3664
  151SAPE  H14X16807   2.900  -0.458   9.389  1.0869  0.4216  3.1045
  151SAPE  H14Y16808   2.874  -0.627   9.328  1.1154  0.7156 -1.8004
  151SAPE  C31516809   3.075  -0.581   9.339 -1.1496  0.4123 -0.4082
  151SAPE  H15X16810   3.094  -0.689   9.319 -0.8320 -0.0904  2.2878
  151SAPE  H15Y16811   3.163  -0.539   9.391 -2.3633  0.5034  1.6618
  151SAPE  C31616812   3.083  -0.520   9.191 -1.0156  0.0485 -0.5170
  151SAPE  H16X16813   3.058  -0.412   9.188 -0.5376  0.2077 -4.6296
  151SAPE  H16Y16814   3.005  -0.564   9.126 -1.1061  1.1078 -1.1424
  151SAPE  C31716815   3.232  -0.519   9.148 -0.3081 -0.2836 -0.3614
  151SAPE  H17X16816   3.303  -0.502   9.232 -0.0607 -0.1079 -0.6077
  151SAPE  H17Y16817   3.251  -0.438   9.075  2.8440 -0.8043 -0.2386
  151SAPE  C31816818   3.284  -0.642   9.074  0.3496  0.4879  0.1694
  151SAPE  H18X16819   3.388  -0.625   9.038 -0.1730  0.1410 -1.6120
  151SAPE  H18Y16820   3.218  -0.653   8.985 -1.3733  0.1974  1.4296
  151SAPE  H18Z16821   3.284  -0.739   9.128  1.3523  0.9025  0.9502
  152SAPE     N16822   0.226   4.796  10.718 -0.2040 -0.0065  0.1657
  152SAPE   HN116823   0.177   4.814  10.807 -0.3119  1.7264 -0.2195
  152SAPE   HN216824   0.181   4.824  10.629  1.3316 -0.3522 -0.7608
  152SAPE   HN316825   0.228   4.692  10.720 -2.2156 -0.1562 -1.6902
  152SAPE   C1216826   0.369   4.844  10.723 -0.1893 -0.2119 -0.3739
  152SAPE  H12A16827   0.367   4.954  10.734 -0.8957 -0.1932 -0.6645
  152SAPE  H12B16828   0.415   4.824  10.624 -2.9058 -2.3455 -1.3410
  152SAPE   C1116829   0.448   4.765  10.827  0.5599 -1.0211  0.0809
  152SAPE  H11A16830   0.395   4.781  10.923  0.1409 -0.2574 -0.2669
  152SAPE  H11B16831   0.551   4.806  10.827  0.1431  0.0790  1.3740
  152SAPE     P16832   0.377   4.515  10.862 -0.1807  0.3220 -0.2319
  152SAPE   O1316833   0.415   4.383  10.798 -0.0549  0.6113  0.6762
  152SAPE   O1416834   0.402   4.532  11.006 -0.2807 -0.0020 -0.2707
  152SAPE   O1216835   0.451   4.625  10.785 -0.1359 -0.2555  0.0484
  152SAPE   O1116836   0.232   4.557  10.841  0.0460 -0.0606  0.1289
  152SAPE    C116837   0.129   4.459  10.832 -0.3302  0.2032  0.2689
  152SAPE    HA16838   0.142   4.375  10.902 -0.5738  0.1598  0.2646
  152SAPE    HB16839   0.031   4.508  10.852 -0.1444  0.3075  0.9413
  152SAPE    C216840   0.106   4.409  10.688  0.5590  0.0525  0.0119
  152SAPE    HS16841   0.175   4.323  10.678 -0.9006 -0.9276 -2.9640
  152SAPE   O2116842   0.134   4.513  10.600 -0.0021 -0.4353  0.9678
  152SAPE   C2116843   0.207   4.492  10.493 -0.1990 -0.1256 -0.8173
  152SAPE   O2216844   0.266   4.393  10.465 -0.3261  0.2230  0.0679
  152SAPE   C2216845   0.225   4.628  10.418  0.1264  0.0427 -0.2237
  152SAPE   H2R16846   0.134   4.692  10.414 -0.9540 -1.4942 -1.4270
  152SAPE   H2S16847   0.306   4.682  10.472  0.9179 -2.1240  0.9244
  152SAPE    C316848  -0.041   4.346  10.665 -0.1226 -0.1503  1.0866
  152SAPE    HX16849  -0.106   4.434  10.685  1.6945  1.1769  1.4136
  152SAPE    HY16850  -0.068   4.269  10.740  0.0566 -2.3165 -0.9572
  152SAPE   O3116851  -0.053   4.300  10.528  0.0689 -0.0791 -0.3717
  152SAPE   C3116852  -0.002   4.184  10.499  1.1028 -0.0439  0.3137
  152SAPE   O3216853   0.076   4.126  10.565  0.4435  0.1636 -0.0047
  152SAPE   C3216854  -0.046   4.129  10.359  0.6787 -0.3786 -0.0864
  152SAPE   H2X16855  -0.014   4.200  10.280 -0.8146  0.8999  0.3885
  152SAPE   H2Y16856  -0.157   4.134  10.360  0.6367 -0.9816 -0.8918
  152SAPE   C2316857   0.287   4.593  10.277  0.0870  0.9615  0.4021
  152SAPE   H3R16858   0.376   4.527  10.289  1.1917  1.3946 -3.8855
  152SAPE   H3S16859   0.316   4.692  10.236 -0.6258  1.4178  0.9827
  152SAPE   C2416860   0.185   4.538  10.180 -0.6811 -0.4545  0.6094
  152SAPE   H4R16861   0.109   4.617  10.164  1.2142  0.9470 -2.3060
  152SAPE   H4S16862   0.129   4.458  10.233 -3.0046  1.5099  1.2949
  152SAPE   C2516863   0.242   4.503  10.045 -0.3541  0.1835 -0.1565
  152SAPE   H5R16864   0.297   4.408  10.041 -0.6789 -0.1251  1.7875
  152SAPE   C2616865   0.218   4.570   9.926  0.2390  0.9112 -0.8049
  152SAPE   H6R16866   0.262   4.525   9.835  1.3402  0.2236  0.0405
  152SAPE   C2716867   0.139   4.698   9.906 -0.6971 -0.5199  0.4685
  152SAPE   H7R16868   0.051   4.703   9.974 -0.2906  1.4519  0.9223
  152SAPE   H7S16869   0.086   4.686   9.810  1.5480 -0.5196 -0.8454
  152SAPE   C2816870   0.225   4.826   9.914 -0.5046 -0.0295  0.0705
  152SAPE   H8R16871   0.299   4.821   9.995  1.3991  1.0021 -1.5243
  152SAPE   C2916872   0.242   4.926   9.827 -0.2419  0.3874  0.2914
  152SAPE   H9R16873   0.294   5.018   9.857 -1.2855  1.6705 -1.6295
  152SAPE  C21016874   0.178   4.933   9.686 -0.0792 -0.6125 -0.3373
  152SAPE  H10R16875   0.125   5.031   9.686 -0.7506 -0.8195  3.4962
  152SAPE  H10S16876   0.106   4.849   9.674 -0.8346 -0.0431  0.1323
  152SAPE  C21116877   0.291   4.931   9.582  0.4540  0.4304  0.1328
  152SAPE  H11R16878   0.355   5.019   9.566  0.5315  0.0980 -1.6204
  152SAPE  C21216879   0.319   4.827   9.501 -0.9810  0.2239 -0.4118
  152SAPE  H12R16880   0.379   4.848   9.411 -0.2844 -1.3223 -0.3386
  152SAPE  C21316881   0.255   4.687   9.490 -0.1689 -0.4501 -0.0051
  152SAPE  H13R16882   0.231   4.650   9.592  0.5270 -0.0179  0.3229
  152SAPE  H13S16883   0.329   4.616   9.448 -0.0196 -1.1044  1.3077
  152SAPE  C21416884   0.130   4.687   9.407 -0.6162  0.5850  0.1464
  152SAPE  H14R16885   0.039   4.735   9.446 -1.4278  0.5153 -1.5408
  152SAPE  C21516886   0.123   4.645   9.278  0.7307 -0.3187  0.5065
  152SAPE  H15R16887   0.021   4.645   9.236  0.6113  0.1684  0.7856
  152SAPE  C21616888   0.232   4.594   9.190  0.3441 -0.1597  0.0498
  152SAPE  H16R16889   0.206   4.489   9.166 -1.8894  0.4928 -0.6336
  152SAPE  H16S16890   0.331   4.602   9.239  2.1605 -0.0252 -3.3572
  152SAPE  C21716891   0.229   4.677   9.063  0.3631  0.0783 -0.3037
  152SAPE  H17R16892   0.314   4.643   9.001  1.1103  1.0117  0.1765
  152SAPE  H17S16893   0.246   4.784   9.088 -0.0658  0.0038  0.3502
  152SAPE  C21816894   0.101   4.657   8.985 -0.3577  0.0206 -0.1495
  152SAPE  H18R16895   0.028   4.720   9.039 -1.2659 -2.0188  1.0983
  152SAPE  H18S16896   0.084   4.548   9.000  2.6671 -0.4431  0.7312
  152SAPE  C21916897   0.111   4.712   8.837 -0.0164 -0.8123  0.3127
  152SAPE  H19R16898   0.218   4.696   8.809  0.8568  2.6006  1.1566
  152SAPE  H19S16899   0.097   4.822   8.840  0.2740 -0.6990 -1.4430
  152SAPE  C22016900   0.012   4.660   8.737 -0.0736 -0.5342 -0.0152
  152SAPE  H20R16901   0.042   4.557   8.707  0.5120 -0.6787  1.0411
  152SAPE  H20S16902   0.001   4.716   8.641 -1.6192 -0.9878 -0.1290
  152SAPE  H20T16903  -0.091   4.651   8.779  0.5163  0.4741  1.7136
  152SAPE   C3316904  -0.006   3.979  10.325  0.0646 -0.2725  0.1485
  152SAPE   H3X16905  -0.074   3.950  10.242  1.1115  0.6764 -1.0805
  152SAPE   H3Y16906  -0.027   3.913  10.412 -0.2687 -0.3552  0.0041
  152SAPE   C3416907   0.150   3.962  10.284 -0.0439  0.0841 -0.6094
  152SAPE   H4X16908   0.179   3.862  10.245  0.8467  0.1313 -0.0772
  152SAPE   H4Y16909   0.195   3.967  10.385 -0.7659 -0.3844 -0.2563
  152SAPE   C3516910   0.198   4.078  10.190 -0.1242  0.3188  0.1271
  152SAPE   H5X16911   0.307   4.058  10.185 -0.6475 -3.0937 -0.3042
  152SAPE   H5Y16912   0.176   4.181  10.222  0.1922  0.2955  0.4313
  152SAPE   C3616913   0.158   4.053  10.040  1.2283  0.5445 -0.2919
  152SAPE   H6X16914   0.048   4.053  10.023  1.2202 -2.9032 -0.9577
  152SAPE   H6Y16915   0.193   3.952  10.011  0.8480  0.5290 -0.6970
  152SAPE   C3716916   0.234   4.154   9.951  0.2469  0.3700 -0.2851
  152SAPE   H7X16917   0.340   4.140   9.982 -0.4143 -1.5211  1.3481
  152SAPE   H7Y16918   0.210   4.262   9.966  2.2141  0.9102 -0.7234
  152SAPE   C3816919   0.213   4.128   9.800 -0.2592 -0.4221  0.0872
  152SAPE   H8X16920   0.107   4.104   9.776 -0.0372 -0.3796 -0.9735
  152SAPE   H8Y16921   0.271   4.037   9.772  2.7070  1.3121  0.1402
  152SAPE   C3916922   0.249   4.240   9.710 -0.2738 -0.3960 -0.4936
  152SAPE   H9X16923   0.358   4.259   9.719 -0.8724  2.5853  3.1826
  152SAPE   H9Y16924   0.202   4.336   9.741 -1.5037 -1.3254  0.6401
  152SAPE  C31016925   0.220   4.212   9.562 -0.3668 -0.6355 -0.5931
  152SAPE  H10X16926   0.245   4.305   9.506  1.4241  1.6262  3.4450
  152SAPE  H10Y16927   0.112   4.191   9.549 -0.7067  1.4209 -1.4945
  152SAPE  C31116928   0.317   4.114   9.493 -0.1001 -0.0337 -0.1261
  152SAPE  H11X16929   0.322   4.015   9.542  0.1461  0.8498  1.7027
  152SAPE  H11Y16930   0.422   4.146   9.479  0.1856 -1.7084 -2.3351
  152SAPE  C31216931   0.275   4.088   9.343  0.0932  0.3922 -0.5722
  152SAPE  H12X16932   0.240   4.184   9.300 -2.3758 -0.1973 -0.0875
  152SAPE  H12Y16933   0.172   4.045   9.344  0.1913  0.1625  0.3087
  152SAPE  C31316934   0.370   4.024   9.244  0.9611  0.6416  0.6896
  152SAPE  H13X16935   0.389   3.924   9.288 -0.1024  1.0007  2.0208
  152SAPE  H13Y16936   0.466   4.081   9.238  0.7527  0.8665 -1.2146
  152SAPE  C31416937   0.308   4.017   9.101  0.4243 -0.1946  0.2765
  152SAPE  H14X16938   0.299   4.117   9.055 -1.0435 -1.4901 -2.4675
  152SAPE  H14Y16939   0.205   3.977   9.111  0.6497 -1.2783 -1.2988
  152SAPE  C31516940   0.392   3.943   8.997  0.5515  0.5843  0.2838
  152SAPE  H15X16941   0.327   3.941   8.907 -1.3852 -0.6380  1.6164
  152SAPE  H15Y16942   0.400   3.841   9.040  0.6008  0.4920  0.0536
  152SAPE  C31616943   0.530   4.004   8.971  0.2442  0.1349  0.4734
  152SAPE  H16X16944   0.576   3.990   9.071  0.3781  0.9711  0.5435
  152SAPE  H16Y16945   0.508   4.111   8.950 -0.0734  0.0068  0.1530
  152SAPE  C31716946   0.608   3.940   8.849  0.4729 -0.3977  0.4351
  152SAPE  H17X16947   0.622   3.832   8.866  2.1258 -0.4470 -0.9336
  152SAPE  H17Y16948   0.703   3.997   8.864 -0.7557  1.5908  1.1831
  152SAPE  C31816949   0.564   3.978   8.703 -0.5651 -0.3584  0.0808
  152SAPE  H18X16950   0.468   3.935   8.669 -0.4480 -0.2155 -0.4312
  152SAPE  H18Y16951   0.640   3.929   8.638 -0.6033 -0.3549  0.0344
  152SAPE  H18Z16952   0.553   4.088   8.693 -0.0993 -0.2498  0.6740
  153SAPE     N16953   2.709   5.516  10.855  0.0120 -0.2945  0.2699
  153SAPE   HN116954   2.651   5.437  10.891 -0.3136  0.2945  1.0730
  153SAPE   HN216955   2.675   5.607  10.892  0.5551  0.6584 -1.5039
  153SAPE   HN316956   2.683   5.520  10.755 -1.0296  3.0079  0.5544
  153SAPE   C1216957   2.854   5.492  10.868  0.4089 -0.5003  0.0388
  153SAPE  H12A16958   2.886   5.431  10.781  0.4831  0.8792 -0.9385
  153SAPE  H12B16959   2.856   5.437  10.965 -2.2526 -0.2608  0.3193
  153SAPE   C1116960   2.930   5.629  10.868  0.0322 -0.4761  0.2495
  153SAPE  H11A16961   3.033   5.623  10.909 -0.7039  2.1734  2.8998
  153SAPE  H11B16962   2.875   5.691  10.942  1.2243 -0.1617  0.8849
  153SAPE     P16963   3.008   5.805  10.691  0.2230 -0.0573 -0.0829
  153SAPE   O1316964   3.123   5.821  10.780  0.3502  0.2960  0.3456
  153SAPE   O1416965   3.039   5.771  10.550 -0.2731  0.0192  0.1197
  153SAPE   O1216966   2.914   5.689  10.746 -0.2836 -0.1311 -0.5376
  153SAPE   O1116967   2.922   5.937  10.697 -0.1194  0.5543 -0.0357
  153SAPE    C116968   2.785   5.950  10.717  0.6427 -0.8977  0.0247
  153SAPE    HA16969   2.741   5.851  10.741 -1.7843 -0.0872 -0.7467
  153SAPE    HB16970   2.767   6.028  10.794  0.8967  1.1538 -1.8987
  153SAPE    C216971   2.706   6.006  10.593  0.3821 -0.3765  0.1754
  153SAPE    HS16972   2.598   5.985  10.604  0.5004 -0.5291  1.1501
  153SAPE   O2116973   2.754   5.961  10.468 -0.0571 -0.1221  0.5996
  153SAPE   C2116974   2.730   5.842  10.433 -0.2325 -0.3855  0.1703
  153SAPE   O2216975   2.661   5.759  10.486  0.4626  0.7440 -0.2175
  153SAPE   C2216976   2.800   5.816  10.301 -0.2908 -0.2126  1.0385
  153SAPE   H2R16977   2.734   5.848  10.218  0.4030  1.2462  1.0176
  153SAPE   H2S16978   2.890   5.880  10.289 -0.6705  0.2572  0.6378
  153SAPE    C316979   2.704   6.162  10.596  0.3147 -0.8005  0.0107
  153SAPE    HX16980   2.805   6.194  10.629 -0.0642  1.2880 -0.6783
  153SAPE    HY16981   2.632   6.192  10.674 -1.3026  0.9212 -2.0204
  153SAPE   O3116982   2.675   6.223  10.467 -0.4048  0.3330  0.3326
  153SAPE   C3116983   2.674   6.359  10.468 -0.4182  0.3045  0.3009
  153SAPE   O3216984   2.692   6.424  10.568 -0.4257 -0.4801  0.0185
  153SAPE   C3216985   2.664   6.414  10.322  0.1086  0.6541 -0.6758
  153SAPE   H2X16986   2.574   6.479  10.323  0.3140  1.2751  4.7802
  153SAPE   H2Y16987   2.646   6.335  10.247 -0.4606  0.3410 -0.2167
  153SAPE   C2316988   2.852   5.668  10.279  0.2191  0.5393 -0.4320
  153SAPE   H3R16989   2.764   5.605  10.254 -0.3934  0.5863  1.4119
  153SAPE   H3S16990   2.906   5.627  10.367 -0.5521 -1.2129 -0.7278
  153SAPE   C2416991   2.955   5.664  10.168  0.2013  1.0661 -1.1043
  153SAPE   H4R16992   3.053   5.715  10.178  0.5002  0.5406 -1.3366
  153SAPE   H4S16993   2.917   5.721  10.081 -1.1433  1.8114 -0.0567
  153SAPE   C2516994   2.988   5.521  10.122  0.0566  0.1979 -1.0845
  153SAPE   H5R16995   3.037   5.457  10.197  0.8245  0.9889 -0.8824
  153SAPE   C2616996   2.956   5.471  10.003  1.2203 -0.1457 -0.5278
  153SAPE   H6R16997   2.968   5.365   9.977  0.2195 -0.3639 -0.1266
  153SAPE   C2716998   2.888   5.560   9.900  0.5295 -0.5837  0.5182
  153SAPE   H7R16999   2.956   5.642   9.868  0.6650 -0.7204  0.4504
  153SAPE   H7S17000   2.801   5.612   9.944  1.2001  0.0828  1.0664
  153SAPE   C2817001   2.840   5.472   9.783  0.1461 -0.1404  0.0189
  153SAPE   H8R17002   2.736   5.439   9.794 -0.6017  1.3506 -1.9718
  153SAPE   C2917003   2.903   5.475   9.671 -0.3493 -0.3406  0.2291
  153SAPE   H9R17004   2.861   5.407   9.595 -1.1415  0.8924 -0.4667
  153SAPE  C21017005   3.037   5.534   9.625  0.3565  0.3386  0.1806
  153SAPE  H10R17006   3.093   5.583   9.707  0.5462  0.8281 -0.2366
  153SAPE  H10S17007   3.028   5.623   9.559  3.7883  0.3587 -0.4664
  153SAPE  C21117008   3.134   5.440   9.556  0.1969  0.0507 -0.4168
  153SAPE  H11R17009   3.182   5.364   9.620  0.2567 -0.2898 -0.8597
  153SAPE  C21217010   3.163   5.430   9.430 -0.6084 -0.2437  0.3396
  153SAPE  H12R17011   3.232   5.353   9.393  0.2761  0.7975 -0.2695
  153SAPE  C21317012   3.099   5.511   9.324 -0.2885  0.5868 -0.2846
  153SAPE  H13R17013   3.142   5.613   9.331 -0.2709  0.5119  0.9470
  153SAPE  H13S17014   2.990   5.505   9.345 -0.0471 -1.5634  0.6781
  153SAPE  C21417015   3.121   5.461   9.187 -0.5148 -0.5581  0.4104
  153SAPE  H14R17016   3.077   5.362   9.169  0.9536 -1.0362 -0.8083
  153SAPE  C21517017   3.178   5.527   9.085  0.0794  0.1601 -0.2234
  153SAPE  H15R17018   3.202   5.466   8.997  0.5781  0.9110 -0.6157
  153SAPE  C21617019   3.247   5.659   9.076  0.7555  0.7765 -0.1043
  153SAPE  H16R17020   3.250   5.727   9.164 -2.4083  1.2723 -0.2712
  153SAPE  H16S17021   3.181   5.711   9.003  0.6459  1.7911  0.6917
  153SAPE  C21717022   3.392   5.653   9.016  0.2883 -0.1059 -1.0072
  153SAPE  H17R17023   3.369   5.597   8.923 -0.5510 -1.2977 -0.1115
  153SAPE  H17S17024   3.462   5.605   9.087  0.2758  0.1222 -0.8391
  153SAPE  C21817025   3.437   5.797   8.978  0.5518 -0.8642  0.3720
  153SAPE  H18R17026   3.424   5.867   9.063 -1.2127 -0.3487 -0.2854
  153SAPE  H18S17027   3.356   5.833   8.912 -0.1965 -1.0619  1.1663
  153SAPE  C21917028   3.574   5.806   8.912 -0.6367 -0.1947 -0.0980
  153SAPE  H19R17029   3.565   5.745   8.820 -0.4368 -0.6087  0.1573
  153SAPE  H19S17030   3.644   5.755   8.981  0.2977  1.2505  0.0788
  153SAPE  C22017031   3.623   5.948   8.888  0.1677  0.4414  0.2523
  153SAPE  H20R17032   3.603   6.020   8.970 -0.5699  1.2635 -0.6187
  153SAPE  H20S17033   3.577   5.985   8.793 -1.3571  0.0723  0.8098
  153SAPE  H20T17034   3.732   5.960   8.870 -0.2485  1.7359 -1.8382
  153SAPE   C3317035   2.779   6.518  10.297  0.2926  0.2032 -0.0203
  153SAPE   H3X17036   2.876   6.467  10.314 -0.1970 -0.5346  0.6262
  153SAPE   H3Y17037   2.781   6.597  10.376 -0.1821  1.2708 -1.0424
  153SAPE   C3417038   2.775   6.570  10.153  0.0602 -0.3428  0.2004
  153SAPE   H4X17039   2.855   6.646  10.139 -0.6957  0.0449 -2.5038
  153SAPE   H4Y17040   2.673   6.603  10.126  0.2631 -0.6929 -1.0593
  153SAPE   C3517041   2.802   6.458  10.050 -0.0515  0.4611 -0.2065
  153SAPE   H5X17042   2.716   6.388  10.045  0.0911  0.2683  0.0113
  153SAPE   H5Y17043   2.881   6.399  10.101  0.4804  0.7101 -0.7277
  153SAPE   C3617044   2.851   6.512   9.920 -0.7313 -0.4817  0.2567
  153SAPE   H6X17045   2.913   6.434   9.871  2.9816  1.5091  1.3916
  153SAPE   H6Y17046   2.913   6.604   9.932 -0.3708 -0.4171 -1.7496
  153SAPE   C3717047   2.742   6.545   9.825 -0.4826  0.5400  0.4631
  153SAPE   H7X17048   2.670   6.611   9.879 -1.2571  0.5047 -0.5019
  153SAPE   H7Y17049   2.688   6.450   9.812  1.9415 -0.7824 -0.6149
  153SAPE   C3817050   2.771   6.612   9.697 -0.3093 -0.5835  0.0925
  153SAPE   H8X17051   2.837   6.545   9.636  1.5825  1.4939 -0.2614
  153SAPE   H8Y17052   2.834   6.701   9.714  1.0440 -1.4483 -0.2111
  153SAPE   C3917053   2.631   6.648   9.637 -0.8386  0.4014  1.3150
  153SAPE   H9X17054   2.586   6.720   9.708 -1.5637  0.2358  1.0318
  153SAPE   H9Y17055   2.565   6.559   9.634 -0.2194 -0.0369  0.3576
  153SAPE  C31017056   2.648   6.717   9.499 -0.0120 -0.6907 -0.3748
  153SAPE  H10X17057   2.712   6.806   9.512  0.2186 -0.9095  0.0209
  153SAPE  H10Y17058   2.546   6.746   9.466  0.1768  0.1987 -0.2015
  153SAPE  C31117059   2.686   6.615   9.393  0.6255  0.8673  0.4192
  153SAPE  H11X17060   2.615   6.529   9.398 -0.4787  1.8309  2.2253
  153SAPE  H11Y17061   2.789   6.581   9.415  1.0928  0.9318 -1.5074
  153SAPE  C31217062   2.688   6.679   9.251 -0.0233 -0.0482  0.4151
  153SAPE  H12X17063   2.738   6.777   9.265  1.4871 -0.4219 -1.7393
  153SAPE  H12Y17064   2.589   6.716   9.218  0.6280  2.4570  1.0405
  153SAPE  C31317065   2.748   6.605   9.131 -0.0221  0.3189  0.5041
  153SAPE  H13X17066   2.709   6.662   9.044  0.1518  1.2733  1.0339
  153SAPE  H13Y17067   2.701   6.506   9.118  0.4695  0.3231 -1.6132
  153SAPE  C31417068   2.902   6.591   9.137  0.0489  0.3523 -0.4078
  153SAPE  H14X17069   2.932   6.550   9.235 -0.6404  0.4908 -0.1374
  153SAPE  H14Y17070   2.935   6.697   9.133  0.7334  0.1502 -0.2907
  153SAPE  C31517071   2.974   6.530   9.018 -0.1479 -0.5842 -0.7555
  153SAPE  H15X17072   2.928   6.430   9.011 -1.9196 -0.1366  2.4661
  153SAPE  H15Y17073   3.084   6.523   9.031 -0.1587 -3.2213 -1.4689
  153SAPE  C31617074   2.948   6.608   8.889 -0.0349  0.7369 -0.4375
  153SAPE  H16X17075   3.003   6.703   8.910 -2.0082  1.5191  1.5041
  153SAPE  H16Y17076   2.840   6.626   8.873 -0.7954 -1.6536  1.5096
  153SAPE  C31717077   3.014   6.555   8.766  0.0883  0.1295 -0.3122
  153SAPE  H17X17078   2.978   6.452   8.742 -0.7896  0.5574 -0.8843
  153SAPE  H17Y17079   3.123   6.539   8.781  0.0390 -1.5697 -1.4448
  153SAPE  C31817080   2.987   6.639   8.641  0.1087  0.0628 -0.6941
  153SAPE  H18X17081   3.048   6.602   8.556  0.9505 -0.8266  0.2786
  153SAPE  H18Y17082   3.000   6.746   8.665 -1.1898  0.3436 -1.1271
  153SAPE  H18Z17083   2.879   6.635   8.611  0.5248 -0.6331 -2.2413
  154SAPE     N17084   6.325   6.400  11.359 -0.1163  0.4065  0.3220
  154SAPE   HN117085   6.368   6.307  11.341 -0.2521  0.4472 -0.2485
  154SAPE   HN217086   6.308   6.456  11.273 -0.3349  2.7831  1.8542
  154SAPE   HN317087   6.396   6.460  11.405 -0.0050 -0.0226  0.7151
  154SAPE   C1217088   6.184   6.395  11.421 -0.5413  0.4356 -0.2662
  154SAPE  H12A17089   6.155   6.496  11.456  1.9328  0.7314  1.1318
  154SAPE  H12B17090   6.206   6.336  11.513 -1.4705  0.2291 -0.1685
  154SAPE   C1117091   6.093   6.317  11.328  0.0172 -0.5674  0.1580
  154SAPE  H11A17092   5.995   6.303  11.378  0.1588  1.2117  1.0217
  154SAPE  H11B17093   6.139   6.217  11.314  0.4950 -0.2977 -0.2442
  154SAPE     P17094   5.965   6.362  11.094  0.1952  0.2800 -0.3506
  154SAPE   O1317095   5.840   6.338  11.161 -0.2145  0.3597  0.0240
  154SAPE   O1417096   5.962   6.463  10.988 -0.7344  0.2478 -0.7581
  154SAPE   O1217097   6.076   6.398  11.209  0.4374  0.1527 -0.2828
  154SAPE   O1117098   6.039   6.230  11.039 -0.0485 -0.0874  0.3659
  154SAPE    C117099   5.963   6.109  11.019  0.0693  0.5203  0.4712
  154SAPE    HA17100   6.006   6.033  11.087  2.3379  1.7478  0.4869
  154SAPE    HB17101   5.855   6.104  11.045  0.1115 -1.6328  0.4516
  154SAPE    C217102   5.974   6.072  10.869 -0.0594 -0.1880  0.9742
  154SAPE    HS17103   5.914   5.985  10.834  1.3887 -1.1079  0.7028
  154SAPE   O2117104   6.110   6.041  10.842  0.3058 -0.3533 -0.2247
  154SAPE   C2117105   6.148   5.916  10.870  0.9780  0.3460  0.7493
  154SAPE   O2217106   6.073   5.835  10.927 -0.8299  0.2058  0.4512
  154SAPE   C2217107   6.297   5.900  10.842 -0.2080 -0.1026  0.4352
  154SAPE   H2R17108   6.331   5.980  10.773  1.8481 -1.5593 -0.3436
  154SAPE   H2S17109   6.352   5.897  10.939  1.0763  2.3064 -0.1467
  154SAPE    C317110   5.924   6.188  10.773 -0.4722  0.6991  0.0099
  154SAPE    HX17111   5.974   6.286  10.790 -1.8147  1.0450  2.5059
  154SAPE    HY17112   5.817   6.195  10.804 -0.3274  1.8346  0.2997
  154SAPE   O3117113   5.930   6.153  10.635  0.0998 -0.4029  0.5887
  154SAPE   C3117114   5.877   6.245  10.555  0.7469  0.7483  0.0335
  154SAPE   O3217115   5.839   6.355  10.579 -0.2966 -0.0512 -0.4157
  154SAPE   C3217116   5.851   6.189  10.421 -0.7309 -0.0572  0.4025
  154SAPE   H2X17117   5.742   6.171  10.406 -0.9431  1.7370 -0.3804
  154SAPE   H2Y17118   5.909   6.094  10.413  0.0848  0.5604 -1.5415
  154SAPE   C2317119   6.335   5.763  10.773  0.3756 -0.4195 -0.5677
  154SAPE   H3R17120   6.298   5.674  10.827 -1.9416 -0.4755 -2.0888
  154SAPE   H3S17121   6.446   5.762  10.774  0.4627  2.1045  1.1973
  154SAPE   C2417122   6.313   5.755  10.623  0.3436  0.8052  0.3308
  154SAPE   H4R17123   6.394   5.691  10.582  0.7808  2.1563 -0.9721
  154SAPE   H4S17124   6.327   5.863  10.602 -0.6322  1.0545  0.8838
  154SAPE   C2517125   6.179   5.703  10.568  0.1716 -0.2394 -0.2117
  154SAPE   H5R17126   6.101   5.663  10.635 -1.2664  3.0258  0.2223
  154SAPE   C2617127   6.140   5.741  10.442  0.2614 -0.3724 -0.2421
  154SAPE   H6R17128   6.057   5.682  10.400 -1.4111  1.5884  0.1499
  154SAPE   C2717129   6.218   5.818  10.342 -0.2393 -0.0791  0.3527
  154SAPE   H7R17130   6.214   5.765  10.245  0.1879 -0.5525  0.5894
  154SAPE   H7S17131   6.325   5.816  10.372  0.4831 -0.5926 -2.0682
  154SAPE   C2817132   6.169   5.963  10.336  0.2060 -0.1863 -0.0163
  154SAPE   H8R17133   6.121   5.995  10.430 -2.0330  2.7399 -1.9968
  154SAPE   C2917134   6.185   6.046  10.237 -0.0446 -0.3114  0.2161
  154SAPE   H9R17135   6.129   6.141  10.242  1.5919  0.6878  0.4493
  154SAPE  C21017136   6.257   6.009  10.110 -0.6073 -0.5434 -0.2562
  154SAPE  H10R17137   6.223   5.911  10.072 -0.4126  0.1006 -2.1733
  154SAPE  H10S17138   6.366   5.997  10.130 -0.6251 -0.5169 -0.1358
  154SAPE  C21117139   6.243   6.121  10.004 -0.4234 -0.6325 -0.2847
  154SAPE  H11R17140   6.205   6.214  10.047  1.8638 -0.2194  1.0082
  154SAPE  C21217141   6.273   6.109   9.869  0.5933  0.1130 -0.0219
  154SAPE  H12R17142   6.265   6.196   9.803 -2.8073 -1.4245 -1.8720
  154SAPE  C21317143   6.327   5.989   9.802 -0.5732  0.3220 -0.0492
  154SAPE  H13R17144   6.240   5.952   9.745 -0.5160  0.0552  0.0383
  154SAPE  H13S17145   6.359   5.914   9.877  0.6853  0.1620 -0.7232
  154SAPE  C21417146   6.440   6.021   9.702  0.2823 -0.8008 -0.5577
  154SAPE  H14R17147   6.540   6.041   9.744 -0.2265  0.5651  0.0461
  154SAPE  C21517148   6.441   6.011   9.567  1.1731 -0.0614 -0.6276
  154SAPE  H15R17149   6.534   6.030   9.512  0.2219  0.9442 -1.9566
  154SAPE  C21617150   6.324   5.966   9.484 -0.0690 -0.4148 -0.3626
  154SAPE  H16R17151   6.227   5.980   9.537 -0.4085  1.9339 -1.4811
  154SAPE  H16S17152   6.340   5.857   9.470  0.4007 -0.1222 -2.2826
  154SAPE  C21717153   6.290   6.038   9.352  0.4282 -0.3836 -0.2749
  154SAPE  H17R17154   6.268   6.144   9.378 -0.3392 -1.0422  2.0257
  154SAPE  H17S17155   6.194   5.989   9.325  0.4120 -0.7238  0.3681
  154SAPE  C21817156   6.375   6.018   9.228 -0.9984 -0.1443 -0.1018
  154SAPE  H18R17157   6.471   6.070   9.247 -1.2514  1.0410 -1.7631
  154SAPE  H18S17158   6.350   6.078   9.137 -3.4904 -0.3075  0.4030
  154SAPE  C21917159   6.405   5.876   9.183  0.4871  0.6115 -0.3455
  154SAPE  H19R17160   6.448   5.812   9.263  0.8814  1.2906 -0.0128
  154SAPE  H19S17161   6.463   5.873   9.089 -0.1208  1.6170 -0.7701
  154SAPE  C22017162   6.271   5.798   9.152 -0.1423  0.1871  0.1491
  154SAPE  H20R17163   6.205   5.856   9.084  1.1804  2.1211  0.4108
  154SAPE  H20S17164   6.226   5.790   9.253  1.3719  1.0166  0.9267
  154SAPE  H20T17165   6.303   5.701   9.107 -0.8069  0.0853 -0.1082
  154SAPE   C3317166   5.884   6.285  10.305  0.0110  0.0465 -0.1120
  154SAPE   H3X17167   5.992   6.308  10.314  0.4066 -1.2375 -1.2092
  154SAPE   H3Y17168   5.831   6.383  10.305 -0.7966 -0.3553 -1.5104
  154SAPE   C3417169   5.857   6.220  10.163  0.4593  0.2559 -0.3469
  154SAPE   H4X17170   5.756   6.174  10.162 -0.3026  1.8504 -2.7519
  154SAPE   H4Y17171   5.928   6.136  10.144  0.0890  0.4399 -2.8727
  154SAPE   C3517172   5.859   6.320  10.045  0.6153  0.7748  0.3080
  154SAPE   H5X17173   5.959   6.368  10.043  0.8665  0.2821 -2.6299
  154SAPE   H5Y17174   5.773   6.388  10.068 -0.4247 -0.6671  0.8008
  154SAPE   C3617175   5.859   6.256   9.907 -0.0282  0.2239 -0.2390
  154SAPE   H6X17176   5.776   6.182   9.903  0.0651 -0.0335  1.7039
  154SAPE   H6Y17177   5.954   6.198   9.902 -0.0177  0.2822 -0.8454
  154SAPE   C3717178   5.859   6.348   9.782 -0.1443 -0.5896 -0.4738
  154SAPE   H7X17179   5.942   6.418   9.802  0.1662 -1.6190  2.3189
  154SAPE   H7Y17180   5.764   6.404   9.771 -0.0982 -0.4804 -0.3047
  154SAPE   C3817181   5.868   6.265   9.649 -0.7067  0.3416  0.7980
  154SAPE   H8X17182   5.785   6.193   9.631  0.6273 -1.0232 -0.1038
  154SAPE   H8Y17183   5.963   6.208   9.656 -1.2276 -0.8152 -1.0067
  154SAPE   C3917184   5.883   6.368   9.535  0.0804 -0.1638  0.1442
  154SAPE   H9X17185   5.963   6.443   9.555  1.0146 -1.0184 -0.2930
  154SAPE   H9Y17186   5.787   6.419   9.514 -0.3717 -0.9173  0.3484
  154SAPE  C31017187   5.935   6.298   9.409 -0.4031  0.1956  0.0569
  154SAPE  H10X17188   6.021   6.235   9.440 -1.2361 -0.1820  1.6906
  154SAPE  H10Y17189   5.987   6.366   9.338 -1.2195 -1.0370 -1.8075
  154SAPE  C31117190   5.824   6.223   9.341 -0.2363 -0.2354  0.1880
  154SAPE  H11X17191   5.724   6.272   9.348  0.2045  0.5001  1.6579
  154SAPE  H11Y17192   5.813   6.127   9.396 -1.6409 -0.4569 -0.4421
  154SAPE  C31217193   5.849   6.204   9.189  0.5014  0.0112  0.2176
  154SAPE  H12X17194   5.834   6.296   9.129 -0.2098 -0.7976 -0.8793
  154SAPE  H12Y17195   5.761   6.146   9.156 -0.7374  1.9514 -0.0341
  154SAPE  C31317196   5.987   6.136   9.149  0.9027  0.6714  0.6930
  154SAPE  H13X17197   5.982   6.028   9.174 -1.9914  0.3366 -0.8924
  154SAPE  H13Y17198   6.073   6.190   9.193 -0.2908  1.4705  2.1379
  154SAPE  C31417199   6.010   6.145   8.998  0.4133 -0.0125 -0.3842
  154SAPE  H14X17200   5.972   6.244   8.966 -1.1545 -0.6704 -0.6402
  154SAPE  H14Y17201   5.943   6.085   8.932  0.1979 -1.9663  1.5186
  154SAPE  C31517202   6.157   6.133   8.946  0.2076 -0.6776 -0.6337
  154SAPE  H15X17203   6.200   6.034   8.973  2.4688  1.2312  3.7353
  154SAPE  H15Y17204   6.219   6.208   8.999  0.8470 -2.7333  1.7007
  154SAPE  C31617205   6.161   6.146   8.795  0.5587  0.2816 -0.1028
  154SAPE  H16X17206   6.089   6.225   8.766 -0.6292  0.0713  2.0934
  154SAPE  H16Y17207   6.121   6.058   8.741 -1.8661  1.6504 -0.6671
  154SAPE  C31717208   6.293   6.199   8.736  0.5716 -0.1417 -0.4534
  154SAPE  H17X17209   6.294   6.175   8.627  2.5587  1.3652 -0.8202
  154SAPE  H17Y17210   6.379   6.142   8.778  0.9225  0.0864 -0.8590
  154SAPE  C31817211   6.316   6.349   8.762  0.5770  0.5071 -0.1947
  154SAPE  H18X17212   6.424   6.370   8.781  0.3291  0.8608  0.9180
  154SAPE  H18Y17213   6.261   6.380   8.854  0.0154 -0.2940 -0.2530
  154SAPE  H18Z17214   6.281   6.410   8.676 -0.2034  1.6383  0.8847
  155SAPE     N17215   0.769   5.454  10.837 -0.1236 -0.1861 -0.4780
  155SAPE   HN117216   0.736   5.410  10.749  4.4230 -1.7107 -1.7159
  155SAPE   HN217217   0.870   5.467  10.815  0.7474 -2.5998  1.5980
  155SAPE   HN317218   0.765   5.382  10.912  2.2081 -0.1534 -0.2522
  155SAPE   C1217219   0.709   5.580  10.886 -0.0096  0.1527 -0.8763
  155SAPE  H12A17220   0.745   5.607  10.987 -2.3682 -1.1913  0.3968
  155SAPE  H12B17221   0.601   5.559  10.903 -0.3900 -0.3355 -3.4720
  155SAPE   C1117222   0.733   5.696  10.783  0.0074  0.2258  0.4925
  155SAPE  H11A17223   0.678   5.788  10.813 -0.8162 -0.1762  0.2304
  155SAPE  H11B17224   0.675   5.664  10.694  1.1626 -0.0179 -0.1998
  155SAPE     P17225   0.951   5.825  10.844 -0.1794  0.2831 -0.2405
  155SAPE   O1317226   0.882   5.854  10.971 -0.0453  0.3998 -0.0719
  155SAPE   O1417227   1.088   5.783  10.850  0.0121 -0.6948  0.1987
  155SAPE   O1217228   0.866   5.716  10.756  0.5043  0.3574 -0.1804
  155SAPE   O1117229   0.940   5.949  10.743 -0.6088 -0.1878  0.4958
  155SAPE    C117230   1.008   5.945  10.617 -0.3240  0.7134  0.6881
  155SAPE    HA17231   1.097   5.878  10.622 -1.1325 -0.8775 -2.8019
  155SAPE    HB17232   0.940   5.909  10.536  0.1822  2.8513 -0.7651
  155SAPE    C217233   1.070   6.073  10.575 -0.2172  1.1670 -0.0324
  155SAPE    HS17234   1.139   6.121  10.648  0.2375  0.7613 -0.1950
  155SAPE   O2117235   0.959   6.166  10.543  0.1570  0.8758  0.4340
  155SAPE   C2117236   0.999   6.286  10.503  0.1598  0.6061 -0.9556
  155SAPE   O2217237   1.109   6.336  10.516 -0.4032 -0.5016  0.6644
  155SAPE   C2217238   0.881   6.348  10.437  0.1046 -0.3980  0.0676
  155SAPE   H2R17239   0.782   6.331  10.485  0.1292  2.4103  1.2485
  155SAPE   H2S17240   0.905   6.456  10.428  0.5199 -0.5275 -0.4532
  155SAPE    C317241   1.154   6.046  10.444  0.2222  0.1895  0.4279
  155SAPE    HX17242   1.225   5.965  10.473 -1.7258 -1.5909  0.5151
  155SAPE    HY17243   1.205   6.142  10.420  0.4496  0.2137  0.9915
  155SAPE   O3117244   1.069   6.004  10.332  1.1577  0.4422 -0.2954
  155SAPE   C3117245   1.114   6.027  10.201 -0.1116 -0.1233 -0.0647
  155SAPE   O3217246   1.225   6.073  10.187 -0.5011 -0.0499 -0.1698
  155SAPE   C3217247   0.999   5.996  10.102  0.6327  0.6500  0.2665
  155SAPE   H2X17248   0.924   6.077  10.116 -0.0123  0.0192  0.5897
  155SAPE   H2Y17249   0.957   5.894  10.120 -2.1443  1.0367 -3.0429
  155SAPE   C2317250   0.887   6.304  10.279 -0.2280 -0.0546 -0.2931
  155SAPE   H3R17251   0.838   6.205  10.274  0.4861 -0.4826  0.9109
  155SAPE   H3S17252   0.996   6.303  10.258  0.3204  0.8905  2.2349
  155SAPE   C2417253   0.826   6.412  10.189  0.8520  0.1878  0.1749
  155SAPE   H4R17254   0.897   6.498  10.181  0.8806 -0.0030 -2.2521
  155SAPE   H4S17255   0.730   6.446  10.234  0.1543  1.0592 -1.8559
  155SAPE   C2517256   0.790   6.363  10.054  0.6791  0.5603 -0.6897
  155SAPE   H5R17257   0.689   6.321  10.045  1.2927 -1.2404  0.3364
  155SAPE   C2617258   0.865   6.365   9.945 -0.2425 -0.3776  0.3175
  155SAPE   H6R17259   0.816   6.338   9.850  0.4977 -0.3383 -0.0892
  155SAPE   C2717260   1.005   6.428   9.934  0.0790  0.0205 -0.1185
  155SAPE   H7R17261   1.062   6.424  10.029 -0.0315  2.7026  0.1497
  155SAPE   H7S17262   0.985   6.529   9.893 -0.1728  0.3291  0.7395
  155SAPE   C2817263   1.082   6.353   9.826 -0.8167 -0.4131  0.8307
  155SAPE   H8R17264   1.022   6.329   9.737  0.3332  0.9074 -0.3600
  155SAPE   C2917265   1.211   6.308   9.825  0.3576  0.3948 -0.5931
  155SAPE   H9R17266   1.237   6.241   9.742 -1.2210 -2.4959  1.0698
  155SAPE  C21017267   1.303   6.326   9.944  0.4312 -0.4690  0.0792
  155SAPE  H10R17268   1.254   6.349  10.041 -0.3665 -0.1157 -0.4007
  155SAPE  H10S17269   1.353   6.416   9.903 -1.0223 -0.6541 -2.2187
  155SAPE  C21117270   1.406   6.215   9.958  0.3356 -0.0351  0.4328
  155SAPE  H11R17271   1.379   6.122  10.010  0.7109  0.5367  1.6962
  155SAPE  C21217272   1.537   6.228   9.929  0.1127 -0.4188  0.2487
  155SAPE  H12R17273   1.597   6.138   9.950  3.2819  1.4560 -0.0053
  155SAPE  C21317274   1.609   6.357   9.874  0.4552  0.5366 -0.5651
  155SAPE  H13R17275   1.646   6.417   9.960 -0.4686  0.1323  0.1381
  155SAPE  H13S17276   1.548   6.424   9.810 -1.6789 -0.0868  0.7124
  155SAPE  C21417277   1.736   6.316   9.806 -0.3530  1.0549 -0.8661
  155SAPE  H14R17278   1.830   6.349   9.852 -2.4325  4.2795  1.4892
  155SAPE  C21517279   1.733   6.258   9.684  0.0194 -0.2127 -0.5941
  155SAPE  H15R17280   1.830   6.235   9.637 -0.5967 -2.3458 -0.8955
  155SAPE  C21617281   1.607   6.227   9.601 -0.6037  0.2600  0.0368
  155SAPE  H16R17282   1.537   6.312   9.614  0.1197  0.9526 -0.5119
  155SAPE  H16S17283   1.563   6.130   9.633 -2.1208  0.2453 -1.9632
  155SAPE  C21717284   1.641   6.220   9.447 -0.0939 -0.6029  0.6092
  155SAPE  H17R17285   1.557   6.176   9.389 -2.0252  1.5489  1.6221
  155SAPE  H17S17286   1.738   6.174   9.418 -0.1430  0.9390 -2.5020
  155SAPE  C21817287   1.652   6.366   9.394 -0.1024 -0.5808 -1.0012
  155SAPE  H18R17288   1.734   6.415   9.452 -0.2306 -0.8360 -0.6043
  155SAPE  H18S17289   1.559   6.422   9.417  0.5832 -0.2376  1.1775
  155SAPE  C21917290   1.690   6.390   9.250 -0.4416  0.2308 -1.3448
  155SAPE  H19R17291   1.769   6.316   9.225 -1.3727 -1.4841  0.5316
  155SAPE  H19S17292   1.732   6.492   9.235  1.6805  0.3067  3.2623
  155SAPE  C22017293   1.567   6.363   9.163 -0.7394  0.1997  0.2997
  155SAPE  H20R17294   1.525   6.262   9.184 -1.6150  0.3489 -0.6463
  155SAPE  H20S17295   1.605   6.374   9.059  1.3192 -1.5848  0.8092
  155SAPE  H20T17296   1.479   6.427   9.185  0.7236  1.8954  1.4899
  155SAPE   C3317297   1.050   5.992   9.959 -0.3212  0.4616  0.2271
  155SAPE   H3X17298   1.111   5.902   9.938 -0.5975  0.4622 -0.6094
  155SAPE   H3Y17299   1.109   6.080   9.926 -0.9733  0.2896 -1.4891
  155SAPE   C3417300   0.922   5.968   9.862 -0.5909 -0.3417  0.0531
  155SAPE   H4X17301   0.858   6.059   9.861 -2.1644 -1.3936 -1.0627
  155SAPE   H4Y17302   0.856   5.888   9.903  1.0310 -1.6134  0.2455
  155SAPE   C3517303   0.958   5.927   9.723  0.0293 -0.3667 -0.1359
  155SAPE   H5X17304   0.871   5.926   9.654 -0.3204  1.0227  0.2383
  155SAPE   H5Y17305   1.017   5.834   9.731  0.8389  0.3021  3.2062
  155SAPE   C3617306   1.060   6.017   9.647  0.5626  0.3227 -0.2703
  155SAPE   H6X17307   1.153   6.015   9.708 -0.3266 -0.9945  1.1214
  155SAPE   H6Y17308   1.024   6.121   9.633  1.0673  0.4806 -0.4245
  155SAPE   C3717309   1.087   5.963   9.501  0.4849  0.2199 -0.1654
  155SAPE   H7X17310   1.119   5.857   9.505  0.2900 -0.2003 -4.5654
  155SAPE   H7Y17311   1.174   6.025   9.472  0.6395 -0.3030 -0.8321
  155SAPE   C3817312   0.983   5.977   9.397  0.2497  0.4091 -0.9134
  155SAPE   H8X17313   0.948   6.082   9.387  1.1889  0.6174 -2.1940
  155SAPE   H8Y17314   0.897   5.907   9.407  0.4812  0.0870 -1.1722
  155SAPE   C3917315   1.052   5.939   9.256 -0.6282  0.0758 -1.4885
  155SAPE   H9X17316   1.103   5.840   9.268 -0.8759  0.0179 -0.8399
  155SAPE   H9Y17317   1.126   6.017   9.231  0.0977 -0.4454 -1.0307
  155SAPE  C31017318   0.947   5.924   9.141  0.0379 -1.5089 -0.1120
  155SAPE  H10X17319   0.883   6.014   9.133 -0.0817 -1.3327  2.1432
  155SAPE  H10Y17320   0.883   5.833   9.151 -2.3977 -0.0820 -1.5750
  155SAPE  C31117321   1.016   5.904   9.002  0.6119 -0.0262 -0.3093
  155SAPE  H11X17322   1.068   5.806   8.998 -0.0018 -0.2942 -2.4701
  155SAPE  H11Y17323   1.090   5.981   8.971  1.8094 -2.2278 -3.4258
  155SAPE  C31217324   0.916   5.884   8.886 -1.4596 -0.4723 -0.4446
  155SAPE  H12X17325   0.837   5.962   8.886 -0.5236  0.4994  0.3256
  155SAPE  H12Y17326   0.850   5.796   8.898 -1.4301 -0.3186  0.9701
  155SAPE  C31317327   0.995   5.870   8.759 -0.2618 -0.2778  0.0969
  155SAPE  H13X17328   1.087   5.809   8.775  0.1853 -0.0164 -1.3257
  155SAPE  H13Y17329   1.017   5.972   8.721  0.3444  0.8152  3.0985
  155SAPE  C31417330   0.908   5.797   8.658 -0.1891 -0.7284 -0.2525
  155SAPE  H14X17331   0.811   5.852   8.667  1.1969  1.9272 -0.4453
  155SAPE  H14Y17332   0.888   5.694   8.694 -0.4319 -0.4259  0.5022
  155SAPE  C31517333   0.958   5.777   8.515 -0.2930  0.3131  0.2271
  155SAPE  H15X17334   0.962   5.878   8.468 -2.1241 -0.2200 -1.2258
  155SAPE  H15Y17335   0.882   5.724   8.453 -0.5372  0.7271  0.1676
  155SAPE  C31617336   1.093   5.696   8.506  0.5938 -0.5431  0.2019
  155SAPE  H16X17337   1.068   5.599   8.554  0.2072 -1.6957 -2.1940
  155SAPE  H16Y17338   1.173   5.740   8.571  0.8202 -1.7399  0.7680
  155SAPE  C31717339   1.156   5.681   8.364 -0.2151  0.3344 -0.7753
  155SAPE  H17X17340   1.187   5.782   8.329  1.0043  0.7436  1.2852
  155SAPE  H17Y17341   1.086   5.657   8.281 -1.1534  0.9642 -0.1844
  155SAPE  C31817342   1.276   5.574   8.352  0.3233 -0.0210  0.0677
  155SAPE  H18X17343   1.296   5.557   8.244 -0.0031  3.2458 -0.6013
  155SAPE  H18Y17344   1.244   5.479   8.401 -0.3594  0.0571 -0.2254
  155SAPE  H18Z17345   1.356   5.630   8.405 -0.5087  0.6924  0.5820
  156SAPE     N17346   4.668   3.617  10.942  0.4241 -0.7690 -0.1230
  156SAPE   HN117347   4.578   3.645  10.897  0.9940 -1.5566 -1.8330
  156SAPE   HN217348   4.661   3.516  10.966 -1.3609 -0.5060  0.6640
  156SAPE   HN317349   4.688   3.675  11.026  1.5833  1.6184 -1.9176
  156SAPE   C1217350   4.770   3.643  10.831  0.4484 -0.6623 -0.4427
  156SAPE  H12A17351   4.867   3.609  10.874  0.5364  1.3830  1.1282
  156SAPE  H12B17352   4.763   3.750  10.805  1.3092  0.1245  2.2153
  156SAPE   C1117353   4.730   3.563  10.704  0.4144 -0.0349  0.0937
  156SAPE  H11A17354   4.743   3.453  10.719  0.2467 -0.4192 -2.1890
  156SAPE  H11B17355   4.798   3.591  10.621  0.5809 -2.2683 -0.6029
  156SAPE     P17356   4.536   3.736  10.634  0.1980 -0.4407  0.1754
  156SAPE   O1317357   4.456   3.727  10.513  0.4849 -0.0082 -0.1501
  156SAPE   O1417358   4.463   3.792  10.745  0.6562 -0.0302  0.0914
  156SAPE   O1217359   4.594   3.597  10.670  0.2843 -0.1425 -0.1564
  156SAPE   O1117360   4.666   3.830  10.610  0.3275  0.2647  0.0152
  156SAPE    C117361   4.729   3.805  10.480  0.8441  0.1981  0.4020
  156SAPE    HA17362   4.748   3.699  10.456  0.3521  0.2564 -0.2588
  156SAPE    HB17363   4.655   3.840  10.405 -0.6029 -0.4687  1.4668
  156SAPE    C217364   4.847   3.888  10.465  0.7739 -0.2931  0.2612
  156SAPE    HS17365   4.906   3.858  10.554 -0.5343 -0.9390  0.9536
  156SAPE   O2117366   4.809   4.030  10.483 -0.0706  0.2098 -0.1993
  156SAPE   C2117367   4.907   4.115  10.477  0.3535 -0.3291  0.3101
  156SAPE   O2217368   5.021   4.097  10.438  0.0104  0.6399 -0.2215
  156SAPE   C2217369   4.841   4.261  10.492  0.3316  1.3932  0.0335
  156SAPE   H2R17370   4.782   4.264  10.398  1.8311 -0.3744 -1.0500
  156SAPE   H2S17371   4.790   4.255  10.590  0.0952 -0.2902 -0.1639
  156SAPE    C317372   4.909   3.856  10.327  0.4297  0.5375  0.7840
  156SAPE    HX17373   5.007   3.907  10.315  1.4712 -1.5316 -0.0134
  156SAPE    HY17374   4.855   3.904  10.242  2.1794  3.0285  0.9733
  156SAPE   O3117375   4.926   3.711  10.303 -0.0392  0.2612 -0.5972
  156SAPE   C3117376   5.043   3.652  10.333  0.2282  0.2198 -0.2281
  156SAPE   O3217377   5.140   3.705  10.383  0.0192 -0.2309 -0.5704
  156SAPE   C3217378   5.035   3.503  10.291  0.5422 -0.3181  0.2176
  156SAPE   H2X17379   4.940   3.465  10.334  0.3532  0.0003  0.0883
  156SAPE   H2Y17380   5.124   3.455  10.337  0.0839 -1.8976 -0.4961
  156SAPE   C2317381   4.949   4.370  10.512  0.0208  0.5945 -0.4276
  156SAPE   H3R17382   5.026   4.337  10.584 -1.8453 -1.5013  0.7252
  156SAPE   H3S17383   4.894   4.453  10.562 -1.2601 -1.5218  1.9017
  156SAPE   C2417384   5.018   4.419  10.384 -0.3096 -0.1853 -0.0235
  156SAPE   H4R17385   5.062   4.324  10.348 -0.1326 -0.6941  1.4481
  156SAPE   H4S17386   5.102   4.485  10.415  0.3636 -0.5123 -1.0776
  156SAPE   C2517387   4.932   4.485  10.278  0.3818  0.2544 -0.1333
  156SAPE   H5R17388   4.907   4.590  10.297  1.0265  0.7279 -1.7545
  156SAPE   C2617389   4.888   4.422  10.169  0.3125 -0.8987  0.6445
  156SAPE   H6R17390   4.837   4.476  10.088  1.0875 -3.0117 -1.3711
  156SAPE   C2717391   4.921   4.278  10.138  0.3443  0.5635  0.3637
  156SAPE   H7R17392   4.858   4.216  10.205 -1.0946 -0.5125 -1.8285
  156SAPE   H7S17393   5.028   4.254  10.158 -0.8072 -3.7463  2.5536
  156SAPE   C2817394   4.901   4.235   9.991 -0.7914 -0.5214 -0.4946
  156SAPE   H8R17395   4.835   4.301   9.933  0.1935  0.0932 -0.9355
  156SAPE   C2917396   4.956   4.117   9.941  0.3848 -0.6069  0.2739
  156SAPE   H9R17397   4.932   4.084   9.839  0.8192  0.2901 -0.1329
  156SAPE  C21017398   5.028   4.005  10.017  0.5154 -1.2230 -0.2885
  156SAPE  H10R17399   4.990   3.902   9.996 -0.5406 -0.8676 -0.1558
  156SAPE  H10S17400   5.008   4.030  10.123  0.9557  1.8251 -0.8459
  156SAPE  C21117401   5.177   4.006   9.983  0.0611 -0.2865  0.0472
  156SAPE  H11R17402   5.243   4.039  10.065 -1.9278  0.7466  1.3110
  156SAPE  C21217403   5.236   3.983   9.864 -0.1053 -0.4271 -0.0731
  156SAPE  H12R17404   5.346   3.975   9.864 -0.0100  0.4542  1.8169
  156SAPE  C21317405   5.175   3.946   9.730 -0.2110 -0.6588 -0.2924
  156SAPE  H13R17406   5.076   3.899   9.752 -1.9302  1.9739 -1.8456
  156SAPE  H13S17407   5.234   3.859   9.695 -0.1294 -1.3591  1.4918
  156SAPE  C21417408   5.141   4.062   9.628  0.6461  0.4574  0.7265
  156SAPE  H14R17409   5.106   4.152   9.682 -0.5031  0.3960  0.1256
  156SAPE  C21517410   5.163   4.056   9.497  0.3338 -0.4865  0.2493
  156SAPE  H15R17411   5.161   4.149   9.439 -1.4651 -0.7786 -0.2035
  156SAPE  C21617412   5.225   3.945   9.427 -0.2397 -0.0123 -0.3204
  156SAPE  H16R17413   5.148   3.893   9.365  0.2390 -2.4125  0.9951
  156SAPE  H16S17414   5.280   3.867   9.484  0.9881  0.3325 -1.0033
  156SAPE  C21717415   5.339   3.998   9.340  0.5736 -0.1464 -0.0949
  156SAPE  H17R17416   5.383   3.908   9.293  0.3370  0.0576 -0.7192
  156SAPE  H17S17417   5.421   4.051   9.393  0.5999  2.5551 -2.6106
  156SAPE  C21817418   5.296   4.109   9.239 -0.2838 -0.2587  0.1816
  156SAPE  H18R17419   5.273   4.201   9.297  0.8039 -0.6533  1.2559
  156SAPE  H18S17420   5.200   4.081   9.189  0.0895 -2.3238  0.5499
  156SAPE  C21917421   5.410   4.135   9.134 -0.8425  0.4921  0.5052
  156SAPE  H19R17422   5.500   4.152   9.197 -0.9262 -0.5355  0.9244
  156SAPE  H19S17423   5.385   4.227   9.077  0.6465  0.6018 -0.0141
  156SAPE  C22017424   5.431   4.016   9.030 -0.7465 -0.2248 -0.4774
  156SAPE  H20R17425   5.509   4.051   8.959 -1.4623  1.2850 -0.5505
  156SAPE  H20S17426   5.344   3.994   8.966 -0.3777  0.6498 -1.2961
  156SAPE  H20T17427   5.455   3.926   9.090  0.6449  0.4056 -0.0377
  156SAPE   C3317428   5.035   3.488  10.134 -0.0129  0.2479  0.0550
  156SAPE   H3X17429   4.954   3.553  10.093 -0.6860 -0.8176 -0.3349
  156SAPE   H3Y17430   5.016   3.381  10.111  0.9530 -0.4209  2.1312
  156SAPE   C3417431   5.168   3.525  10.063 -0.0070  0.3205  0.6046
  156SAPE   H4X17432   5.249   3.478  10.122 -1.6090 -0.1170  2.5799
  156SAPE   H4Y17433   5.183   3.635  10.064  1.1852  0.2227 -1.5194
  156SAPE   C3517434   5.147   3.483   9.916 -0.3073  0.2490  0.4220
  156SAPE   H5X17435   5.040   3.485   9.884 -0.0485 -0.2097 -0.5147
  156SAPE   H5Y17436   5.171   3.376   9.898  0.5977  0.8689 -2.5713
  156SAPE   C3617437   5.233   3.574   9.817  0.2221  0.1139 -0.9166
  156SAPE   H6X17438   5.325   3.600   9.875  1.8804 -0.6468 -3.0847
  156SAPE   H6Y17439   5.169   3.663   9.800  1.4568  1.5843  1.4506
  156SAPE   C3717440   5.260   3.498   9.686 -0.1604  0.0543 -1.2766
  156SAPE   H7X17441   5.167   3.454   9.642  0.1728 -0.6318 -1.3089
  156SAPE   H7Y17442   5.337   3.420   9.706 -0.4036  0.2733  0.7299
  156SAPE   C3817443   5.297   3.605   9.591 -0.2916  0.0664  0.6478
  156SAPE   H8X17444   5.389   3.657   9.624 -0.9362  1.0900  0.8755
  156SAPE   H8Y17445   5.220   3.682   9.610  0.7060  1.0009  0.9978
  156SAPE   C3917446   5.296   3.566   9.446 -0.1721 -0.4368 -0.4432
  156SAPE   H9X17447   5.294   3.657   9.381  2.1440 -1.0481 -1.4622
  156SAPE   H9Y17448   5.209   3.501   9.422 -0.5722  0.0162 -0.2377
  156SAPE  C31017449   5.417   3.482   9.401  0.0931 -0.0772  0.4629
  156SAPE  H10X17450   5.445   3.410   9.480  3.1611  0.5543  0.0844
  156SAPE  H10Y17451   5.509   3.542   9.384 -0.4262  0.9301  1.0463
  156SAPE  C31117452   5.402   3.394   9.278  0.2094 -0.9616 -0.1502
  156SAPE  H11X17453   5.319   3.321   9.295  2.8226 -4.4584 -1.2219
  156SAPE  H11Y17454   5.492   3.333   9.253  1.8016  1.0964  0.3005
  156SAPE  C31217455   5.370   3.469   9.151 -0.6467  0.4261  0.5316
  156SAPE  H12X17456   5.304   3.557   9.172  0.7266  0.7785  3.9507
  156SAPE  H12Y17457   5.327   3.396   9.079  2.0839 -2.2997  1.4552
  156SAPE  C31317458   5.494   3.543   9.097  0.0020  0.3438 -0.4059
  156SAPE  H13X17459   5.565   3.459   9.084 -1.8315 -1.7429  2.1003
  156SAPE  H13Y17460   5.532   3.613   9.174 -2.1595  0.6837  0.4138
  156SAPE  C31417461   5.471   3.612   8.959 -0.3001 -0.3590  0.2351
  156SAPE  H14X17462   5.562   3.670   8.935 -0.3097 -0.9655 -1.3376
  156SAPE  H14Y17463   5.389   3.685   8.974 -0.3928 -0.1151 -1.3478
  156SAPE  C31517464   5.436   3.535   8.830  0.5834  0.3984  0.0848
  156SAPE  H15X17465   5.403   3.606   8.751 -2.5763 -1.1569 -0.1612
  156SAPE  H15Y17466   5.345   3.473   8.847  1.1237 -1.8136 -3.9405
  156SAPE  C31617467   5.541   3.441   8.760  0.0140 -0.1356  0.1532
  156SAPE  H16X17468   5.558   3.356   8.829  1.7106  1.2802  1.5787
  156SAPE  H16Y17469   5.635   3.496   8.736 -0.5103  0.8112  0.2285
  156SAPE  C31717470   5.473   3.389   8.628 -0.5405 -0.0891 -0.5330
  156SAPE  H17X17471   5.444   3.482   8.575 -2.6466  0.0656  0.7720
  156SAPE  H17Y17472   5.377   3.341   8.656 -0.9171 -0.2459 -2.0144
  156SAPE  C31817473   5.556   3.288   8.545  0.7318 -0.2887  0.1381
  156SAPE  H18X17474   5.523   3.289   8.439 -2.1544  0.6901  0.9376
  156SAPE  H18Y17475   5.539   3.186   8.584 -3.6395  0.2204  0.0814
  156SAPE  H18Z17476   5.661   3.323   8.553  0.7888  0.1724 -2.0843
  157SAPE     N17477   4.019   4.149  10.753  0.3155 -0.1952  0.0703
  157SAPE   HN117478   4.092   4.076  10.768 -0.5124 -0.8108  1.2424
  157SAPE   HN217479   4.003   4.182  10.850  0.6105  0.1038  0.0177
  157SAPE   HN317480   3.932   4.114  10.709  0.7916  0.7235 -1.6823
  157SAPE   C1217481   4.078   4.260  10.670 -0.7237 -0.0986 -0.2234
  157SAPE  H12A17482   4.000   4.336  10.650 -0.3843  0.5492  0.8096
  157SAPE  H12B17483   4.120   4.208  10.582  0.6445 -2.6903  1.7931
  157SAPE   C1117484   4.191   4.330  10.752 -0.4479  0.1734  0.3924
  157SAPE  H11A17485   4.149   4.371  10.846 -0.7577  1.5463 -0.3289
  157SAPE  H11B17486   4.225   4.411  10.685  1.6454 -0.6128  0.4240
  157SAPE     P17487   4.432   4.279  10.846 -0.7237 -0.4448 -0.2071
  157SAPE   O1317488   4.415   4.416  10.908  0.4780 -0.4743  0.4818
  157SAPE   O1417489   4.472   4.176  10.945  0.0651 -0.9329  0.3687
  157SAPE   O1217490   4.294   4.239  10.774 -0.1617 -0.0580 -0.0240
  157SAPE   O1117491   4.537   4.279  10.729 -0.0891 -0.2177  0.4854
  157SAPE    C117492   4.492   4.226  10.602  0.0495  0.0007  0.0917
  157SAPE    HA17493   4.577   4.170  10.557  0.5829  1.1046 -0.2999
  157SAPE    HB17494   4.410   4.151  10.612 -0.3095  0.2943 -0.6079
  157SAPE    C217495   4.441   4.330  10.495 -0.4114  0.6795  0.9368
  157SAPE    HS17496   4.333   4.357  10.503 -0.0159  1.8316  3.3317
  157SAPE   O2117497   4.486   4.292  10.361  0.8230  0.4725 -1.0969
  157SAPE   C2117498   4.445   4.169  10.324 -0.7991 -0.5881 -0.0782
  157SAPE   O2217499   4.365   4.100  10.384 -0.3748 -0.6175 -0.4369
  157SAPE   C2217500   4.519   4.146  10.192  0.5077  0.1886  0.1330
  157SAPE   H2R17501   4.583   4.235  10.173  0.4761  0.0801 -0.5118
  157SAPE   H2S17502   4.583   4.056  10.199 -0.6438 -0.4957  3.0786
  157SAPE    C317503   4.508   4.471  10.530 -0.3730 -0.6409 -0.4076
  157SAPE    HX17504   4.604   4.451  10.582 -0.6791  1.2273  0.9733
  157SAPE    HY17505   4.447   4.516  10.612 -0.5238 -2.4511  0.5379
  157SAPE   O3117506   4.540   4.556  10.420 -0.0680  0.7163 -0.1052
  157SAPE   C3117507   4.452   4.589  10.323  0.4885  0.3175 -0.8065
  157SAPE   O3217508   4.331   4.560  10.328  0.3067  0.8910 -0.1781
  157SAPE   C3217509   4.516   4.665  10.209 -0.2118 -0.1444 -0.0090
  157SAPE   H2X17510   4.622   4.687  10.236 -0.5635  0.2004  1.1425
  157SAPE   H2Y17511   4.466   4.764  10.213 -0.9508 -0.3818 -2.0667
  157SAPE   C2317512   4.420   4.125  10.067 -0.1842 -1.0701 -0.3013
  157SAPE   H3R17513   4.324   4.178  10.085  0.7871  0.2326  1.2786
  157SAPE   H3S17514   4.396   4.017  10.055  2.0878 -1.7784  0.8926
  157SAPE   C2417515   4.470   4.183   9.933 -0.1191  0.1731  0.2948
  157SAPE   H4R17516   4.493   4.288   9.961  0.8388 -0.4383  1.9758
  157SAPE   H4S17517   4.389   4.176   9.858 -0.9711 -0.2007  1.2124
  157SAPE   C2517518   4.593   4.123   9.877 -0.3255  0.3325 -0.2914
  157SAPE   H5R17519   4.669   4.087   9.948  1.6530 -0.3029 -2.5726
  157SAPE   C2617520   4.631   4.127   9.748  0.6089  0.2238  0.0347
  157SAPE   H6R17521   4.723   4.076   9.715  0.0109 -0.6066 -0.3939
  157SAPE   C2717522   4.538   4.183   9.641 -0.5510  0.0700  0.4060
  157SAPE   H7R17523   4.485   4.273   9.679 -0.8440  0.3997 -0.7385
  157SAPE   H7S17524   4.456   4.109   9.627 -0.4781 -0.0205  0.4591
  157SAPE   C2817525   4.594   4.215   9.505 -0.4738  0.2358  0.1304
  157SAPE   H8R17526   4.702   4.238   9.510 -0.3898 -0.3357  3.8767
  157SAPE   C2917527   4.530   4.202   9.384 -0.4694  0.1263 -0.3617
  157SAPE   H9R17528   4.580   4.230   9.290  0.3327 -0.2407 -0.0532
  157SAPE  C21017529   4.383   4.155   9.361 -0.3418 -0.5550 -0.8312
  157SAPE  H10R17530   4.335   4.250   9.331  2.0591  0.8105 -0.5634
  157SAPE  H10S17531   4.339   4.118   9.456 -3.2717 -1.2284 -2.3121
  157SAPE  C21117532   4.379   4.047   9.247 -0.5236 -0.0642 -0.4628
  157SAPE  H11R17533   4.462   4.042   9.176  0.8623 -2.0417  1.1672
  157SAPE  C21217534   4.278   3.954   9.230 -0.6476  0.0912 -0.5871
  157SAPE  H12R17535   4.295   3.879   9.152  0.4783 -0.9635  0.6169
  157SAPE  C21317536   4.156   3.944   9.318 -0.2348 -0.0504 -0.5119
  157SAPE  H13R17537   4.066   3.904   9.265 -0.4847 -0.2946  0.0899
  157SAPE  H13S17538   4.136   4.045   9.360  1.5526  0.2652 -0.3597
  157SAPE  C21417539   4.179   3.843   9.424 -0.6369 -0.5021  0.3925
  157SAPE  H14R17540   4.245   3.759   9.396  0.2237  0.2426  0.1095
  157SAPE  C21517541   4.151   3.862   9.550 -0.6837 -0.3272 -0.1337
  157SAPE  H15R17542   4.173   3.785   9.626 -1.6001 -2.1713 -1.6674
  157SAPE  C21617543   4.091   3.981   9.617  0.0620 -0.0501 -0.1449
  157SAPE  H16R17544   3.997   4.022   9.574 -0.5829  1.8569  2.7284
  157SAPE  H16S17545   4.162   4.067   9.620  1.5129 -1.2268  0.6876
  157SAPE  C21717546   4.053   3.950   9.765 -0.8885 -0.6793  0.2308
  157SAPE  H17R17547   3.997   3.854   9.766  1.9153 -2.4029  0.5240
  157SAPE  H17S17548   3.983   4.031   9.797  0.0169 -0.0203  0.5783
  157SAPE  C21817549   4.164   3.941   9.853 -0.0068 -0.6709  0.7797
  157SAPE  H18R17550   4.203   4.044   9.869 -1.4086  0.4421 -2.3576
  157SAPE  H18S17551   4.242   3.873   9.812 -2.0009 -1.4903 -1.9204
  157SAPE  C21917552   4.121   3.885   9.991  0.0345  0.1520  0.6210
  157SAPE  H19R17553   4.204   3.887  10.064  0.5828 -0.9068  0.0455
  157SAPE  H19S17554   4.101   3.778   9.970  2.0072 -0.0263 -0.5405
  157SAPE  C22017555   4.004   3.957  10.060 -0.5645  0.0312  0.2341
  157SAPE  H20R17556   4.020   4.067  10.057 -1.8943  0.2612  0.8719
  157SAPE  H20S17557   3.996   3.930  10.168 -1.1945  0.3737  0.2741
  157SAPE  H20T17558   3.906   3.944  10.009 -0.0190  2.6496 -1.6919
  157SAPE   C3317559   4.485   4.598  10.075 -0.8859  0.1371 -0.7178
  157SAPE   H3X17560   4.376   4.583  10.062 -0.7651 -1.8875  0.2164
  157SAPE   H3Y17561   4.532   4.497  10.077 -3.5693 -1.2095 -1.2047
  157SAPE   C3417562   4.546   4.680   9.958 -0.2001 -0.0940 -0.4783
  157SAPE   H4X17563   4.650   4.702   9.990 -0.5640  1.5148 -0.3507
  157SAPE   H4Y17564   4.487   4.774   9.951 -0.1934 -0.0619 -0.0771
  157SAPE   C3517565   4.533   4.603   9.826  0.1727 -0.7093  0.0977
  157SAPE   H5X17566   4.428   4.576   9.800  0.7867 -1.4845 -1.6694
  157SAPE   H5Y17567   4.590   4.507   9.832 -0.8278 -1.2994  0.5955
  157SAPE   C3617568   4.596   4.683   9.709  0.3897 -0.5247  0.3558
  157SAPE   H6X17569   4.707   4.688   9.723  0.5115 -1.2014 -0.3119
  157SAPE   H6Y17570   4.563   4.789   9.709  0.2952 -0.5367  2.0942
  157SAPE   C3717571   4.551   4.628   9.571  0.6730 -0.7689  0.3785
  157SAPE   H7X17572   4.445   4.647   9.546  0.9561  0.0507 -0.2528
  157SAPE   H7Y17573   4.573   4.520   9.558 -2.0888 -1.3573  0.1484
  157SAPE   C3817574   4.615   4.705   9.449 -0.4780 -0.4117  0.1285
  157SAPE   H8X17575   4.725   4.696   9.459 -0.2371 -0.1574 -1.8996
  157SAPE   H8Y17576   4.589   4.812   9.461  2.1158  0.1277  1.5171
  157SAPE   C3917577   4.569   4.654   9.314 -0.0190 -0.4484 -0.2556
  157SAPE   H9X17578   4.459   4.672   9.313  0.1500  0.7103  0.4227
  157SAPE   H9Y17579   4.570   4.543   9.304 -2.3729 -0.4687 -0.9213
  157SAPE  C31017580   4.643   4.712   9.188 -0.6704 -0.5282 -0.3971
  157SAPE  H10X17581   4.749   4.681   9.201  0.1474  1.3910 -1.9297
  157SAPE  H10Y17582   4.643   4.823   9.185  1.0501 -0.5065 -0.9020
  157SAPE  C31117583   4.591   4.650   9.053 -0.4013 -0.5520  0.1218
  157SAPE  H11X17584   4.665   4.692   8.982  0.8058  1.2107  2.3012
  157SAPE  H11Y17585   4.494   4.703   9.044  1.5694  3.3783 -0.2842
  157SAPE  C31217586   4.578   4.497   9.036  0.9097  0.5363 -0.6730
  157SAPE  H12X17587   4.529   4.468   8.941  2.0785 -4.3734 -0.0661
  157SAPE  H12Y17588   4.513   4.456   9.116  2.6371 -0.9439  0.0550
  157SAPE  C31317589   4.702   4.413   9.068  0.4344 -0.2095 -0.7672
  157SAPE  H13X17590   4.719   4.412   9.178 -1.0948  1.4656 -0.4693
  157SAPE  H13Y17591   4.795   4.454   9.022  0.0359  0.5415 -0.9284
  157SAPE  C31417592   4.679   4.263   9.024 -0.5109 -0.5357 -0.4253
  157SAPE  H14X17593   4.633   4.264   8.923 -0.0675 -0.8337 -0.6328
  157SAPE  H14Y17594   4.600   4.221   9.090  0.1171  0.4438  1.0109
  157SAPE  C31517595   4.807   4.180   9.028  0.5117 -0.3862  0.0249
  157SAPE  H15X17596   4.797   4.081   8.981  2.7083 -0.6470  0.0028
  157SAPE  H15Y17597   4.854   4.171   9.129  2.4131  1.8498 -0.5645
  157SAPE  C31617598   4.923   4.243   8.951 -0.1946  0.3484  0.7983
  157SAPE  H16X17599   4.960   4.325   9.017  0.7638  0.0160  0.6878
  157SAPE  H16Y17600   4.890   4.271   8.849 -2.1482 -2.1163  0.6596
  157SAPE  C31717601   5.029   4.141   8.925 -0.3334 -0.2859 -0.0321
  157SAPE  H17X17602   4.997   4.064   8.852 -1.2689 -0.0627  0.1371
  157SAPE  H17Y17603   5.051   4.089   9.021 -1.4688 -1.0449 -0.1761
  157SAPE  C31817604   5.157   4.206   8.858 -0.4271 -0.3473  0.0247
  157SAPE  H18X17605   5.227   4.123   8.833 -3.9370 -3.1053 -1.4960
  157SAPE  H18Y17606   5.200   4.260   8.946  2.4374 -1.6751 -0.4168
  157SAPE  H18Z17607   5.122   4.269   8.774  0.8467 -1.4798 -1.4146
  158SAPE     N17608   6.282   5.414  10.972  0.1494  0.1621  0.0014
  158SAPE   HN117609   6.365   5.473  10.995  0.4452  0.6228 -2.0226
  158SAPE   HN217610   6.231   5.442  10.886  0.6339  1.0509 -0.0125
  158SAPE   HN317611   6.216   5.441  11.047  2.8230  3.0388  1.5986
  158SAPE   C1217612   6.311   5.268  10.956 -0.7573 -0.5964  0.6053
  158SAPE  H12A17613   6.345   5.230  11.055  0.0068  1.6548  1.2566
  158SAPE  H12B17614   6.392   5.265  10.879 -0.5877  2.2366  0.5830
  158SAPE   C1117615   6.187   5.195  10.901  0.1661  0.8138 -0.0888
  158SAPE  H11A17616   6.090   5.220  10.949 -0.9736  0.4200 -2.1048
  158SAPE  H11B17617   6.202   5.087  10.921  2.3449  1.3194  1.3669
  158SAPE     P17618   6.098   5.320  10.693  0.1746  0.2586  0.3960
  158SAPE   O1317619   6.128   5.446  10.765 -0.3775  0.1815  0.3032
  158SAPE   O1417620   6.134   5.308  10.546  0.5188  0.4455 -0.3664
  158SAPE   O1217621   6.186   5.209  10.763 -0.3546 -0.0268  0.2352
  158SAPE   O1117622   5.949   5.279  10.728  0.0058 -0.1219  0.0279
  158SAPE    C117623   5.900   5.149  10.771 -0.0311 -0.0001  0.9116
  158SAPE    HA17624   5.966   5.084  10.833 -0.9279 -1.2830  0.5780
  158SAPE    HB17625   5.816   5.164  10.842 -1.7255 -2.5187 -0.4094
  158SAPE    C217626   5.847   5.053  10.664  0.1390  0.0822  0.9852
  158SAPE    HS17627   5.775   4.984  10.713 -1.4139  2.6088  2.4846
  158SAPE   O2117628   5.949   4.980  10.596  0.1149 -0.1635  0.5238
  158SAPE   C2117629   5.994   4.868  10.656 -0.2963 -0.8187  0.0651
  158SAPE   O2217630   5.953   4.817  10.757  0.2824  0.0500 -0.6378
  158SAPE   C2217631   6.092   4.799  10.559  0.7125  0.7245  0.3955
  158SAPE   H2R17632   6.164   4.864  10.506  0.9241  0.5264  0.4368
  158SAPE   H2S17633   6.147   4.733  10.629 -0.7385  0.1249  1.0072
  158SAPE    C317634   5.766   5.141  10.563 -0.1775 -0.7422  0.3556
  158SAPE    HX17635   5.835   5.218  10.522  0.9820 -2.0268 -0.2066
  158SAPE    HY17636   5.683   5.195  10.612 -0.5565 -2.4588  1.7200
  158SAPE   O3117637   5.715   5.069  10.453  0.1482  0.7217  0.1691
  158SAPE   C3117638   5.622   5.130  10.386  0.0467 -0.2185  0.4672
  158SAPE   O3217639   5.562   5.231  10.424 -0.2578 -0.4317  0.2782
  158SAPE   C3217640   5.581   5.044  10.268 -0.1379  0.3557 -0.6157
  158SAPE   H2X17641   5.560   4.942  10.308  1.3814  0.4393  0.4756
  158SAPE   H2Y17642   5.677   5.049  10.212 -0.4968  0.4777 -1.2296
  158SAPE   C2317643   6.025   4.695  10.469 -0.1176 -0.2730  0.3903
  158SAPE   H3R17644   5.959   4.635  10.535 -1.1270 -2.6315 -2.5348
  158SAPE   H3S17645   6.098   4.632  10.415 -0.7810  1.7293 -3.1514
  158SAPE   C2417646   5.938   4.757  10.356  0.4560 -1.2019  0.6333
  158SAPE   H4R17647   5.885   4.849  10.388 -0.8634 -1.9978  0.7976
  158SAPE   H4S17648   5.854   4.685  10.346 -2.7326  2.2118  1.1307
  158SAPE   C2517649   6.017   4.782  10.233 -0.8412  0.3206  0.1553
  158SAPE   H5R17650   6.079   4.872  10.240 -1.8723  1.2155 -1.5931
  158SAPE   C2617651   6.039   4.702  10.127  0.7524 -0.6193  0.1605
  158SAPE   H6R17652   6.097   4.732  10.039 -0.4630 -1.1121 -0.8351
  158SAPE   C2717653   5.975   4.562  10.113  0.0178 -0.1707 -0.0026
  158SAPE   H7R17654   5.934   4.562  10.010  0.3966  0.1664 -0.1553
  158SAPE   H7S17655   5.891   4.556  10.186  0.5558  0.8774  0.7321
  158SAPE   C2817656   6.087   4.459  10.141  0.4144  0.2654 -0.1437
  158SAPE   H8R17657   6.134   4.474  10.239 -1.0155 -0.2256  0.6628
  158SAPE   C2917658   6.131   4.373  10.047  0.1320 -0.8208 -0.0133
  158SAPE   H9R17659   6.217   4.311  10.077  1.1696  0.5641 -0.0321
  158SAPE  C21017660   6.072   4.358   9.903  0.4045  0.0547 -0.7619
  158SAPE  H10R17661   6.118   4.422   9.825  0.4571 -0.3461 -1.0603
  158SAPE  H10S17662   5.962   4.376   9.905  0.2433 -0.9834  0.3510
  158SAPE  C21117663   6.103   4.220   9.852 -0.2410  0.0393  0.1462
  158SAPE  H11R17664   6.174   4.166   9.916  0.6281  0.7342 -0.2096
  158SAPE  C21217665   6.056   4.163   9.744 -0.5060  0.5861  0.8105
  158SAPE  H12R17666   6.097   4.065   9.715 -0.1153  0.5788  1.3864
  158SAPE  C21317667   5.952   4.226   9.655  0.8540 -0.2458 -0.5782
  158SAPE  H13R17668   5.919   4.323   9.698  2.9949  1.8061 -3.1547
  158SAPE  H13S17669   5.861   4.165   9.638  1.8686 -1.8105 -0.5823
  158SAPE  C21417670   6.013   4.253   9.518 -0.3745 -0.3448 -0.7257
  158SAPE  H14R17671   6.031   4.158   9.464 -0.4340 -0.8300  0.0848
  158SAPE  C21517672   6.062   4.371   9.469 -0.4495  0.0950 -0.0237
  158SAPE  H15R17673   6.097   4.379   9.365  3.3853  0.2561  1.1354
  158SAPE  C21617674   6.070   4.499   9.541 -0.2483 -0.4545  0.5394
  158SAPE  H16R17675   6.158   4.557   9.506  0.2674 -2.3484 -1.5345
  158SAPE  H16S17676   6.080   4.472   9.649 -0.2582 -1.3387  0.3313
  158SAPE  C21717677   5.940   4.575   9.538 -0.6357  0.2789  0.3355
  158SAPE  H17R17678   5.851   4.513   9.514  0.2522 -0.8244 -0.2348
  158SAPE  H17S17679   5.958   4.650   9.458  0.7688  0.9417  1.2332
  158SAPE  C21817680   5.906   4.658   9.665 -0.3110  0.2231  0.2826
  158SAPE  H18R17681   5.977   4.744   9.669  0.6769 -0.4407 -1.6206
  158SAPE  H18S17682   5.917   4.597   9.756 -2.6459  0.3319  0.7049
  158SAPE  C21917683   5.769   4.725   9.676  0.4732 -0.4024 -0.1209
  158SAPE  H19R17684   5.696   4.648   9.643  2.1289 -0.8363 -3.1762
  158SAPE  H19S17685   5.755   4.811   9.608  0.1201 -1.3395 -1.2710
  158SAPE  C22017686   5.747   4.763   9.823  0.3256  0.2284 -1.0881
  158SAPE  H20R17687   5.749   4.667   9.879  0.0734  0.4222 -0.7428
  158SAPE  H20S17688   5.649   4.815   9.834 -0.6081 -1.8771  2.0172
  158SAPE  H20T17689   5.821   4.829   9.872 -0.8429  1.7350 -1.2639
  158SAPE   C3317690   5.478   5.112  10.175 -0.4760 -0.5463  0.3358
  158SAPE   H3X17691   5.511   5.217  10.160 -2.7090  0.2828  0.7723
  158SAPE   H3Y17692   5.383   5.115  10.233 -1.5358 -1.7267 -1.2683
  158SAPE   C3417693   5.469   5.050  10.037  0.2113  0.0353  0.5828
  158SAPE   H4X17694   5.437   4.946  10.060  0.4227 -0.1400  0.0999
  158SAPE   H4Y17695   5.567   5.041   9.987  0.2495 -0.4185  0.7315
  158SAPE   C3517696   5.364   5.120   9.951 -0.0949  0.4319 -0.7527
  158SAPE   H5X17697   5.397   5.224   9.936  1.4310  0.1681  0.4870
  158SAPE   H5Y17698   5.270   5.121  10.010 -2.0566 -0.6046 -3.6391
  158SAPE   C3617699   5.331   5.063   9.813 -0.5116  0.0238  0.5171
  158SAPE   H6X17700   5.268   5.132   9.753 -0.9739 -1.0102 -0.2239
  158SAPE   H6Y17701   5.281   4.967   9.838 -1.5631  0.3891 -0.1341
  158SAPE   C3717702   5.465   5.045   9.733  0.4585 -0.2211 -0.8025
  158SAPE   H7X17703   5.536   4.979   9.787 -0.3522 -1.6036 -1.3778
  158SAPE   H7Y17704   5.504   5.142   9.695 -1.1766  0.0987 -1.7913
  158SAPE   C3817705   5.449   4.950   9.617  0.7890 -0.5382  0.0072
  158SAPE   H8X17706   5.445   4.841   9.638 -1.1793 -0.7979 -1.4143
  158SAPE   H8Y17707   5.537   4.968   9.552  0.5694  1.9998  0.3041
  158SAPE   C3917708   5.336   4.984   9.516 -0.3626 -0.4776  0.0625
  158SAPE   H9X17709   5.315   5.090   9.493 -0.7865 -0.5784 -0.0163
  158SAPE   H9Y17710   5.244   4.940   9.561  0.8705 -0.3253  2.9635
  158SAPE  C31017711   5.355   4.913   9.373  0.1018 -0.3105 -0.0464
  158SAPE  H10X17712   5.267   4.908   9.305  0.4333 -2.0934 -0.3774
  158SAPE  H10Y17713   5.382   4.808   9.396  2.6349 -0.7612 -4.1922
  158SAPE  C31117714   5.471   4.964   9.293 -0.1429  0.4675  0.6667
  158SAPE  H11X17715   5.556   4.899   9.325 -0.6243 -0.7222 -0.3604
  158SAPE  H11Y17716   5.503   5.069   9.307 -2.4741  1.1033  1.6302
  158SAPE  C31217717   5.462   4.935   9.137  0.1135  0.2688 -0.0917
  158SAPE  H12X17718   5.425   4.833   9.113 -1.6862  0.3677  1.9096
  158SAPE  H12Y17719   5.566   4.955   9.105 -0.6267  0.8247 -2.3555
  158SAPE  C31317720   5.375   5.036   9.061 -0.0459  0.5471 -0.0661
  158SAPE  H13X17721   5.393   5.139   9.099  0.5047 -0.3496  2.2927
  158SAPE  H13Y17722   5.271   5.004   9.080 -0.5296  1.8231 -0.4391
  158SAPE  C31417723   5.407   5.031   8.915  0.1226  0.1863  0.2609
  158SAPE  H14X17724   5.379   4.932   8.873 -0.0331  0.1245  0.5051
  158SAPE  H14Y17725   5.517   5.041   8.903  0.1938  0.4688  1.0757
  158SAPE  C31517726   5.329   5.144   8.834 -0.1583  0.5298 -0.4722
  158SAPE  H15X17727   5.348   5.241   8.885  3.7203 -1.2681  1.9897
  158SAPE  H15Y17728   5.220   5.122   8.843  0.2444 -1.9515 -1.0010
  158SAPE  C31617729   5.379   5.166   8.689  0.7812 -0.2905 -0.2838
  158SAPE  H16X17730   5.382   5.070   8.632 -0.9912  0.1863 -1.2340
  158SAPE  H16Y17731   5.481   5.208   8.701  1.2307 -1.5877  0.6532
  158SAPE  C31717732   5.289   5.270   8.610  0.2409  0.7751 -0.6647
  158SAPE  H17X17733   5.304   5.369   8.658 -1.1919  0.5105  0.4026
  158SAPE  H17Y17734   5.179   5.256   8.606  0.1613  1.5099 -0.9868
  158SAPE  C31817735   5.338   5.277   8.468 -0.3471 -0.0830 -0.4148
  158SAPE  H18X17736   5.356   5.180   8.416 -0.2162  0.7468 -1.9702
  158SAPE  H18Y17737   5.437   5.326   8.475  1.0439 -2.6644 -0.5992
  158SAPE  H18Z17738   5.278   5.343   8.402 -1.9418 -0.2857  0.7648
  159SAPE     N17739   5.846   1.367   6.594 -0.0920  0.0511  0.5844
  159SAPE   HN117740   5.938   1.370   6.545 -0.7410  0.0731 -0.6617
  159SAPE   HN217741   5.859   1.320   6.686 -0.4724  0.4269  0.8362
  159SAPE   HN317742   5.776   1.314   6.538  0.7632  0.5842 -1.0758
  159SAPE   C1217743   5.788   1.505   6.610 -0.1754 -0.2528 -0.5235
  159SAPE  H12A17744   5.758   1.547   6.512 -1.9075  0.4274  0.2600
  159SAPE  H12B17745   5.869   1.565   6.656 -1.0228  1.2860 -0.9729
  159SAPE   C1117746   5.663   1.493   6.697 -0.4089 -0.5817 -0.6097
  159SAPE  H11A17747   5.625   1.585   6.747 -1.4807 -1.1039 -0.4305
  159SAPE  H11B17748   5.680   1.413   6.772 -0.0795 -0.2107 -0.2814
  159SAPE     P17749   5.420   1.410   6.681 -0.1864 -0.1066 -0.1172
  159SAPE   O1317750   5.300   1.460   6.611  0.2172 -0.0031  0.3646
  159SAPE   O1417751   5.441   1.271   6.706 -0.0143 -0.1627  0.7366
  159SAPE   O1217752   5.556   1.464   6.620  0.1917  0.0711 -0.3385
  159SAPE   O1117753   5.419   1.483   6.822  0.0001  0.2935  0.1414
  159SAPE    C117754   5.381   1.618   6.837 -0.4506  0.1153  0.8088
  159SAPE    HA17755   5.411   1.673   6.745  1.2261 -3.4151 -0.9263
  159SAPE    HB17756   5.270   1.618   6.837 -0.4832  1.4146  1.7999
  159SAPE    C217757   5.451   1.679   6.959 -0.4609  0.3972 -0.3433
  159SAPE    HS17758   5.560   1.688   6.941 -0.5869  0.8160 -0.9568
  159SAPE   O2117759   5.430   1.605   7.082 -0.0053 -0.1902  0.3528
  159SAPE   C2117760   5.502   1.494   7.085  0.0731 -0.0350 -0.2083
  159SAPE   O2217761   5.599   1.469   7.020 -0.5270  0.2708 -0.0823
  159SAPE   C2217762   5.452   1.401   7.196 -0.9961  0.3779 -0.3289
  159SAPE   H2R17763   5.343   1.391   7.180 -0.9417  1.9930 -2.0026
  159SAPE   H2S17764   5.490   1.299   7.171  0.5584  1.2261 -1.6820
  159SAPE    C317765   5.395   1.823   6.994  1.1061 -0.7794 -0.1569
  159SAPE    HX17766   5.407   1.839   7.103 -2.9650  1.1091  0.1942
  159SAPE    HY17767   5.285   1.837   6.986  0.8634 -1.0073  2.2325
  159SAPE   O3117768   5.464   1.914   6.911  0.1345 -0.4598 -0.1221
  159SAPE   C3117769   5.397   1.972   6.807  0.8089 -0.1994 -1.2673
  159SAPE   O3217770   5.284   1.950   6.774  0.4670  0.0377  1.0331
  159SAPE   C3217771   5.494   2.060   6.728 -0.1394 -0.8269 -0.2780
  159SAPE   H2X17772   5.483   2.031   6.622 -0.1128  1.0245 -0.8338
  159SAPE   H2Y17773   5.600   2.035   6.750  0.0233  0.3029  0.3449
  159SAPE   C2317774   5.473   1.429   7.346 -1.2292  0.3230 -0.2243
  159SAPE   H3R17775   5.421   1.350   7.404  0.1455 -0.3143  0.1830
  159SAPE   H3S17776   5.436   1.531   7.372 -1.2406  1.0831 -2.8817
  159SAPE   C2417777   5.625   1.436   7.382 -0.1399  0.1470  1.1367
  159SAPE   H4R17778   5.650   1.466   7.486  0.4962  0.7690  0.8109
  159SAPE   H4S17779   5.654   1.513   7.307  5.6928 -3.5500 -1.0951
  159SAPE   C2517780   5.685   1.300   7.360  1.2842 -0.4961  0.4957
  159SAPE   H5R17781   5.680   1.264   7.257 -1.1894  0.6512  0.1620
  159SAPE   C2617782   5.744   1.227   7.453  0.1849 -0.7086  0.5778
  159SAPE   H6R17783   5.782   1.131   7.416  1.2138  0.2389 -0.9345
  159SAPE   C2717784   5.772   1.265   7.598 -0.2221  0.1234 -0.3055
  159SAPE   H7R17785   5.708   1.350   7.628 -1.1570 -0.2968 -1.0714
  159SAPE   H7S17786   5.872   1.314   7.595  0.4272 -1.2145 -1.9065
  159SAPE   C2817787   5.791   1.150   7.696  0.1294  0.2251  0.0765
  159SAPE   H8R17788   5.880   1.087   7.682 -0.1944 -0.5466  1.3142
  159SAPE   C2917789   5.725   1.133   7.812  0.2339 -0.7048  0.6215
  159SAPE   H9R17790   5.733   1.045   7.877 -1.6385 -1.0291  0.4675
  159SAPE  C21017791   5.608   1.219   7.850  0.1783 -0.3781 -0.5160
  159SAPE  H10R17792   5.539   1.159   7.913 -0.8188 -0.6475 -1.8167
  159SAPE  H10S17793   5.551   1.255   7.761 -0.7799 -0.6791 -0.0367
  159SAPE  C21117794   5.661   1.343   7.919 -1.1123 -0.3668  0.0363
  159SAPE  H11R17795   5.685   1.431   7.859 -0.8744  0.5737  1.4724
  159SAPE  C21217796   5.697   1.351   8.046  0.0670  0.8581 -0.5913
  159SAPE  H12R17797   5.710   1.449   8.094 -1.0729  0.3587  0.8067
  159SAPE  C21317798   5.697   1.232   8.145  1.0406  0.4709  0.8222
  159SAPE  H13R17799   5.796   1.183   8.138  0.4385 -0.5475 -2.0434
  159SAPE  H13S17800   5.629   1.154   8.105 -0.1954  1.2609  1.3260
  159SAPE  C21417801   5.652   1.266   8.286 -0.5497  0.0648 -0.6154
  159SAPE  H14R17802   5.546   1.250   8.310  0.2730 -2.1137  2.0175
  159SAPE  C21517803   5.737   1.316   8.386 -0.4666  0.6609 -0.0952
  159SAPE  H15R17804   5.690   1.327   8.485 -0.0011 -1.1048  0.3706
  159SAPE  C21617805   5.890   1.331   8.372  1.1352 -0.1349  0.3645
  159SAPE  H16R17806   5.913   1.428   8.422 -0.7267  0.4789  0.1246
  159SAPE  H16S17807   5.919   1.323   8.265  0.7286 -0.7335  0.2934
  159SAPE  C21717808   5.972   1.221   8.449 -0.3628  1.1008  0.6527
  159SAPE  H17R17809   5.951   1.221   8.558 -2.2144 -0.6308  0.3516
  159SAPE  H17S17810   6.079   1.250   8.437 -0.0438  0.0214  0.7427
  159SAPE  C21817811   5.952   1.082   8.394 -0.3269 -0.0209  1.0667
  159SAPE  H18R17812   5.982   1.062   8.289 -2.4252 -0.8570  0.5924
  159SAPE  H18S17813   5.843   1.062   8.401 -0.4499  0.9397  2.2590
  159SAPE  C21917814   6.022   0.969   8.481 -0.1066  0.1366  0.5242
  159SAPE  H19R17815   6.035   0.877   8.420  1.0587  0.9928 -0.5373
  159SAPE  H19S17816   5.958   0.957   8.572 -0.6120  1.1344  0.3094
  159SAPE  C22017817   6.163   1.002   8.523  0.0602  0.0188  0.4389
  159SAPE  H20R17818   6.234   0.998   8.438  0.5941 -3.5992  0.8829
  159SAPE  H20S17819   6.204   0.921   8.588 -2.3617  1.0934  3.5931
  159SAPE  H20T17820   6.180   1.101   8.571 -2.9852  0.6342  0.3921
  159SAPE   C3317821   5.469   2.215   6.741  0.5812 -0.1784 -0.2493
  159SAPE   H3X17822   5.368   2.238   6.699  0.2378 -0.8628  0.1789
  159SAPE   H3Y17823   5.545   2.268   6.679 -0.4762  2.0745  0.2555
  159SAPE   C3417824   5.496   2.273   6.874 -0.6422  0.0343 -0.0279
  159SAPE   H4X17825   5.413   2.238   6.939  0.8305 -1.5720  1.0583
  159SAPE   H4Y17826   5.490   2.384   6.863 -0.4912 -0.0686 -1.2739
  159SAPE   C3517827   5.630   2.226   6.947 -0.2075 -0.7230  0.0445
  159SAPE   H5X17828   5.721   2.277   6.908 -1.2902  0.3755 -1.1650
  159SAPE   H5Y17829   5.642   2.117   6.934  1.0841 -0.4385 -1.4491
  159SAPE   C3617830   5.632   2.248   7.101 -0.9478 -0.3002 -0.2765
  159SAPE   H6X17831   5.708   2.183   7.150 -1.6962 -2.8375 -2.2596
  159SAPE   H6Y17832   5.538   2.206   7.143 -0.2937  0.8595  2.5840
  159SAPE   C3717833   5.661   2.397   7.137  0.7533 -0.1454 -0.1486
  159SAPE   H7X17834   5.567   2.454   7.121  1.6712  0.9567 -1.9758
  159SAPE   H7Y17835   5.733   2.452   7.073  1.0675 -0.2922  0.0798
  159SAPE   C3817836   5.706   2.415   7.282 -0.4459 -0.4461  0.6573
  159SAPE   H8X17837   5.714   2.524   7.303  0.1745 -0.5201  0.8187
  159SAPE   H8Y17838   5.803   2.363   7.295 -0.6891 -0.3152  3.7594
  159SAPE   C3917839   5.610   2.352   7.379 -0.0438 -0.3940  0.3845
  159SAPE   H9X17840   5.605   2.242   7.362  2.3778 -0.5556  0.3457
  159SAPE   H9Y17841   5.512   2.395   7.348  1.0015  1.7146 -0.1667
  159SAPE  C31017842   5.638   2.395   7.523 -0.0015  0.8012 -0.5107
  159SAPE  H10X17843   5.672   2.501   7.522  1.1075  0.4829  0.6807
  159SAPE  H10Y17844   5.726   2.333   7.551  1.6381  2.2770 -2.1738
  159SAPE  C31117845   5.531   2.365   7.623 -0.8413  0.1499  0.2145
  159SAPE  H11X17846   5.509   2.257   7.625  0.4778 -0.2223 -2.2041
  159SAPE  H11Y17847   5.434   2.414   7.596 -0.1496  0.2232 -2.3820
  159SAPE  C31217848   5.575   2.414   7.776  0.6561  0.0712 -0.0372
  159SAPE  H12X17849   5.485   2.396   7.838 -0.9908  2.0482 -1.6894
  159SAPE  H12Y17850   5.601   2.522   7.768 -3.2352  1.2113  0.3908
  159SAPE  C31317851   5.694   2.340   7.828 -0.8278 -0.8481 -0.2218
  159SAPE  H13X17852   5.783   2.361   7.766  1.0194 -1.0450  2.2325
  159SAPE  H13Y17853   5.679   2.230   7.818 -0.6289 -1.2612  2.9562
  159SAPE  C31417854   5.721   2.363   7.977  0.0772 -0.5360 -0.9617
  159SAPE  H14X17855   5.718   2.470   8.006  0.3931 -0.9681  0.8167
  159SAPE  H14Y17856   5.826   2.332   7.994 -0.6560 -3.0420 -0.6474
  159SAPE  C31517857   5.643   2.269   8.073 -0.6290  0.2954  0.5789
  159SAPE  H15X17858   5.679   2.166   8.055  1.3753  0.7402  1.7091
  159SAPE  H15Y17859   5.536   2.274   8.043 -1.1890  0.2896  2.4143
  159SAPE  C31617860   5.655   2.306   8.224 -0.2969 -0.2325  0.3079
  159SAPE  H16X17861   5.573   2.379   8.240 -0.9373 -0.5217 -1.4399
  159SAPE  H16Y17862   5.749   2.363   8.243 -1.3420  1.8112 -0.3907
  159SAPE  C31717863   5.643   2.189   8.318 -0.0022 -0.2283 -0.3076
  159SAPE  H17X17864   5.635   2.222   8.424 -2.6120 -0.6687 -0.3024
  159SAPE  H17Y17865   5.731   2.122   8.306  1.7031  1.6853  0.8138
  159SAPE  C31817866   5.510   2.112   8.301  0.5142  0.2821 -0.5078
  159SAPE  H18X17867   5.492   2.034   8.379  2.9089  1.8641  1.7686
  159SAPE  H18Y17868   5.498   2.072   8.198 -1.1447  0.3877 -0.3892
  159SAPE  H18Z17869   5.423   2.181   8.311  1.1027  1.0567 -0.6619
  160SAPE     N17870   3.804   0.975   6.272 -0.5758 -0.4508 -0.1006
  160SAPE   HN117871   3.847   1.038   6.202 -2.0981  0.3819 -0.3244
  160SAPE   HN217872   3.867   0.898   6.304  0.0661  0.3046  0.5093
  160SAPE   HN317873   3.717   0.948   6.223  0.7264 -0.5415 -2.5088
  160SAPE   C1217874   3.774   1.049   6.402  0.3019 -0.3124  0.6605
  160SAPE  H12A17875   3.718   1.141   6.372  0.5562 -0.8483 -1.6403
  160SAPE  H12B17876   3.872   1.084   6.442 -0.3066  1.1133  0.9777
  160SAPE   C1117877   3.705   0.966   6.500 -0.8432  0.6770 -0.3254
  160SAPE  H11A17878   3.707   1.037   6.586  1.6549  0.5174 -0.1587
  160SAPE  H11B17879   3.771   0.877   6.511 -0.8997  0.2256 -3.0438
  160SAPE     P17880   3.495   0.831   6.534  0.3126  0.6854  0.3185
  160SAPE   O1317881   3.361   0.817   6.477  0.1205 -0.0172 -0.4534
  160SAPE   O1417882   3.572   0.705   6.554 -0.6179  0.0083 -0.3001
  160SAPE   O1217883   3.578   0.934   6.451  0.1923 -0.0381 -0.1606
  160SAPE   O1117884   3.479   0.903   6.676  0.0021  0.3382  0.0862
  160SAPE    C117885   3.414   0.852   6.791  0.5161 -0.2376  0.0976
  160SAPE    HA17886   3.431   0.743   6.779 -0.2317 -0.2971 -0.5462
  160SAPE    HB17887   3.456   0.899   6.882 -0.9398  0.4950  0.4190
  160SAPE    C217888   3.256   0.889   6.792 -0.4117  0.4355  0.2181
  160SAPE    HS17889   3.208   0.858   6.697 -1.0641 -0.4893  0.8430
  160SAPE   O2117890   3.250   1.030   6.817  0.3574 -0.0965  0.6273
  160SAPE   C2117891   3.139   1.086   6.779  0.0425 -0.0106  0.4308
  160SAPE   O2217892   3.062   1.031   6.705  0.5623  0.0379  0.0537
  160SAPE   C2217893   3.133   1.225   6.841 -0.1221 -0.2564 -0.3881
  160SAPE   H2R17894   3.230   1.275   6.821  0.2456 -1.3247 -1.3838
  160SAPE   H2S17895   3.044   1.269   6.791 -1.2626 -2.0551 -0.0656
  160SAPE    C317896   3.185   0.798   6.901 -0.1801 -0.8169 -0.3780
  160SAPE    HX17897   3.167   0.696   6.862  0.3213 -1.7846  1.7936
  160SAPE    HY17898   3.082   0.839   6.913  0.2270 -0.0535  0.7250
  160SAPE   O3117899   3.263   0.789   7.026  0.2770  0.1093  0.3043
  160SAPE   C3117900   3.213   0.871   7.123  0.0714  0.1390  0.0550
  160SAPE   O3217901   3.112   0.931   7.112 -0.0877 -0.2898  0.0323
  160SAPE   C3217902   3.295   0.863   7.248  0.5931  0.4714  0.6191
  160SAPE   H2X17903   3.350   0.959   7.258  1.1954  0.0690  1.3865
  160SAPE   H2Y17904   3.361   0.773   7.240  0.4325  0.2502  1.5971
  160SAPE   C2317905   3.110   1.223   6.996  0.0960 -0.0265  0.4862
  160SAPE   H3R17906   3.204   1.178   7.036 -0.2439 -2.1724 -0.9677
  160SAPE   H3S17907   3.021   1.165   7.027 -0.8441  0.4515 -1.2065
  160SAPE   C2417908   3.096   1.372   7.042 -0.0422 -0.5392  0.2409
  160SAPE   H4R17909   3.034   1.355   7.133 -3.0453  0.9534 -1.3800
  160SAPE   H4S17910   3.018   1.426   6.984 -1.2922 -0.3300  2.0095
  160SAPE   C2517911   3.210   1.465   7.070 -0.4910 -0.5575 -0.0899
  160SAPE   H5R17912   3.235   1.528   6.983  0.1364  1.1337  1.2327
  160SAPE   C2617913   3.281   1.489   7.183  0.6467  0.2506 -0.3268
  160SAPE   H6R17914   3.365   1.559   7.179  0.4568  0.4661 -0.5321
  160SAPE   C2717915   3.254   1.422   7.310 -0.2998  0.0409  0.4905
  160SAPE   H7R17916   3.343   1.389   7.366  0.4815 -1.0600 -1.3276
  160SAPE   H7S17917   3.219   1.319   7.291 -0.1401 -0.3333  2.0421
  160SAPE   C2817918   3.157   1.489   7.402  0.1888 -0.4467 -0.2154
  160SAPE   H8R17919   3.142   1.597   7.389  0.6062 -0.4047 -0.3644
  160SAPE   C2917920   3.092   1.429   7.504  0.3413  0.2065 -0.5385
  160SAPE   H9R17921   3.039   1.493   7.576  0.4565  1.5883 -1.6265
  160SAPE  C21017922   3.094   1.284   7.550 -0.1392 -0.1436  0.2119
  160SAPE  H10R17923   3.198   1.245   7.553 -0.8762 -2.1282  2.1321
  160SAPE  H10S17924   3.051   1.223   7.467 -2.2597  0.0908  1.0609
  160SAPE  C21117925   3.022   1.268   7.688 -0.3270  0.0185 -0.2631
  160SAPE  H11R17926   2.914   1.248   7.688 -0.0099 -2.0943 -1.8523
  160SAPE  C21217927   3.091   1.265   7.804 -0.2263  0.4105 -0.5557
  160SAPE  H12R17928   3.031   1.265   7.896  1.1048  1.2328  0.3463
  160SAPE  C21317929   3.237   1.284   7.827 -0.8360  0.2971  0.2306
  160SAPE  H13R17930   3.295   1.264   7.734 -1.2857  3.5297 -0.9048
  160SAPE  H13S17931   3.273   1.211   7.902 -1.8871 -0.4853 -0.0143
  160SAPE  C21417932   3.258   1.434   7.862  0.3332  0.0731 -0.5951
  160SAPE  H14R17933   3.254   1.504   7.778  0.8742  1.7124  0.7093
  160SAPE  C21517934   3.296   1.484   7.982 -0.0175 -0.3619  0.2590
  160SAPE  H15R17935   3.323   1.589   8.001  0.0063 -0.5876  1.6099
  160SAPE  C21617936   3.321   1.393   8.101 -0.2691 -0.4166 -0.6616
  160SAPE  H16R17937   3.380   1.301   8.079  1.5550  0.7729 -0.9717
  160SAPE  H16S17938   3.222   1.362   8.141  0.2594 -1.9968 -0.4948
  160SAPE  C21717939   3.401   1.465   8.210  0.4125  0.6162  0.0559
  160SAPE  H17R17940   3.370   1.570   8.225 -2.1354 -0.1740  0.7815
  160SAPE  H17S17941   3.511   1.462   8.190  0.1644  0.2759 -1.3512
  160SAPE  C21817942   3.392   1.396   8.355 -0.0012 -0.1514 -0.7295
  160SAPE  H18R17943   3.286   1.399   8.388 -0.2016 -3.3026 -0.7706
  160SAPE  H18S17944   3.474   1.439   8.417  1.7764 -2.8831 -1.0002
  160SAPE  C21917945   3.425   1.242   8.356 -0.3080 -0.2445  0.0085
  160SAPE  H19R17946   3.533   1.244   8.329 -0.4461  1.5680 -0.5876
  160SAPE  H19S17947   3.379   1.194   8.267 -0.7155  0.6957 -0.3044
  160SAPE  C22017948   3.414   1.172   8.483 -0.2506  0.7029 -0.3835
  160SAPE  H20R17949   3.467   1.217   8.569 -1.1227  1.2915 -0.1431
  160SAPE  H20S17950   3.453   1.067   8.478 -3.1672 -0.4541 -0.7733
  160SAPE  H20T17951   3.313   1.154   8.524 -0.6825  1.4801 -1.0717
  160SAPE   C3317952   3.196   0.855   7.367  0.1793 -0.1746 -0.0640
  160SAPE   H3X17953   3.165   0.749   7.373  2.3412 -0.9020 -0.7144
  160SAPE   H3Y17954   3.102   0.912   7.352 -0.4021 -1.2098 -0.4426
  160SAPE   C3417955   3.262   0.907   7.493  0.1200  0.1468  0.0208
  160SAPE   H4X17956   3.280   1.017   7.483  0.7004  0.0915  0.4068
  160SAPE   H4Y17957   3.353   0.847   7.512 -0.8796 -1.7585 -0.9524
  160SAPE   C3517958   3.176   0.884   7.620 -0.5308 -0.1190 -0.4355
  160SAPE   H5X17959   3.159   0.775   7.628  1.1093 -0.2693  1.9267
  160SAPE   H5Y17960   3.083   0.945   7.608  0.3795  1.8038  1.5889
  160SAPE   C3617961   3.252   0.925   7.758 -0.5457  0.2201 -0.0615
  160SAPE   H6X17962   3.295   1.027   7.745 -1.0298  0.7690  2.1372
  160SAPE   H6Y17963   3.333   0.851   7.772  0.1870  0.9550 -0.3115
  160SAPE   C3717964   3.157   0.902   7.876  1.0333  0.4290  0.5462
  160SAPE   H7X17965   3.086   0.818   7.859  0.2870  1.3545 -1.1994
  160SAPE   H7Y17966   3.090   0.991   7.882 -1.3692 -1.3254  1.4122
  160SAPE   C3817967   3.231   0.903   8.009 -0.4989  0.2610  0.5542
  160SAPE   H8X17968   3.166   0.921   8.097 -1.1189  2.0214 -0.2285
  160SAPE   H8Y17969   3.308   0.982   8.024  0.6454 -0.9348  1.2394
  160SAPE   C3917970   3.309   0.780   8.037  0.4606 -0.1827  0.1951
  160SAPE   H9X17971   3.379   0.768   7.951 -1.1148 -0.7152 -1.0624
  160SAPE   H9Y17972   3.234   0.699   8.051  1.1636 -0.7061  1.0396
  160SAPE  C31017973   3.395   0.796   8.162 -0.0955  0.0502 -0.6839
  160SAPE  H10X17974   3.328   0.837   8.241 -0.1369  0.3352 -0.8665
  160SAPE  H10Y17975   3.476   0.869   8.144  3.1876 -3.0085  0.4566
  160SAPE  C31117976   3.458   0.666   8.198  0.2297  0.7300 -0.0278
  160SAPE  H11X17977   3.533   0.651   8.118 -0.7788  0.2492 -0.9037
  160SAPE  H11Y17978   3.384   0.585   8.184  0.5231  0.6261 -1.0220
  160SAPE  C31217979   3.535   0.662   8.332  0.0801 -0.0862 -0.3818
  160SAPE  H12X17980   3.558   0.557   8.357  1.7268  0.7767  2.1017
  160SAPE  H12Y17981   3.473   0.693   8.419 -0.5311 -0.1464 -0.7919
  160SAPE  C31317982   3.675   0.725   8.343 -0.7771 -0.4493 -0.4488
  160SAPE  H13X17983   3.675   0.826   8.297  1.5047  0.7110  1.8089
  160SAPE  H13Y17984   3.742   0.669   8.274 -1.0063  1.3456 -2.2092
  160SAPE  C31417985   3.740   0.736   8.483  1.1466 -0.5027 -0.2161
  160SAPE  H14X17986   3.670   0.791   8.549 -0.4517  1.1285 -3.0501
  160SAPE  H14Y17987   3.832   0.795   8.465  2.4169 -2.7413 -1.5453
  160SAPE  C31517988   3.783   0.605   8.544 -0.1065  0.4228  0.2976
  160SAPE  H15X17989   3.886   0.586   8.509 -0.0603 -1.2239  1.2258
  160SAPE  H15Y17990   3.724   0.520   8.505 -0.2114  0.0816  1.1772
  160SAPE  C31617991   3.782   0.611   8.697 -0.3772  0.1457 -0.3130
  160SAPE  H16X17992   3.692   0.657   8.743  0.0653  0.8700 -0.1576
  160SAPE  H16Y17993   3.864   0.674   8.735  0.9825 -1.6504 -0.1586
  160SAPE  C31717994   3.794   0.469   8.767 -0.1321  0.0611  0.0462
  160SAPE  H17X17995   3.719   0.402   8.719 -0.4865  0.9697 -0.7026
  160SAPE  H17Y17996   3.778   0.498   8.873 -0.4558  0.9505 -0.2368
  160SAPE  C31817997   3.931   0.404   8.756  0.1376 -0.3062  0.6911
  160SAPE  H18X17998   3.936   0.370   8.651  1.3537  1.0765  0.2795
  160SAPE  H18Y17999   3.947   0.313   8.818  1.0426 -1.1947 -0.8000
  160SAPE  H18Z18000   4.006   0.483   8.776 -0.9790  1.1976 -0.8350
  161SAPE     N18001   6.085   0.268   6.740 -0.2911 -0.1971  0.5919
  161SAPE   HN118002   6.008   0.199   6.754 -2.2235  1.9825  1.2873
  161SAPE   HN218003   6.166   0.220   6.696 -1.0103  0.3411 -1.4120
  161SAPE   HN318004   6.104   0.303   6.836  3.0726  0.8789 -0.3140
  161SAPE   C1218005   6.029   0.370   6.647 -0.2237 -0.7645 -0.1258
  161SAPE  H12A18006   5.955   0.434   6.699  1.4690  1.5755 -0.4559
  161SAPE  H12B18007   5.980   0.324   6.558 -0.2699 -0.8227 -0.0713
  161SAPE   C1118008   6.152   0.452   6.602  0.0993 -0.4940  0.0848
  161SAPE  H11A18009   6.235   0.389   6.564  0.3269 -0.2391  0.1557
  161SAPE  H11B18010   6.191   0.503   6.693  1.2267 -1.7740  0.3349
  161SAPE     P18011   6.211   0.650   6.446  0.0508  0.1965 -0.2709
  161SAPE   O1318012   6.275   0.584   6.327 -0.4214  0.0669  0.0181
  161SAPE   O1418013   6.148   0.781   6.424 -0.1025  0.1253  0.2348
  161SAPE   O1218014   6.109   0.552   6.510  0.1357  0.4900  0.6783
  161SAPE   O1118015   6.322   0.651   6.558  0.1020 -0.4265 -0.4752
  161SAPE    C118016   6.449   0.718   6.559  1.0185 -0.0502  0.7325
  161SAPE    HA18017   6.533   0.646   6.548  1.4248  0.5516 -0.1424
  161SAPE    HB18018   6.457   0.794   6.479  1.4022  1.3192  2.0379
  161SAPE    C218019   6.471   0.795   6.694 -0.1470  0.5849  0.2440
  161SAPE    HS18020   6.578   0.825   6.699 -0.1067  0.5694 -0.4434
  161SAPE   O2118021   6.435   0.718   6.812 -0.8535 -0.6820 -0.0453
  161SAPE   C2118022   6.497   0.590   6.825  0.3739 -0.3299 -0.4149
  161SAPE   O2218023   6.585   0.547   6.755 -0.0071  0.2468 -0.5082
  161SAPE   C2218024   6.433   0.519   6.946  0.2677  0.3874 -0.3128
  161SAPE   H2R18025   6.379   0.583   7.018  0.2662 -0.0819  0.1088
  161SAPE   H2S18026   6.353   0.453   6.906 -1.3169  0.1791  2.8623
  161SAPE    C318027   6.384   0.922   6.696 -0.0071  1.1585  0.4094
  161SAPE    HX18028   6.296   0.910   6.629  0.6979  0.6202 -0.4488
  161SAPE    HY18029   6.442   1.001   6.644  2.6373 -2.0394 -2.0302
  161SAPE   O3118030   6.346   0.964   6.830  0.0396 -1.3781 -0.2223
  161SAPE   C3118031   6.446   1.004   6.907  0.8641  0.3604 -0.0630
  161SAPE   O3218032   6.556   1.036   6.873  0.7512 -0.1242  0.0915
  161SAPE   C3218033   6.393   1.033   7.047  0.1447  0.0471 -0.3533
  161SAPE   H2X18034   6.335   0.949   7.091  0.2127  1.4153  2.5564
  161SAPE   H2Y18035   6.333   1.126   7.049  0.3862  0.2129  1.8408
  161SAPE   C2318036   6.523   0.435   7.033 -0.5494 -0.4284 -0.0337
  161SAPE   H3R18037   6.602   0.405   6.960  1.4578  3.2702  0.3633
  161SAPE   H3S18038   6.474   0.348   7.082 -1.7405  0.1769 -0.1229
  161SAPE   C2418039   6.592   0.520   7.140  0.1979  0.2425 -0.5046
  161SAPE   H4R18040   6.515   0.564   7.206  0.5117 -2.3596  1.7726
  161SAPE   H4S18041   6.646   0.599   7.083  1.3339 -0.1066  0.0429
  161SAPE   C2518042   6.684   0.434   7.217 -0.4245  0.2646  0.3394
  161SAPE   H5R18043   6.761   0.381   7.159  0.0542 -0.1739  1.3349
  161SAPE   C2618044   6.697   0.433   7.353 -0.0064  0.3288 -0.6858
  161SAPE   H6R18045   6.757   0.359   7.409 -0.9782  0.5177  0.6512
  161SAPE   C2718046   6.606   0.506   7.444  0.4406  0.8819 -0.8630
  161SAPE   H7R18047   6.595   0.614   7.423  0.4219  0.8668 -0.9316
  161SAPE   H7S18048   6.663   0.509   7.540  0.8139  1.1352 -1.0867
  161SAPE   C2818049   6.483   0.427   7.472  0.3248  0.0748  0.1880
  161SAPE   H8R18050   6.468   0.354   7.391  2.5673 -0.5299  0.2346
  161SAPE   C2918051   6.404   0.436   7.580 -0.0806 -0.3032 -0.1959
  161SAPE   H9R18052   6.334   0.353   7.596 -0.9476  0.7319  1.8223
  161SAPE  C21018053   6.445   0.524   7.698 -0.0581 -0.2742 -0.6357
  161SAPE  H10R18054   6.410   0.629   7.686  0.1674  0.0188  1.0410
  161SAPE  H10S18055   6.556   0.522   7.710 -0.0556 -1.1961 -0.7589
  161SAPE  C21118056   6.395   0.461   7.826  0.4435 -0.0748  0.5331
  161SAPE  H11R18057   6.425   0.355   7.833  0.9876 -0.0971 -1.4503
  161SAPE  C21218058   6.316   0.514   7.924 -0.3311 -0.2819  0.6886
  161SAPE  H12R18059   6.300   0.457   8.017  0.6106 -0.6644  0.6250
  161SAPE  C21318060   6.267   0.658   7.937 -0.7553  0.3074 -0.2076
  161SAPE  H13R18061   6.164   0.659   7.895 -0.2091 -1.3287 -1.7033
  161SAPE  H13S18062   6.333   0.731   7.887 -0.3938  0.6794  0.7735
  161SAPE  C21418063   6.257   0.705   8.085  0.1914  0.3329  0.4395
  161SAPE  H14R18064   6.313   0.645   8.158  0.3571 -1.4567 -1.0927
  161SAPE  C21518065   6.189   0.809   8.135  0.2708  0.1212  0.6723
  161SAPE  H15R18066   6.206   0.828   8.242  3.0106  2.2244 -0.0157
  161SAPE  C21618067   6.099   0.902   8.059 -0.9041  0.1649  0.1711
  161SAPE  H16R18068   6.128   0.903   7.951  0.1468  0.0956  0.4417
  161SAPE  H16S18069   6.112   1.000   8.108 -1.4157 -1.0254  2.9030
  161SAPE  C21718070   5.950   0.875   8.083 -0.3660  0.0400 -0.3515
  161SAPE  H17R18071   5.895   0.966   8.052  2.5679  2.0882  0.0500
  161SAPE  H17S18072   5.921   0.855   8.188  1.9876 -1.1620  0.1374
  161SAPE  C21818073   5.902   0.751   8.005  0.4568 -0.1620  0.4141
  161SAPE  H18R18074   5.944   0.662   8.056 -0.6144 -0.3950  0.9263
  161SAPE  H18S18075   5.940   0.757   7.901 -0.0558  1.1968  0.2866
  161SAPE  C21918076   5.750   0.735   7.987 -0.0553 -0.0589 -0.3985
  161SAPE  H19R18077   5.706   0.836   7.975  1.5202  0.7469  0.2573
  161SAPE  H19S18078   5.704   0.686   8.076  0.4170  0.0219 -0.1054
  161SAPE  C22018079   5.712   0.638   7.870 -0.1645 -0.0007  0.0337
  161SAPE  H20R18080   5.769   0.649   7.776 -1.1950 -2.0262 -0.8951
  161SAPE  H20S18081   5.608   0.660   7.836 -0.1571  1.2908  0.7973
  161SAPE  H20T18082   5.727   0.531   7.896  1.7047  0.3165  0.3876
  161SAPE   C3318083   6.512   1.054   7.142  0.3729 -0.2251 -0.7162
  161SAPE   H3X18084   6.575   1.134   7.097  0.3756  0.2209  0.0620
  161SAPE   H3Y18085   6.584   0.969   7.144 -0.4785 -0.9428  0.1064
  161SAPE   C3418086   6.490   1.096   7.289  0.1993 -0.6835  0.3588
  161SAPE   H4X18087   6.391   1.145   7.294 -0.4321 -1.8528 -0.1753
  161SAPE   H4Y18088   6.573   1.163   7.319 -0.3879 -0.1428  0.7833
  161SAPE   C3518089   6.488   0.973   7.385  0.5219 -0.4156  0.4543
  161SAPE   H5X18090   6.586   0.922   7.388 -0.1327 -1.8958 -1.3203
  161SAPE   H5Y18091   6.412   0.899   7.351  0.8417 -0.4613 -0.1838
  161SAPE   C3618092   6.453   1.010   7.529 -0.3813  0.0038  1.1287
  161SAPE   H6X18093   6.420   1.116   7.531 -4.6451 -1.1514  2.3031
  161SAPE   H6Y18094   6.543   0.999   7.593  1.5861 -0.0177 -1.4823
  161SAPE   C3718095   6.337   0.930   7.581 -0.6959  0.1861 -0.4624
  161SAPE   H7X18096   6.358   0.821   7.582  3.1660  0.7957 -0.8331
  161SAPE   H7Y18097   6.250   0.939   7.513 -0.3873  0.9621 -0.7649
  161SAPE   C3818098   6.280   0.976   7.720  0.1413 -0.1269  0.3874
  161SAPE   H8X18099   6.366   0.983   7.790  0.1564  1.7230  0.2394
  161SAPE   H8Y18100   6.208   0.897   7.750 -1.0546  1.0815  0.7787
  161SAPE   C3918101   6.217   1.114   7.712  0.4140  0.4188 -0.2435
  161SAPE   H9X18102   6.135   1.112   7.637  0.8060 -2.0529 -0.6810
  161SAPE   H9Y18103   6.292   1.194   7.697 -0.7942  1.6801  0.1620
  161SAPE  C31018104   6.122   1.167   7.829  0.3018 -0.1425 -0.3263
  161SAPE  H10X18105   6.069   1.085   7.882 -0.2123  0.9225  0.8403
  161SAPE  H10Y18106   6.052   1.240   7.783 -0.0263  0.0432  0.4655
  161SAPE  C31118107   6.202   1.255   7.929  0.0113  0.0154  0.3512
  161SAPE  H11X18108   6.261   1.338   7.885 -0.2714 -0.3010 -0.6509
  161SAPE  H11Y18109   6.278   1.192   7.981  0.3148 -0.3930 -0.5613
  161SAPE  C31218110   6.107   1.317   8.029  0.1856 -0.5286 -0.0740
  161SAPE  H12X18111   6.068   1.234   8.091 -0.5933  1.7916  2.7367
  161SAPE  H12Y18112   6.015   1.353   7.977  0.4233 -1.8176 -1.4753
  161SAPE  C31318113   6.169   1.428   8.109  0.4068  0.4393  0.3782
  161SAPE  H13X18114   6.081   1.483   8.151  0.0396  1.1081 -1.1889
  161SAPE  H13Y18115   6.202   1.504   8.035 -0.5179  1.2105  0.7319
  161SAPE  C31418116   6.269   1.389   8.213 -0.4542  0.5253 -0.0293
  161SAPE  H14X18117   6.371   1.379   8.168 -0.4282  1.3435 -0.1653
  161SAPE  H14Y18118   6.230   1.297   8.262 -2.4163  1.2519 -0.1637
  161SAPE  C31518119   6.285   1.486   8.329  0.4919  0.0769 -0.3790
  161SAPE  H15X18120   6.199   1.483   8.400  0.2600 -0.7958 -0.6873
  161SAPE  H15Y18121   6.297   1.591   8.294  0.4155  0.3257  0.3269
  161SAPE  C31618122   6.412   1.442   8.408  0.1913 -0.3276 -0.0013
  161SAPE  H16X18123   6.437   1.522   8.480  0.0941  0.2586 -0.6025
  161SAPE  H16Y18124   6.496   1.428   8.337  0.5989 -2.5958  0.8290
  161SAPE  C31718125   6.399   1.308   8.479 -0.3373  0.4778 -0.0334
  161SAPE  H17X18126   6.412   1.231   8.400 -1.2573  0.2256  0.0509
  161SAPE  H17Y18127   6.299   1.307   8.527  0.0207 -0.2829  0.7099
  161SAPE  C31818128   6.503   1.277   8.586  0.1960  0.6712 -0.2954
  161SAPE  H18X18129   6.484   1.318   8.688 -2.4458 -1.8930  0.3741
  161SAPE  H18Y18130   6.602   1.307   8.546  1.2979 -1.5109  0.6135
  161SAPE  H18Z18131   6.513   1.167   8.602  1.1446  0.5082 -1.7893
  162SAPE     N18132   5.556   4.928   5.756 -0.5760  0.5694 -0.5185
  162SAPE   HN118133   5.631   4.995   5.785 -1.6201 -0.0585  4.7085
  162SAPE   HN218134   5.566   4.897   5.658  0.5133 -2.6877  0.4790
  162SAPE   HN318135   5.469   4.982   5.776  0.0148  1.2561  0.3338
  162SAPE   C1218136   5.554   4.799   5.840 -0.4851 -0.2239  0.2367
  162SAPE  H12A18137   5.636   4.735   5.800 -0.7676 -0.8498  0.6436
  162SAPE  H12B18138   5.457   4.746   5.832 -0.3210 -0.7044  1.3329
  162SAPE   C1118139   5.567   4.821   5.992  0.3429 -0.6658 -0.5651
  162SAPE  H11A18140   5.560   4.721   6.041  1.3786  0.5705  2.3235
  162SAPE  H11B18141   5.479   4.878   6.028 -0.0206 -1.3674 -0.3285
  162SAPE     P18142   5.704   5.003   6.135  0.2420  0.1329 -0.2651
  162SAPE   O1318143   5.838   5.064   6.129 -0.0369  0.2461 -0.7426
  162SAPE   O1418144   5.591   5.095   6.118  0.7156 -0.1126  0.9606
  162SAPE   O1218145   5.693   4.873   6.035 -0.2486  0.2826  0.0736
  162SAPE   O1118146   5.682   4.933   6.281  0.3358 -0.2953  0.4258
  162SAPE    C118147   5.675   4.799   6.312  0.4589  0.0813 -0.7849
  162SAPE    HA18148   5.583   4.759   6.265 -0.3382  3.0406 -2.0182
  162SAPE    HB18149   5.761   4.743   6.270  0.2540 -1.0105  0.2331
  162SAPE    C218150   5.660   4.785   6.469  0.3767 -0.2653 -0.5536
  162SAPE    HS18151   5.561   4.814   6.508  1.2550  1.0087  0.8552
  162SAPE   O2118152   5.757   4.868   6.540 -0.0382 -0.1665 -0.1714
  162SAPE   C2118153   5.728   4.994   6.557  0.3664  0.7131  0.5452
  162SAPE   O2218154   5.621   5.045   6.530  0.1221 -0.0692  0.3181
  162SAPE   C2218155   5.854   5.057   6.617  0.0387 -0.4221  0.0108
  162SAPE   H2R18156   5.817   5.119   6.702  2.7195 -0.1087  1.0391
  162SAPE   H2S18157   5.923   4.975   6.648  1.5793  0.6788 -0.4011
  162SAPE    C318158   5.687   4.638   6.503  0.3610 -0.9103 -0.1021
  162SAPE    HX18159   5.791   4.616   6.471  0.1875  0.3318 -1.5896
  162SAPE    HY18160   5.605   4.585   6.450  0.3968 -1.7563  0.6573
  162SAPE   O3118161   5.668   4.618   6.645  0.1683 -0.5523 -0.0071
  162SAPE   C3118162   5.681   4.499   6.689 -0.1877 -0.2207 -0.1956
  162SAPE   O3218163   5.729   4.406   6.630 -0.4156 -0.7024  0.1637
  162SAPE   C3218164   5.636   4.495   6.834  0.4485 -0.7422  0.1259
  162SAPE   H2X18165   5.525   4.500   6.834  0.3950 -1.2690  1.7308
  162SAPE   H2Y18166   5.662   4.593   6.880 -0.5738  0.1501 -1.1404
  162SAPE   C2318167   5.939   5.158   6.524  0.0009  0.0265 -0.0160
  162SAPE   H3R18168   5.873   5.222   6.462  0.6408  0.3359 -0.3724
  162SAPE   H3S18169   6.000   5.101   6.451 -1.4864  1.1830 -2.2615
  162SAPE   C2418170   6.025   5.251   6.601 -0.1065  0.1286  0.6155
  162SAPE   H4R18171   5.960   5.321   6.659  0.2719 -0.8135  2.2462
  162SAPE   H4S18172   6.088   5.303   6.526  1.4251 -2.1893  0.1951
  162SAPE   C2518173   6.107   5.163   6.687  0.2921 -0.3537 -0.1362
  162SAPE   H5R18174   6.157   5.084   6.628 -2.6388 -1.4902 -1.2731
  162SAPE   C2618175   6.125   5.168   6.824 -0.1116  0.9768  0.7215
  162SAPE   H6R18176   6.207   5.107   6.863 -0.2730 -1.2667 -2.1581
  162SAPE   C2718177   6.059   5.260   6.920 -0.2348  0.9945 -0.5040
  162SAPE   H7R18178   5.986   5.334   6.879 -0.7906  0.6783 -0.0941
  162SAPE   H7S18179   6.131   5.331   6.966 -0.2654  1.5306 -1.2564
  162SAPE   C2818180   5.998   5.163   7.018 -0.2038 -0.7579  0.7704
  162SAPE   H8R18181   6.039   5.062   7.026  1.1692 -0.1589  1.7789
  162SAPE   C2918182   5.904   5.196   7.108  0.1149  0.0645 -0.6841
  162SAPE   H9R18183   5.856   5.120   7.170  1.7936  0.1266  0.7702
  162SAPE  C21018184   5.840   5.333   7.123 -0.1488  0.1948  0.5707
  162SAPE  H10R18185   5.739   5.324   7.077  0.0202 -1.8641  0.5333
  162SAPE  H10S18186   5.897   5.410   7.067  0.7232  0.4778  1.8125
  162SAPE  C21118187   5.801   5.392   7.259 -1.1775  0.7945 -0.5118
  162SAPE  H11R18188   5.872   5.468   7.296  1.1224 -0.1764 -2.6909
  162SAPE  C21218189   5.722   5.335   7.354 -0.1237 -0.4962 -0.0657
  162SAPE  H12R18190   5.719   5.391   7.448  0.9969  1.7901 -1.2976
  162SAPE  C21318191   5.634   5.210   7.339 -0.4156  0.3903  0.4816
  162SAPE  H13R18192   5.632   5.178   7.233  0.4998  1.4842  0.1221
  162SAPE  H13S18193   5.525   5.229   7.349 -0.0570  2.3332  0.9875
  162SAPE  C21418194   5.692   5.104   7.424  0.0485 -0.4048 -0.3821
  162SAPE  H14R18195   5.784   5.063   7.380 -0.0535 -0.4522 -0.5525
  162SAPE  C21518196   5.642   5.064   7.541 -0.0726 -0.0444  0.4345
  162SAPE  H15R18197   5.690   4.976   7.586  2.6792  1.4668  0.6589
  162SAPE  C21618198   5.513   5.118   7.603 -0.3896 -0.4352  0.3439
  162SAPE  H16R18199   5.453   5.166   7.523  1.9782 -0.7326 -1.6999
  162SAPE  H16S18200   5.544   5.190   7.682  0.7127  1.3551 -1.6268
  162SAPE  C21718201   5.420   5.015   7.664 -0.8408 -0.4817 -0.3088
  162SAPE  H17R18202   5.378   4.945   7.589 -2.4259 -0.2376  0.2960
  162SAPE  H17S18203   5.336   5.071   7.712 -1.1775 -2.4843  1.6428
  162SAPE  C21818204   5.483   4.937   7.787 -0.2284 -0.1879 -0.0660
  162SAPE  H18R18205   5.583   4.904   7.750 -0.2804  2.5994 -3.1424
  162SAPE  H18S18206   5.433   4.841   7.813 -0.5424 -0.1413 -0.4883
  162SAPE  C21918207   5.501   5.024   7.916 -0.0002  0.7389 -0.3635
  162SAPE  H19R18208   5.400   5.025   7.963  0.4209 -1.9011  0.8059
  162SAPE  H19S18209   5.523   5.125   7.876 -1.0130  0.1531 -2.5471
  162SAPE  C22018210   5.603   4.985   8.023  0.5755  0.2718  0.2005
  162SAPE  H20R18211   5.692   4.936   7.976  1.7871  2.7411 -0.2588
  162SAPE  H20S18212   5.560   4.916   8.098  2.0658 -0.9916 -0.0393
  162SAPE  H20T18213   5.643   5.068   8.085 -0.8661  2.3466 -1.4966
  162SAPE   C3318214   5.701   4.390   6.923 -0.3312  0.3853  0.4415
  162SAPE   H3X18215   5.811   4.403   6.929 -0.4844  2.7643 -0.7457
  162SAPE   H3Y18216   5.688   4.290   6.877 -0.1578  0.9075 -0.7593
  162SAPE   C3418217   5.648   4.402   7.066 -0.6408 -0.2731  0.3661
  162SAPE   H4X18218   5.541   4.374   7.075 -0.9782  1.1401  1.1158
  162SAPE   H4Y18219   5.655   4.505   7.106 -0.5228 -0.4981  0.9336
  162SAPE   C3518220   5.731   4.302   7.153 -0.2542  0.2766  1.2788
  162SAPE   H5X18221   5.837   4.332   7.138 -0.2442 -0.0205  0.7268
  162SAPE   H5Y18222   5.722   4.201   7.107  1.3421  1.3470 -1.6121
  162SAPE   C3618223   5.685   4.308   7.299 -0.1144 -0.4688  0.9134
  162SAPE   H6X18224   5.578   4.279   7.305 -0.8964  1.5525 -1.3567
  162SAPE   H6Y18225   5.699   4.413   7.332  0.9390 -0.0657 -0.6717
  162SAPE   C3718226   5.762   4.214   7.390 -0.5125 -0.0531 -0.3468
  162SAPE   H7X18227   5.870   4.219   7.363 -1.0137  0.6502 -2.4303
  162SAPE   H7Y18228   5.744   4.105   7.381 -0.0055 -0.0239 -2.2227
  162SAPE   C3818229   5.738   4.253   7.539  0.4789 -0.1170  0.2365
  162SAPE   H8X18230   5.633   4.231   7.567 -0.4695  2.7142 -0.8075
  162SAPE   H8Y18231   5.765   4.361   7.542  0.6300 -0.1570  0.2983
  162SAPE   C3918232   5.837   4.175   7.631  0.4381 -0.0789 -1.0310
  162SAPE   H9X18233   5.944   4.185   7.604  1.0502 -0.2276  1.1964
  162SAPE   H9Y18234   5.825   4.064   7.625  0.6983 -0.1056 -1.0531
  162SAPE  C31018235   5.818   4.212   7.779 -0.0151 -0.7955  0.0704
  162SAPE  H10X18236   5.711   4.204   7.807  0.0023  3.1240  1.9908
  162SAPE  H10Y18237   5.833   4.322   7.791 -1.6043 -0.4298 -0.9419
  162SAPE  C31118238   5.915   4.131   7.867  0.4409  0.3471 -0.0335
  162SAPE  H11X18239   6.018   4.166   7.841  0.0365  0.4421 -1.6418
  162SAPE  H11Y18240   5.916   4.023   7.841 -0.3198  0.6229 -1.3064
  162SAPE  C31218241   5.887   4.136   8.020 -0.3973 -0.1449  0.0639
  162SAPE  H12X18242   5.777   4.151   8.027 -0.1043  1.9428  1.1485
  162SAPE  H12Y18243   5.937   4.218   8.076  0.9055 -2.3400  2.3301
  162SAPE  C31318244   5.931   4.017   8.105 -0.3913  0.0275 -0.2692
  162SAPE  H13X18245   6.038   3.991   8.086 -0.7157 -0.0724 -2.1615
  162SAPE  H13Y18246   5.876   3.933   8.056 -0.6190  1.2041 -2.1573
  162SAPE  C31418247   5.909   4.027   8.258 -0.0226 -0.1183 -0.4414
  162SAPE  H14X18248   5.922   3.931   8.311 -0.7826  0.5667  1.0581
  162SAPE  H14Y18249   5.800   4.046   8.270  0.1544  1.6663 -1.2512
  162SAPE  C31518250   5.991   4.138   8.330  0.0671  0.2596 -0.2678
  162SAPE  H15X18251   5.964   4.239   8.292  0.5404  0.7694  0.7221
  162SAPE  H15Y18252   6.095   4.136   8.292  0.0143  0.7693 -0.4495
  162SAPE  C31618253   5.991   4.125   8.484 -0.8446 -0.6716  0.0565
  162SAPE  H16X18254   6.025   4.021   8.501 -0.2596 -0.5803 -0.4836
  162SAPE  H16Y18255   5.891   4.135   8.532 -1.3565  0.2633 -1.1188
  162SAPE  C31718256   6.077   4.239   8.544 -1.2681  0.1833 -0.4297
  162SAPE  H17X18257   6.182   4.223   8.510 -1.4273 -1.4048 -0.2756
  162SAPE  H17Y18258   6.088   4.228   8.654 -0.6910 -0.8770 -0.5767
  162SAPE  C31818259   6.037   4.377   8.508 -0.0030 -0.5102 -0.0678
  162SAPE  H18X18260   5.939   4.415   8.542  1.5479  1.9760  2.0316
  162SAPE  H18Y18261   6.051   4.400   8.400 -0.3788  0.9729  0.1794
  162SAPE  H18Z18262   6.101   4.441   8.573 -1.1121 -0.4074  0.9502
  163SAPE     N18263   3.315   3.805   6.587 -0.4160  0.3407 -1.0246
  163SAPE   HN118264   3.211   3.806   6.579 -0.5779  1.4530  0.6878
  163SAPE   HN218265   3.343   3.783   6.685  1.7660  2.5811 -1.0483
  163SAPE   HN318266   3.363   3.894   6.565  3.6670 -1.6685 -1.2539
  163SAPE   C1218267   3.370   3.689   6.508  0.7065  0.1819 -0.0460
  163SAPE  H12A18268   3.481   3.694   6.512  0.7316 -1.0240  1.9283
  163SAPE  H12B18269   3.320   3.694   6.409 -1.3659 -0.3254  0.9111
  163SAPE   C1118270   3.328   3.559   6.575  0.5565 -0.1394 -0.1712
  163SAPE  H11A18271   3.356   3.560   6.683 -1.6048  3.3922  0.4920
  163SAPE  H11B18272   3.365   3.469   6.521 -1.0152 -0.6932 -0.3692
  163SAPE     P18273   3.094   3.481   6.465 -0.4130 -0.1032  0.1909
  163SAPE   O1318274   2.967   3.545   6.439  0.0062 -0.4409 -0.5901
  163SAPE   O1418275   3.178   3.467   6.345  0.6366  0.3754  0.0342
  163SAPE   O1218276   3.177   3.554   6.575 -0.6427  0.2346 -0.3766
  163SAPE   O1118277   3.070   3.341   6.525 -0.3214 -0.9133  0.4487
  163SAPE    C118278   3.168   3.248   6.566  0.4035  0.0138 -0.4541
  163SAPE    HA18279   3.142   3.153   6.515 -1.5438  0.7795 -0.9655
  163SAPE    HB18280   3.271   3.289   6.553 -0.1684  1.3766 -0.9474
  163SAPE    C218281   3.149   3.224   6.722 -0.2795  0.0004  0.2064
  163SAPE    HS18282   3.043   3.215   6.753 -0.3596  3.0311  1.0967
  163SAPE   O2118283   3.216   3.334   6.792 -0.0471 -0.2842 -0.3278
  163SAPE   C2118284   3.133   3.400   6.868 -0.0083 -0.0329 -0.7140
  163SAPE   O2218285   3.023   3.361   6.904  0.0578 -0.0766 -0.4104
  163SAPE   C2218286   3.213   3.525   6.924 -0.1980 -0.1418 -0.6449
  163SAPE   H2R18287   3.321   3.515   6.899 -0.0666  0.1994 -0.2400
  163SAPE   H2S18288   3.171   3.616   6.876  0.3224  0.0236 -0.7930
  163SAPE    C318289   3.229   3.094   6.762 -0.2755 -0.4471 -0.0341
  163SAPE    HX18290   3.338   3.110   6.754 -0.6015  3.3406  1.3693
  163SAPE    HY18291   3.203   3.004   6.701  0.1734 -0.8998  0.4336
  163SAPE   O3118292   3.200   3.071   6.909 -0.1806 -0.0759 -0.8350
  163SAPE   C3118293   3.094   2.996   6.938 -0.7702  0.6419  0.3365
  163SAPE   O3218294   3.014   2.954   6.852  0.4109  0.1705  0.0330
  163SAPE   C3218295   3.087   2.979   7.093  0.3255 -0.7561 -0.6063
  163SAPE   H2X18296   3.112   3.080   7.134 -2.1172 -0.3813  0.1290
  163SAPE   H2Y18297   3.168   2.914   7.131  0.1177 -0.9865 -0.5587
  163SAPE   C2318298   3.214   3.535   7.083  0.6368  0.1284  0.5209
  163SAPE   H3R18299   3.107   3.547   7.108  0.9309 -0.1093  1.9868
  163SAPE   H3S18300   3.262   3.631   7.113  0.5379  0.1954  0.4628
  163SAPE   C2418301   3.266   3.406   7.147  0.0710  0.6536 -0.2281
  163SAPE   H4R18302   3.361   3.374   7.098 -0.3471 -3.7022  1.3281
  163SAPE   H4S18303   3.204   3.316   7.131 -0.1144  0.8918 -0.9074
  163SAPE   C2518304   3.312   3.428   7.286 -0.1837 -0.2861 -0.6146
  163SAPE   H5R18305   3.390   3.504   7.302 -2.5215  1.8358  1.4808
  163SAPE   C2618306   3.283   3.360   7.400  0.3849 -0.1508  0.2468
  163SAPE   H6R18307   3.337   3.391   7.491  1.7857 -1.9535  0.0853
  163SAPE   C2718308   3.195   3.242   7.421  0.1015  0.2322  0.3350
  163SAPE   H7R18309   3.252   3.147   7.431  0.3479  0.3157 -0.2406
  163SAPE   H7S18310   3.132   3.226   7.332  1.5900  1.6299 -1.0353
  163SAPE   C2818311   3.105   3.262   7.529 -0.1873  0.3198 -0.0007
  163SAPE   H8R18312   3.011   3.315   7.505 -0.8796  0.0206  1.8591
  163SAPE   C2918313   3.126   3.228   7.663 -0.0148  0.1052  0.4003
  163SAPE   H9R18314   3.058   3.255   7.745  0.0987  0.0553  0.5116
  163SAPE  C21018315   3.262   3.172   7.710 -0.7508  0.0616 -0.3025
  163SAPE  H10R18316   3.312   3.232   7.789  0.3881  0.3197 -1.2030
  163SAPE  H10S18317   3.340   3.164   7.631  0.1984  1.4487  0.4635
  163SAPE  C21118318   3.251   3.052   7.799  0.2144 -0.4239 -0.7033
  163SAPE  H11R18319   3.288   2.962   7.749  0.3661 -0.7488 -0.0198
  163SAPE  C21218320   3.213   3.040   7.929  0.1627 -0.4081 -0.3868
  163SAPE  H12R18321   3.199   2.941   7.975  0.4049  0.4786  1.7175
  163SAPE  C21318322   3.158   3.160   8.009 -0.6224 -0.0075 -0.0516
  163SAPE  H13R18323   3.098   3.120   8.094  1.9621 -2.1418  0.9115
  163SAPE  H13S18324   3.075   3.219   7.966 -0.8393  0.0530  0.4365
  163SAPE  C21418325   3.258   3.254   8.071 -1.0505 -0.6579  0.6601
  163SAPE  H14R18326   3.330   3.198   8.132 -0.8247 -0.6936  0.3614
  163SAPE  C21518327   3.252   3.390   8.065 -0.1942  0.8195  0.1203
  163SAPE  H15R18328   3.329   3.449   8.117  1.4958 -0.2036 -1.0904
  163SAPE  C21618329   3.154   3.473   7.991  0.3924 -0.3656  0.9250
  163SAPE  H16R18330   3.110   3.551   8.058 -0.6165  0.5440 -0.7446
  163SAPE  H16S18331   3.062   3.417   7.965 -0.6054 -0.6376  4.4278
  163SAPE  C21718332   3.191   3.552   7.869  0.1792 -0.6359 -0.3523
  163SAPE  H17R18333   3.262   3.491   7.809  0.6673  0.6009 -1.0718
  163SAPE  H17S18334   3.238   3.649   7.897 -0.8926  0.1145 -1.0383
  163SAPE  C21818335   3.066   3.582   7.774  0.4863 -0.4171 -0.5844
  163SAPE  H18R18336   2.996   3.658   7.816 -3.0366 -3.2841 -0.7921
  163SAPE  H18S18337   2.999   3.494   7.771 -0.6461  0.3180  1.1090
  163SAPE  C21918338   3.123   3.619   7.637 -0.1246  1.1537 -0.4962
  163SAPE  H19R18339   3.174   3.532   7.590 -0.6831  0.9119 -0.6708
  163SAPE  H19S18340   3.189   3.705   7.658 -0.2273  1.1620 -0.2040
  163SAPE  C22018341   2.998   3.643   7.546  0.6815  0.9230  0.5109
  163SAPE  H20R18342   2.932   3.724   7.585  0.0535  1.1834 -1.0190
  163SAPE  H20S18343   2.933   3.554   7.537  0.8856  0.5136  2.5679
  163SAPE  H20T18344   3.034   3.674   7.446  1.7470 -1.6566  0.0276
  163SAPE   C3318345   2.954   2.929   7.153  0.3398 -0.2066 -0.3485
  163SAPE   H3X18346   2.863   2.975   7.110  0.2350  0.7085  0.8128
  163SAPE   H3Y18347   2.955   2.948   7.263  1.8942  0.1076 -0.3934
  163SAPE   C3418348   2.940   2.779   7.126 -0.1372 -0.3994  1.3131
  163SAPE   H4X18349   3.044   2.743   7.112 -1.0322 -2.5290 -0.6236
  163SAPE   H4Y18350   2.882   2.768   7.032  1.5310 -2.3338  0.4333
  163SAPE   C3518351   2.868   2.704   7.239  0.5158  0.2365 -0.1547
  163SAPE   H5X18352   2.923   2.700   7.335 -0.5233  1.2047  0.5125
  163SAPE   H5Y18353   2.862   2.597   7.209 -0.3051  0.1875  0.1607
  163SAPE   C3618354   2.722   2.749   7.261  0.3134  0.3155  0.6927
  163SAPE   H6X18355   2.673   2.750   7.162 -0.5104 -1.2503  1.0497
  163SAPE   H6Y18356   2.709   2.847   7.311 -0.5752  1.7994 -2.2307
  163SAPE   C3718357   2.655   2.650   7.367  0.4934 -0.1427 -0.1849
  163SAPE   H7X18358   2.663   2.551   7.317  1.3663 -1.2810  2.0699
  163SAPE   H7Y18359   2.551   2.685   7.384  0.5411 -0.2065  0.2340
  163SAPE   C3818360   2.720   2.637   7.504  0.5038 -0.0336 -0.2546
  163SAPE   H8X18361   2.820   2.588   7.501  0.7868  0.4177  1.1129
  163SAPE   H8Y18362   2.655   2.562   7.554 -0.9340 -0.5862 -2.7819
  163SAPE   C3918363   2.727   2.769   7.574 -0.9892 -0.5476 -0.9063
  163SAPE   H9X18364   2.627   2.817   7.565 -0.7717  1.0489  2.9847
  163SAPE   H9Y18365   2.802   2.831   7.521  0.5373  0.3894  2.1014
  163SAPE  C31018366   2.771   2.754   7.719  0.8829 -0.2543  0.0929
  163SAPE  H10X18367   2.874   2.715   7.717  1.5896  1.0168  3.8332
  163SAPE  H10Y18368   2.701   2.679   7.762 -1.8183  1.2712 -1.3028
  163SAPE  C31118369   2.763   2.883   7.800  0.2921  0.0571 -0.2546
  163SAPE  H11X18370   2.657   2.916   7.798 -0.4440 -2.1328 -0.4547
  163SAPE  H11Y18371   2.824   2.970   7.767 -1.4259  2.2397  1.9275
  163SAPE  C31218372   2.813   2.864   7.948  0.0141  0.1315 -0.0747
  163SAPE  H12X18373   2.922   2.842   7.953 -0.0617 -0.4049 -0.5633
  163SAPE  H12Y18374   2.751   2.785   7.996 -0.2634  1.7800  2.4442
  163SAPE  C31318375   2.798   2.993   8.033  0.0806 -0.0464  0.2780
  163SAPE  H13X18376   2.693   3.026   8.047  0.4287 -0.0498  4.1640
  163SAPE  H13Y18377   2.846   3.077   7.980  1.0664  0.9007  2.5242
  163SAPE  C31418378   2.857   2.991   8.171 -0.4854 -0.2036 -0.8292
  163SAPE  H14X18379   2.967   2.980   8.165 -0.4057  0.4966 -0.7541
  163SAPE  H14Y18380   2.823   2.904   8.232 -1.3379 -0.0180 -1.0363
  163SAPE  C31518381   2.824   3.114   8.268  0.3954  0.4224 -0.1293
  163SAPE  H15X18382   2.715   3.135   8.266  0.1531 -0.3292  2.2063
  163SAPE  H15Y18383   2.883   3.203   8.240  2.1331 -0.4971  0.4473
  163SAPE  C31618384   2.845   3.089   8.409  0.6284  0.5945 -0.6150
  163SAPE  H16X18385   2.781   3.008   8.450  1.1281  0.3868 -0.2360
  163SAPE  H16Y18386   2.817   3.184   8.460 -3.3407 -0.6313 -0.1549
  163SAPE  C31718387   2.984   3.051   8.439 -0.4841  0.5094 -0.1820
  163SAPE  H17X18388   3.040   3.112   8.366 -0.2404 -0.5156 -0.8686
  163SAPE  H17Y18389   3.009   2.946   8.412  1.8520  0.8420  0.4737
  163SAPE  C31818390   3.043   3.085   8.572  0.3558 -1.1038 -0.4211
  163SAPE  H18X18391   3.071   3.192   8.562  0.1922 -1.2345 -2.7918
  163SAPE  H18Y18392   3.116   3.008   8.606 -2.0005 -4.0449 -1.4755
  163SAPE  H18Z18393   2.966   3.092   8.652  0.2024 -0.8224 -0.5916
  164SAPE     N18394   0.901   0.111   6.240  0.6022  0.3847 -0.2425
  164SAPE   HN118395   1.003   0.107   6.221  0.8723 -1.7780  1.2858
  164SAPE   HN218396   0.855   0.127   6.149 -1.7719  1.4176  1.0690
  164SAPE   HN318397   0.883   0.188   6.308  1.3411 -0.3931  0.8698
  164SAPE   C1218398   0.854  -0.028   6.287 -0.2105 -0.6565  0.2710
  164SAPE  H12A18399   0.899  -0.027   6.388  0.1799  0.5044  0.1035
  164SAPE  H12B18400   0.900  -0.105   6.222  1.6234  0.1272  0.5835
  164SAPE   C1118401   0.701  -0.056   6.285 -0.2321  0.0851 -0.0633
  164SAPE  H11A18402   0.641   0.022   6.337 -1.1471 -1.4346  1.2730
  164SAPE  H11B18403   0.686  -0.148   6.345  3.4764 -0.8874 -0.4319
  164SAPE     P18404   0.508  -0.081   6.101  0.2750  0.0098  0.1130
  164SAPE   O1318405   0.468   0.037   6.014 -0.2163 -0.4028 -0.5622
  164SAPE   O1418406   0.483  -0.213   6.038  0.3685  0.3863  0.6736
  164SAPE   O1218407   0.658  -0.079   6.150 -0.6387  0.0094 -0.1420
  164SAPE   O1118408   0.432  -0.068   6.237  0.4102  0.0767  0.1464
  164SAPE    C118409   0.400  -0.186   6.312  0.3151  0.1210 -0.1519
  164SAPE    HA18410   0.304  -0.229   6.276  0.5185 -0.6228  0.1649
  164SAPE    HB18411   0.482  -0.261   6.298  0.4072 -0.7043  3.5451
  164SAPE    C218412   0.367  -0.160   6.462 -0.0587 -0.4504 -0.4514
  164SAPE    HS18413   0.271  -0.106   6.455 -0.5409 -1.0875  0.8026
  164SAPE   O2118414   0.469  -0.086   6.518 -0.0686 -0.1896 -0.0063
  164SAPE   C2118415   0.431   0.010   6.612 -0.6889 -0.6548  0.0151
  164SAPE   O2218416   0.316   0.036   6.642 -0.3678 -0.0819  0.4410
  164SAPE   C2218417   0.555   0.093   6.635  0.7496  0.5331 -0.7420
  164SAPE   H2R18418   0.645   0.030   6.621 -0.7282 -1.6757 -0.8893
  164SAPE   H2S18419   0.545   0.171   6.556 -1.2210 -1.0533 -2.1884
  164SAPE    C318420   0.339  -0.300   6.537 -0.7710  0.4438 -0.9875
  164SAPE    HX18421   0.435  -0.355   6.539  0.1777  2.0455 -0.0497
  164SAPE    HY18422   0.267  -0.345   6.466 -1.9972  0.1816  0.3728
  164SAPE   O3118423   0.270  -0.278   6.665  0.3211 -0.3543  0.5835
  164SAPE   C3118424   0.364  -0.268   6.757  0.1016 -0.1081 -0.1215
  164SAPE   O3218425   0.481  -0.274   6.746 -0.4562 -0.2024 -0.1779
  164SAPE   C3218426   0.289  -0.253   6.898 -0.3732 -0.3414 -0.2215
  164SAPE   H2X18427   0.203  -0.323   6.893 -1.0573  0.5629 -1.9627
  164SAPE   H2Y18428   0.250  -0.149   6.901  0.1386 -0.1315 -0.6223
  164SAPE   C2318429   0.545   0.166   6.774  0.1898  0.2420 -0.9894
  164SAPE   H3R18430   0.456   0.232   6.778  2.3946  3.4716 -1.1029
  164SAPE   H3S18431   0.627   0.242   6.776  0.6512 -0.2453 -1.2351
  164SAPE   C2418432   0.546   0.059   6.888 -0.7923 -0.1120 -0.3230
  164SAPE   H4R18433   0.461  -0.010   6.868 -1.2425  0.5621 -0.7821
  164SAPE   H4S18434   0.524   0.108   6.985  0.3361 -2.5934  1.2873
  164SAPE   C2518435   0.684  -0.018   6.888  0.0779  0.2730  0.4196
  164SAPE   H5R18436   0.738  -0.013   6.792  2.6897  0.1189  1.7986
  164SAPE   C2618437   0.755  -0.066   6.994 -0.7552 -0.0640  0.4356
  164SAPE   H6R18438   0.842  -0.126   6.962 -0.3360  0.9807 -0.4508
  164SAPE   C2718439   0.725  -0.081   7.141  0.1118  0.0389  0.1849
  164SAPE   H7R18440   0.671  -0.177   7.146 -1.1384  0.4519 -2.8952
  164SAPE   H7S18441   0.642  -0.017   7.177  1.6874  2.2496  0.1149
  164SAPE   C2818442   0.848  -0.085   7.232  0.3651  0.1183  0.2738
  164SAPE   H8R18443   0.938  -0.120   7.179  0.8635  2.0674 -0.2554
  164SAPE   C2918444   0.844  -0.069   7.367  0.4424 -0.6360  0.6314
  164SAPE   H9R18445   0.941  -0.073   7.419  1.1547  2.0997 -0.2959
  164SAPE  C21018446   0.717  -0.044   7.449 -0.4408 -0.3219  0.0765
  164SAPE  H10R18447   0.680  -0.146   7.472 -3.0082  0.5890  0.2731
  164SAPE  H10S18448   0.642   0.014   7.391  0.2151  0.9337  0.4635
  164SAPE  C21118449   0.747   0.045   7.566  0.2627 -0.1244 -0.1259
  164SAPE  H11R18450   0.812   0.131   7.543  0.4043 -0.0407  0.5723
  164SAPE  C21218451   0.700   0.038   7.691  0.5303  0.1914 -1.2498
  164SAPE  H12R18452   0.749   0.100   7.768 -0.0801  0.2902 -0.9320
  164SAPE  C21318453   0.599  -0.062   7.751 -0.3279  0.0422  0.9420
  164SAPE  H13R18454   0.588  -0.162   7.705  1.1722 -0.0626  0.7684
  164SAPE  H13S18455   0.501  -0.010   7.745 -0.2534  0.0703 -0.2924
  164SAPE  C21418456   0.634  -0.100   7.891 -0.5891 -0.1114  0.4551
  164SAPE  H14R18457   0.706  -0.182   7.902 -0.0751 -0.0057 -1.7324
  164SAPE  C21518458   0.593  -0.048   8.003 -0.3297  0.3167 -0.2339
  164SAPE  H15R18459   0.628  -0.079   8.103 -3.6781  1.6484  1.4832
  164SAPE  C21618460   0.493   0.066   8.005 -0.0566  0.4186 -0.3558
  164SAPE  H16R18461   0.414   0.065   7.926 -0.6849 -2.7485  0.1554
  164SAPE  H16S18462   0.558   0.154   7.984  0.7849  0.0118  0.4902
  164SAPE  C21718463   0.424   0.051   8.142 -0.0013  0.2766 -0.2568
  164SAPE  H17R18464   0.385  -0.053   8.150 -1.1910  0.7949  1.2975
  164SAPE  H17S18465   0.332   0.112   8.131  0.9015  1.3994 -1.8319
  164SAPE  C21818466   0.502   0.103   8.265  0.5128  0.0347 -0.7086
  164SAPE  H18R18467   0.543   0.206   8.260 -1.7154  0.9574 -1.7369
  164SAPE  H18S18468   0.581   0.031   8.295  0.9983  1.3827  1.4275
  164SAPE  C21918469   0.401   0.117   8.379  0.8297 -0.3133 -0.3095
  164SAPE  H19R18470   0.338   0.027   8.397 -0.4646  1.1114  3.0739
  164SAPE  H19S18471   0.337   0.201   8.344  0.0198 -0.4790  0.7292
  164SAPE  C22018472   0.456   0.162   8.510 -0.3068 -0.2492  0.2991
  164SAPE  H20R18473   0.532   0.090   8.547  0.7943  0.1022 -1.1524
  164SAPE  H20S18474   0.372   0.190   8.577  0.9804 -0.5942  2.1162
  164SAPE  H20T18475   0.498   0.264   8.498 -0.1247 -0.2075  1.2485
  164SAPE   C3318476   0.374  -0.273   7.027  0.0990 -0.0933  0.3362
  164SAPE   H3X18477   0.450  -0.194   7.042 -0.4924  0.5471 -0.0090
  164SAPE   H3Y18478   0.422  -0.374   7.021 -1.6352 -0.8889 -0.7762
  164SAPE   C3418479   0.276  -0.272   7.136 -0.2589  0.4138 -0.2553
  164SAPE   H4X18480   0.191  -0.344   7.139  0.3374 -0.2961 -0.1527
  164SAPE   H4Y18481   0.238  -0.168   7.151  0.7397  0.9928 -1.5222
  164SAPE   C3518482   0.344  -0.306   7.264 -0.2375  0.0943 -1.1104
  164SAPE   H5X18483   0.432  -0.244   7.290 -2.9097  2.6768  3.0434
  164SAPE   H5Y18484   0.381  -0.411   7.265  0.3004  0.2788 -0.5783
  164SAPE   C3618485   0.254  -0.278   7.387  0.2867 -0.6415  0.4691
  164SAPE   H6X18486   0.191  -0.370   7.397 -1.3761  0.3779 -0.2079
  164SAPE   H6Y18487   0.194  -0.188   7.365 -1.7188 -1.7565  1.0981
  164SAPE   C3718488   0.328  -0.257   7.518 -1.1001 -0.4696  1.0171
  164SAPE   H7X18489   0.379  -0.158   7.527  2.5633 -1.8917 -1.7240
  164SAPE   H7Y18490   0.411  -0.330   7.524 -1.6108 -1.4002 -1.8729
  164SAPE   C3818491   0.235  -0.276   7.637 -0.2162 -0.1498 -0.2741
  164SAPE   H8X18492   0.203  -0.382   7.644 -1.9428  0.2747 -1.0674
  164SAPE   H8Y18493   0.137  -0.224   7.624  0.9477  2.1493 -0.4036
  164SAPE   C3918494   0.295  -0.251   7.783  0.0230  0.3433 -0.7985
  164SAPE   H9X18495   0.333  -0.147   7.779 -1.0786  0.7532 -1.0415
  164SAPE   H9Y18496   0.382  -0.316   7.805  0.7973  1.3101 -0.9494
  164SAPE  C31018497   0.189  -0.246   7.899 -0.3174 -0.7812 -0.7563
  164SAPE  H10X18498   0.108  -0.172   7.885  1.1742  0.8157 -1.1941
  164SAPE  H10Y18499   0.233  -0.196   7.987 -0.5617  1.7844 -2.0172
  164SAPE  C31118500   0.128  -0.373   7.937 -0.5947  0.3566  0.5202
  164SAPE  H11X18501   0.207  -0.442   7.976 -0.5085 -0.5935 -1.2161
  164SAPE  H11Y18502   0.079  -0.423   7.850  2.3701 -0.2883 -0.9208
  164SAPE  C31218503   0.034  -0.379   8.057  0.4127 -0.2556 -0.2699
  164SAPE  H12X18504  -0.057  -0.322   8.027  1.4482  1.4687 -0.2645
  164SAPE  H12Y18505   0.077  -0.334   8.149  1.2702 -0.5192 -0.5352
  164SAPE  C31318506  -0.013  -0.521   8.079  0.2094 -0.0673 -0.1940
  164SAPE  H13X18507   0.071  -0.593   8.088  0.5179  0.4752  1.6748
  164SAPE  H13Y18508  -0.084  -0.541   7.995 -2.3167  2.5132  1.1406
  164SAPE  C31418509  -0.092  -0.556   8.207  0.0903 -0.3723 -0.2192
  164SAPE  H14X18510  -0.116  -0.665   8.205  0.3869 -0.4911  1.3381
  164SAPE  H14Y18511  -0.174  -0.483   8.223 -0.3733 -0.5300 -1.6924
  164SAPE  C31518512   0.004  -0.549   8.331  0.2389 -0.3265  0.1723
  164SAPE  H15X18513   0.029  -0.441   8.345 -1.9122  0.0621  1.3493
  164SAPE  H15Y18514   0.096  -0.608   8.310  1.1326 -0.2092  3.2422
  164SAPE  C31618515  -0.064  -0.586   8.466 -0.2567 -0.2869  0.5012
  164SAPE  H16X18516  -0.114  -0.685   8.454 -1.4656  0.6247 -2.8543
  164SAPE  H16Y18517  -0.141  -0.507   8.478  1.3018  1.3253  0.2683
  164SAPE  C31718518   0.037  -0.584   8.580  0.5813  0.6928 -0.4131
  164SAPE  H17X18519  -0.013  -0.601   8.678 -0.9069 -1.0219 -1.3854
  164SAPE  H17Y18520   0.093  -0.489   8.587 -1.2898  1.8717 -0.6394
  164SAPE  C31818521   0.127  -0.711   8.559  0.5538 -0.1316  0.5036
  164SAPE  H18X18522   0.187  -0.736   8.649  0.5234 -0.6161  0.3922
  164SAPE  H18Y18523   0.192  -0.712   8.470 -0.2970 -1.0565 -0.1205
  164SAPE  H18Z18524   0.054  -0.792   8.540  0.0519 -0.2830  2.7229
  165SAPE     N18525   1.210   2.273   6.430  0.2896  0.1452  0.8116
  165SAPE   HN118526   1.291   2.268   6.366 -0.6682  1.0630 -0.5347
  165SAPE   HN218527   1.215   2.359   6.489 -1.3389 -0.9977  2.7716
  165SAPE   HN318528   1.208   2.195   6.499 -0.3742 -0.5963 -0.0200
  165SAPE   C1218529   1.091   2.270   6.346 -0.4926  0.2840  0.6028
  165SAPE  H12A18530   1.004   2.295   6.409 -0.9276 -0.6545  0.3969
  165SAPE  H12B18531   1.077   2.165   6.310  2.8145  0.3628 -1.4059
  165SAPE   C1118532   1.092   2.363   6.225  0.0609  0.3117 -0.0461
  165SAPE  H11A18533   0.991   2.345   6.181 -0.3979  0.6831  0.8269
  165SAPE  H11B18534   1.173   2.339   6.153 -0.5391 -0.0831 -0.6052
  165SAPE     P18535   1.144   2.603   6.187 -0.1353 -0.1462  0.1116
  165SAPE   O1318536   1.282   2.584   6.136  0.2834 -0.2033 -0.3520
  165SAPE   O1418537   1.029   2.601   6.092  0.6066  0.5545 -0.4012
  165SAPE   O1218538   1.102   2.495   6.290 -0.1145  0.4041  0.1596
  165SAPE   O1118539   1.149   2.738   6.266 -0.1322  0.7133 -0.0536
  165SAPE    C118540   1.037   2.783   6.338  0.6757  0.0936  0.7932
  165SAPE    HA18541   1.050   2.892   6.352  0.6252  0.0235  1.3978
  165SAPE    HB18542   0.942   2.759   6.285  1.7722  2.1770 -2.4603
  165SAPE    C218543   1.035   2.727   6.483 -0.7186  0.0227  0.4915
  165SAPE    HS18544   1.003   2.620   6.477 -1.4911  0.3303 -1.9008
  165SAPE   O2118545   0.920   2.796   6.546 -0.2781  0.6745  0.1554
  165SAPE   C2118546   0.874   2.739   6.653 -0.0861  0.0248 -0.0069
  165SAPE   O2218547   0.881   2.618   6.678  0.2190 -0.6518  0.2099
  165SAPE   C2218548   0.796   2.836   6.738 -0.0849 -0.4185 -0.2973
  165SAPE   H2R18549   0.866   2.917   6.765  0.5347  0.3539 -3.8167
  165SAPE   H2S18550   0.712   2.871   6.673  0.8953  1.1292 -0.7761
  165SAPE    C318551   1.162   2.742   6.563 -0.3118  0.7136 -0.1751
  165SAPE    HX18552   1.189   2.849   6.567 -0.8128  0.8300  0.2033
  165SAPE    HY18553   1.248   2.694   6.512 -0.3481  1.3322 -0.8260
  165SAPE   O3118554   1.145   2.680   6.690  0.7293 -0.3848  0.0393
  165SAPE   C3118555   1.171   2.548   6.691  0.3584 -0.0892 -0.2598
  165SAPE   O3218556   1.193   2.482   6.594  0.2065 -0.6750  0.4774
  165SAPE   C3218557   1.162   2.506   6.834  0.3289  0.1870 -0.5527
  165SAPE   H2X18558   1.060   2.499   6.877 -0.1742 -3.4484 -1.9948
  165SAPE   H2Y18559   1.224   2.571   6.899  1.9494 -1.4091 -0.4346
  165SAPE   C2318560   0.741   2.778   6.871 -0.3084 -0.6972  0.1476
  165SAPE   H3R18561   0.827   2.718   6.909  0.7387  0.0779 -0.9282
  165SAPE   H3S18562   0.650   2.719   6.847 -0.9333 -1.0139  2.9659
  165SAPE   C2418563   0.707   2.890   6.972 -0.0366  0.8413 -0.7990
  165SAPE   H4R18564   0.655   2.980   6.932  0.4664  2.0889  1.2237
  165SAPE   H4S18565   0.804   2.935   7.002  1.2609 -1.4934 -1.2018
  165SAPE   C2518566   0.622   2.848   7.092  0.8693  0.0994  0.5861
  165SAPE   H5R18567   0.517   2.822   7.069  0.5574  1.5517  0.2522
  165SAPE   C2618568   0.665   2.844   7.226  0.2583  0.5021 -0.2102
  165SAPE   H6R18569   0.596   2.813   7.305 -1.2849 -0.5589 -1.8826
  165SAPE   C2718570   0.800   2.882   7.273  0.1355 -0.0006  0.3243
  165SAPE   H7R18571   0.884   2.867   7.201  0.2001 -0.3257  0.4652
  165SAPE   H7S18572   0.842   2.810   7.346  1.2765  0.2927 -0.0213
  165SAPE   C2818573   0.818   3.024   7.324  1.3321 -0.0677  0.3778
  165SAPE   H8R18574   0.842   3.098   7.247  1.9894 -2.6520 -2.0978
  165SAPE   C2918575   0.773   3.073   7.446 -0.0686  0.2766  1.1067
  165SAPE   H9R18576   0.800   3.177   7.469  0.1015  0.3568  0.5523
  165SAPE  C21018577   0.710   2.999   7.558  0.8879  0.1135  0.0199
  165SAPE  H10R18578   0.685   2.893   7.537 -0.3933 -0.1541  2.5395
  165SAPE  H10S18579   0.611   3.047   7.575  1.2294  0.8781 -0.0901
  165SAPE  C21118580   0.795   3.019   7.683  0.8526 -0.4358 -0.5730
  165SAPE  H11R18581   0.902   2.993   7.678  1.3795  0.9518  1.7642
  165SAPE  C21218582   0.753   3.060   7.808  0.3697  0.0026 -0.5702
  165SAPE  H12R18583   0.835   3.077   7.878  0.9749 -2.3266 -0.6167
  165SAPE  C21318584   0.615   3.095   7.868  0.6120 -0.8390 -0.2494
  165SAPE  H13R18585   0.561   3.164   7.800 -0.7370 -0.1861  1.4118
  165SAPE  H13S18586   0.635   3.151   7.962 -1.9790 -0.0622 -0.0802
  165SAPE  C21418587   0.536   2.965   7.893 -0.1885  0.3831 -0.0959
  165SAPE  H14R18588   0.456   2.956   7.818  0.1090 -1.4008 -0.2486
  165SAPE  C21518589   0.556   2.872   7.988 -0.5153 -0.9564 -0.0795
  165SAPE  H15R18590   0.485   2.788   7.986 -2.1307  0.2767 -3.6676
  165SAPE  C21618591   0.657   2.879   8.102 -0.3421 -0.0998 -0.3011
  165SAPE  H16R18592   0.735   2.956   8.083 -2.2926  2.2704  0.7327
  165SAPE  H16S18593   0.695   2.776   8.121 -0.9520 -0.0077  1.5997
  165SAPE  C21718594   0.606   2.917   8.248 -0.2681 -0.3911 -0.3033
  165SAPE  H17R18595   0.676   2.873   8.322  1.5167  1.1513 -0.9885
  165SAPE  H17S18596   0.507   2.873   8.272 -1.3416  1.8018 -0.5055
  165SAPE  C21818597   0.601   3.069   8.276 -0.4340  0.3647  0.2979
  165SAPE  H18R18598   0.522   3.114   8.212  0.5133  0.6867 -0.6650
  165SAPE  H18S18599   0.697   3.110   8.239 -2.0516  1.5169 -2.9710
  165SAPE  C21918600   0.574   3.110   8.426  0.3084  0.3840 -0.1042
  165SAPE  H19R18601   0.496   3.038   8.456  1.1415 -0.4577  0.0910
  165SAPE  H19S18602   0.530   3.212   8.430  2.7681  1.5111 -0.0380
  165SAPE  C22018603   0.700   3.102   8.511  0.2197  0.1239  0.3284
  165SAPE  H20R18604   0.670   3.092   8.618  1.4967  0.9842  0.7908
  165SAPE  H20S18605   0.755   3.198   8.506  2.5992 -1.2259 -2.4882
  165SAPE  H20T18606   0.765   3.013   8.494 -0.4850 -0.3356  0.0049
  165SAPE   C3318607   1.217   2.360   6.863 -0.0647 -0.2694 -0.2510
  165SAPE   H3X18608   1.322   2.371   6.898  0.1247 -1.0511 -0.5526
  165SAPE   H3Y18609   1.211   2.305   6.767  0.9350  0.0766 -0.5213
  165SAPE   C3418610   1.148   2.290   6.977 -0.5007 -0.3503  0.4132
  165SAPE   H4X18611   1.180   2.186   6.998 -4.2655 -1.4140  1.6370
  165SAPE   H4Y18612   1.041   2.274   6.951 -0.2010 -2.9617  0.4954
  165SAPE   C3518613   1.175   2.347   7.111 -0.3089 -0.6194  0.7512
  165SAPE   H5X18614   1.104   2.431   7.128 -1.3421 -0.7854 -2.0754
  165SAPE   H5Y18615   1.275   2.394   7.118 -1.7187  2.7872  0.1106
  165SAPE   C3618616   1.160   2.249   7.228 -0.8260 -0.4777 -0.1190
  165SAPE   H6X18617   1.228   2.161   7.219  1.0049  0.4288  3.1920
  165SAPE   H6Y18618   1.057   2.209   7.215 -0.5679 -0.8904 -1.0115
  165SAPE   C3718619   1.180   2.305   7.373  0.3895  0.1887  0.7772
  165SAPE   H7X18620   1.122   2.399   7.380 -0.4164 -0.4020  2.6815
  165SAPE   H7Y18621   1.288   2.333   7.376  0.7972 -0.9166 -1.3816
  165SAPE   C3818622   1.157   2.203   7.484  0.2752 -0.1071 -0.0942
  165SAPE   H8X18623   1.172   2.105   7.434 -0.2130  0.8476 -2.2141
  165SAPE   H8Y18624   1.051   2.220   7.512 -0.2341 -0.5410 -1.6795
  165SAPE   C3918625   1.242   2.223   7.614  0.0277  0.4895 -0.4870
  165SAPE   H9X18626   1.217   2.318   7.665  0.0081  0.2518 -0.0369
  165SAPE   H9Y18627   1.352   2.221   7.593  0.7264 -0.9436  2.6390
  165SAPE  C31018628   1.214   2.114   7.717 -0.0190  0.1872 -0.3582
  165SAPE  H10X18629   1.109   2.081   7.707 -0.1568  0.9267 -1.4831
  165SAPE  H10Y18630   1.235   2.144   7.822 -1.1979 -0.4482  0.0805
  165SAPE  C31118631   1.298   1.987   7.693  0.5857 -0.2489  0.4085
  165SAPE  H11X18632   1.307   1.972   7.584 -0.2621 -0.6363  0.3855
  165SAPE  H11Y18633   1.235   1.904   7.732 -0.3909  1.0026  1.5886
  165SAPE  C31218634   1.437   1.999   7.764 -0.1051 -0.1368  0.2234
  165SAPE  H12X18635   1.474   2.089   7.710 -2.1401 -0.0332 -1.0853
  165SAPE  H12Y18636   1.490   1.904   7.743 -1.5235 -0.5336 -1.8017
  165SAPE  C31318637   1.431   2.019   7.919  0.8712  0.0923  0.4447
  165SAPE  H13X18638   1.332   1.978   7.950  0.4094  1.6986  1.1883
  165SAPE  H13Y18639   1.450   2.127   7.937  0.3224  0.1518  0.6997
  165SAPE  C31418640   1.538   1.934   7.994  0.4992  0.4771  0.0973
  165SAPE  H14X18641   1.639   1.952   7.951  0.6304  3.6221  1.4287
  165SAPE  H14Y18642   1.512   1.827   7.979  0.5361  0.5322 -0.3681
  165SAPE  C31518643   1.541   1.975   8.141  0.7588 -0.0585  0.6541
  165SAPE  H15X18644   1.440   1.968   8.186  0.3208 -2.3264 -0.5396
  165SAPE  H15Y18645   1.582   2.078   8.151 -1.9246  1.2041 -0.2584
  165SAPE  C31618646   1.621   1.878   8.225 -0.2837  0.6918 -0.5741
  165SAPE  H16X18647   1.726   1.900   8.196  0.6073 -1.0011  1.0799
  165SAPE  H16Y18648   1.606   1.771   8.198 -0.1749  0.8684 -1.3779
  165SAPE  C31718649   1.607   1.898   8.376  0.5398 -0.5171  0.4471
  165SAPE  H17X18650   1.688   1.834   8.417  1.3410 -0.6870 -1.3069
  165SAPE  H17Y18651   1.510   1.862   8.414  0.8604  0.0603  1.8805
  165SAPE  C31818652   1.637   2.042   8.413 -0.6034  0.2781 -0.0576
  165SAPE  H18X18653   1.730   2.066   8.357 -1.5777  0.3076 -1.7094
  165SAPE  H18Y18654   1.650   2.061   8.522 -1.0728  1.9543 -0.2696
  165SAPE  H18Z18655   1.561   2.113   8.376 -1.3711  0.3531  1.5986
  166SAPE     N18656   6.530   5.381   5.903  0.4892  0.1952 -0.5316
  166SAPE   HN118657   6.452   5.436   5.945  1.1631  0.7846 -0.0352
  166SAPE   HN218658   6.501   5.334   5.815  2.1896 -0.7510 -0.6168
  166SAPE   HN318659   6.555   5.312   5.977 -0.0897  1.5406  0.9753
  166SAPE   C1218660   6.637   5.485   5.881  0.3324 -0.9675 -0.1940
  166SAPE  H12A18661   6.596   5.560   5.810  3.3777  0.5640 -0.4745
  166SAPE  H12B18662   6.724   5.433   5.834  1.8068  1.3349 -0.1593
  166SAPE   C1118663   6.681   5.556   6.009 -0.6263 -0.3742  0.4675
  166SAPE  H11A18664   6.695   5.663   5.983  0.5417 -1.1134 -2.2370
  166SAPE  H11B18665   6.778   5.515   6.044 -0.8891 -1.7089 -0.3293
  166SAPE     P18666   6.577   5.618   6.246  0.5024  0.5995  0.3459
  166SAPE   O1318667   6.610   5.760   6.222 -0.0424 -0.1385 -0.4247
  166SAPE   O1418668   6.442   5.598   6.304  0.0586 -0.2005  0.6847
  166SAPE   O1218669   6.586   5.538   6.110 -0.5196  0.3066  0.5576
  166SAPE   O1118670   6.688   5.555   6.332 -0.2977  0.4488 -0.0657
  166SAPE    C118671   6.697   5.409   6.350 -0.2840  0.8181 -0.0520
  166SAPE    HA18672   6.600   5.371   6.389 -0.2448  1.1299  0.3598
  166SAPE    HB18673   6.715   5.356   6.254  0.2370  0.3681  0.2842
  166SAPE    C218674   6.815   5.381   6.450 -0.2999 -1.0052  0.4231
  166SAPE    HS18675   6.805   5.278   6.492 -0.7524 -0.5967  1.3561
  166SAPE   O2118676   6.816   5.480   6.557  1.0076  0.3849  0.3651
  166SAPE   C2118677   6.709   5.486   6.638 -0.3693  0.0742  0.3215
  166SAPE   O2218678   6.625   5.399   6.647 -0.6131  0.0473  0.3244
  166SAPE   C2218679   6.707   5.600   6.724  0.7308 -1.3883  0.1094
  166SAPE   H2R18680   6.705   5.692   6.661  1.0040 -0.1421  1.8378
  166SAPE   H2S18681   6.614   5.602   6.784  1.3798 -0.8322  1.1365
  166SAPE    C318682   6.959   5.385   6.386  0.4350 -0.1283  0.2659
  166SAPE    HX18683   6.973   5.484   6.336  1.1370 -0.4985 -0.2868
  166SAPE    HY18684   6.957   5.314   6.300 -0.2937  0.8128 -0.5238
  166SAPE   O3118685   7.066   5.348   6.478  0.0679 -0.4592  0.8371
  166SAPE   C3118686   7.099   5.443   6.572 -0.2665 -0.4762  0.1284
  166SAPE   O3218687   7.070   5.561   6.572  0.0385 -0.1553 -0.6763
  166SAPE   C3218688   7.196   5.373   6.663 -0.0875  0.1337  1.3665
  166SAPE   H2X18689   7.286   5.328   6.616  0.9874  3.9759 -0.7031
  166SAPE   H2Y18690   7.141   5.282   6.696  0.4650 -0.7627 -0.1102
  166SAPE   C2318691   6.835   5.593   6.825  0.2412  0.2601 -0.1305
  166SAPE   H3R18692   6.828   5.676   6.899  1.7111 -0.2067  0.5562
  166SAPE   H3S18693   6.926   5.616   6.767 -0.4235  1.4503 -0.7367
  166SAPE   C2418694   6.861   5.462   6.900 -0.2048  0.3586 -0.8284
  166SAPE   H4R18695   6.946   5.478   6.969 -1.1025  2.1215 -0.0717
  166SAPE   H4S18696   6.890   5.373   6.840 -1.5926  0.7508 -2.1403
  166SAPE   C2518697   6.739   5.434   6.986  0.1578 -0.5500 -0.0531
  166SAPE   H5R18698   6.660   5.371   6.942  1.0366 -2.9968  1.6469
  166SAPE   C2618699   6.718   5.493   7.109 -0.3371  1.3658  0.1640
  166SAPE   H6R18700   6.621   5.475   7.156 -1.2602  1.7789 -1.5015
  166SAPE   C2718701   6.811   5.578   7.194 -0.2432  0.1616 -0.7124
  166SAPE   H7R18702   6.770   5.672   7.236  0.9208 -0.6604  2.5290
  166SAPE   H7S18703   6.901   5.619   7.143  1.2574 -0.3486  1.3825
  166SAPE   C2818704   6.877   5.497   7.305 -0.2362 -0.2381 -0.1876
  166SAPE   H8R18705   6.957   5.439   7.257 -0.3510  0.1427 -0.8530
  166SAPE   C2918706   6.857   5.512   7.445  0.0221 -0.8845 -0.4604
  166SAPE   H9R18707   6.911   5.443   7.510 -0.5411  1.4798  2.7906
  166SAPE  C21018708   6.763   5.600   7.517  0.2678  0.3525  0.6471
  166SAPE  H10R18709   6.710   5.676   7.455  0.0161 -0.0869  0.3161
  166SAPE  H10S18710   6.827   5.649   7.593  0.4512 -0.1236  0.7956
  166SAPE  C21118711   6.648   5.524   7.588  0.2906  0.3120  0.1719
  166SAPE  H11R18712   6.557   5.507   7.529  0.8186  0.6837 -0.7615
  166SAPE  C21218713   6.635   5.498   7.720 -0.3304 -0.0454  0.2934
  166SAPE  H12R18714   6.543   5.453   7.759 -1.2034  3.0883  2.2202
  166SAPE  C21318715   6.740   5.527   7.823  0.2127 -0.4243 -0.2696
  166SAPE  H13R18716   6.699   5.597   7.899  0.3493 -0.0810 -0.5098
  166SAPE  H13S18717   6.824   5.585   7.780  2.3291 -2.3986  0.9599
  166SAPE  C21418718   6.796   5.401   7.886 -1.2293 -0.0610 -0.2006
  166SAPE  H14R18719   6.855   5.349   7.810 -1.4488  1.5549 -1.5457
  166SAPE  C21518720   6.784   5.353   8.011  0.3752 -0.1061 -0.3689
  166SAPE  H15R18721   6.851   5.274   8.047  0.7914  0.6088  0.4629
  166SAPE  C21618722   6.704   5.424   8.128 -0.1503  0.3990  0.5870
  166SAPE  H16R18723   6.654   5.517   8.091 -0.1474  0.3666  0.5013
  166SAPE  H16S18724   6.781   5.447   8.205  2.6867  0.8940 -2.1651
  166SAPE  C21718725   6.611   5.319   8.197 -0.3393 -0.4067  0.5607
  166SAPE  H17R18726   6.677   5.236   8.230 -0.6019 -0.0124  2.1788
  166SAPE  H17S18727   6.549   5.277   8.115  2.6972 -0.7896 -1.7415
  166SAPE  C21818728   6.529   5.377   8.320 -0.6633  0.2830  0.4797
  166SAPE  H18R18729   6.499   5.279   8.364 -2.1237 -0.3591 -1.7939
  166SAPE  H18S18730   6.440   5.436   8.289 -0.9454  2.1131  4.2316
  166SAPE  C21918731   6.605   5.461   8.419 -0.2650 -0.4429 -0.2515
  166SAPE  H19R18732   6.533   5.495   8.496 -3.3298 -1.6346 -2.4318
  166SAPE  H19S18733   6.654   5.546   8.365  2.0477 -2.5493 -1.6719
  166SAPE  C22018734   6.719   5.382   8.485 -0.1496 -0.1517 -0.1531
  166SAPE  H20R18735   6.796   5.370   8.406 -1.0939 -1.1890 -0.9351
  166SAPE  H20S18736   6.687   5.281   8.518 -2.6682 -0.4616 -3.1092
  166SAPE  H20T18737   6.768   5.436   8.570 -0.2298 -1.5617  0.8224
  166SAPE   C3318738   7.254   5.460   6.782 -0.4975  0.1370  0.0400
  166SAPE   H3X18739   7.203   5.558   6.792  1.7769  1.2752  1.2091
  166SAPE   H3Y18740   7.356   5.483   6.746 -0.2058 -0.4869  0.4438
  166SAPE   C3418741   7.259   5.384   6.912 -0.2025 -0.7751  0.0342
  166SAPE   H4X18742   7.157   5.345   6.931 -0.7559  0.9007  0.7103
  166SAPE   H4Y18743   7.270   5.461   6.992 -0.8119  0.1488 -0.7505
  166SAPE   C3518744   7.375   5.291   6.911 -0.2410  0.2218 -0.4298
  166SAPE   H5X18745   7.467   5.352   6.923  0.9597 -1.5133 -0.4309
  166SAPE   H5Y18746   7.381   5.257   6.805 -1.3408  2.8716 -1.4320
  166SAPE   C3618747   7.379   5.174   7.019 -0.5503 -0.6895  0.5758
  166SAPE   H6X18748   7.473   5.118   7.000  0.6530  0.6204  2.3114
  166SAPE   H6Y18749   7.298   5.099   7.009 -0.0005 -1.2363  0.1591
  166SAPE   C3718750   7.409   5.208   7.161  0.4016 -0.6740 -1.0699
  166SAPE   H7X18751   7.491   5.282   7.170  1.1337 -1.5336 -0.4574
  166SAPE   H7Y18752   7.451   5.121   7.215  1.8683  0.4679 -0.2783
  166SAPE   C3818753   7.292   5.256   7.241 -0.4506 -0.1988 -0.3344
  166SAPE   H8X18754   7.211   5.182   7.249 -0.0668 -0.3981  2.7788
  166SAPE   H8Y18755   7.258   5.359   7.217 -0.3219  0.4807  2.1558
  166SAPE   C3918756   7.347   5.284   7.379 -0.9735 -0.0492 -0.1893
  166SAPE   H9X18757   7.428   5.360   7.379 -0.9286  0.0050 -2.9687
  166SAPE   H9Y18758   7.401   5.196   7.420 -0.6593  0.2048 -0.0502
  166SAPE  C31018759   7.244   5.347   7.481 -0.6804  0.7431  0.3943
  166SAPE  H10X18760   7.163   5.277   7.509  0.1545  0.3487  1.9335
  166SAPE  H10Y18761   7.207   5.440   7.432  0.7533 -0.8445 -4.2775
  166SAPE  C31118762   7.318   5.386   7.612  0.2952 -0.9008  0.3746
  166SAPE  H11X18763   7.401   5.454   7.585 -0.3198  0.3936  1.6548
  166SAPE  H11Y18764   7.342   5.298   7.675 -0.6539  0.5683  2.9260
  166SAPE  C31218765   7.230   5.471   7.697  0.5791 -0.4011  0.5683
  166SAPE  H12X18766   7.124   5.441   7.704 -0.3715  2.2843 -0.9764
  166SAPE  H12Y18767   7.243   5.573   7.656  3.6320 -1.6176 -1.9332
  166SAPE  C31318768   7.287   5.470   7.843  0.3656 -0.4776  0.2993
  166SAPE  H13X18769   7.397   5.472   7.854  0.2421 -0.9972  1.9142
  166SAPE  H13Y18770   7.243   5.389   7.906  0.2661  0.6274  1.7190
  166SAPE  C31418771   7.238   5.603   7.908 -0.2629  0.2545  0.2870
  166SAPE  H14X18772   7.128   5.609   7.891  0.0522  1.8188 -1.6062
  166SAPE  H14Y18773   7.279   5.696   7.863 -2.2128 -0.4717 -3.4090
  166SAPE  C31518774   7.267   5.608   8.055 -0.4559  0.2486 -0.8845
  166SAPE  H15X18775   7.225   5.527   8.117  2.0621 -1.3510 -1.1252
  166SAPE  H15Y18776   7.222   5.698   8.104  0.2272  0.4343 -0.5706
  166SAPE  C31618777   7.413   5.632   8.093 -0.0587  0.0642  0.6701
  166SAPE  H16X18778   7.460   5.721   8.047 -1.3726 -0.5534 -2.0319
  166SAPE  H16Y18779   7.466   5.545   8.049 -2.6581 -2.0825  1.5118
  166SAPE  C31718780   7.437   5.656   8.246  0.5093 -0.4813 -0.5260
  166SAPE  H17X18781   7.517   5.732   8.262 -0.0430  0.1990 -0.9516
  166SAPE  H17Y18782   7.475   5.561   8.290 -0.6261 -0.8691 -0.3716
  166SAPE  C31818783   7.321   5.691   8.342  0.4262 -0.1182  0.8583
  166SAPE  H18X18784   7.291   5.796   8.321  2.6461  0.5487  0.7267
  166SAPE  H18Y18785   7.360   5.707   8.445 -1.0571  1.3944  1.2245
  166SAPE  H18Z18786   7.246   5.611   8.349  1.5976 -1.6363 -2.1033
  167SAPE     N18787   1.356   4.563   6.359 -0.7529 -0.0822 -0.1913
  167SAPE   HN118788   1.374   4.474   6.409  0.0185 -0.2765 -0.7984
  167SAPE   HN218789   1.452   4.594   6.334 -0.0015 -0.1867  2.3094
  167SAPE   HN318790   1.323   4.634   6.427 -2.7063 -0.7437 -0.3695
  167SAPE   C1218791   1.279   4.541   6.234  0.3590 -0.1161 -0.6776
  167SAPE  H12A18792   1.176   4.520   6.270  0.1777  1.4103 -0.2127
  167SAPE  H12B18793   1.322   4.452   6.183  2.5118  0.2419  0.3927
  167SAPE   C1118794   1.264   4.667   6.145 -0.4924 -0.6873  0.3820
  167SAPE  H11A18795   1.202   4.633   6.059  0.7585 -2.5045  0.1269
  167SAPE  H11B18796   1.368   4.690   6.113 -0.6687 -1.4323 -0.8016
  167SAPE     P18797   1.134   4.899   6.137 -0.1942  0.4790  0.1286
  167SAPE   O1318798   1.105   4.872   5.992 -0.0069  0.0769 -0.6097
  167SAPE   O1418799   1.019   4.936   6.221  0.0811  0.2956  0.1278
  167SAPE   O1218800   1.203   4.779   6.208  0.0257 -0.1945  0.1281
  167SAPE   O1118801   1.228   5.017   6.148  0.3271 -0.0960  0.1387
  167SAPE    C118802   1.345   5.023   6.235 -0.0484 -0.3858 -0.3460
  167SAPE    HA18803   1.421   4.947   6.208 -0.1930 -1.1507  1.3136
  167SAPE    HB18804   1.404   5.115   6.212 -3.2223  1.8835 -0.0093
  167SAPE    C218805   1.307   5.025   6.386 -0.5749  0.0223  0.5591
  167SAPE    HS18806   1.224   4.952   6.402 -1.8491  1.2062 -0.3913
  167SAPE   O2118807   1.260   5.157   6.411  0.7184  0.0443  0.1743
  167SAPE   C2118808   1.131   5.169   6.458 -0.0179  0.8539 -0.7033
  167SAPE   O2218809   1.055   5.074   6.466 -0.6177  0.4256 -0.3018
  167SAPE   C2218810   1.105   5.306   6.519 -0.1656  0.4157 -0.0840
  167SAPE   H2R18811   1.192   5.344   6.575  0.1070 -1.1715  0.6202
  167SAPE   H2S18812   1.095   5.367   6.426  0.5123  1.9391  0.8262
  167SAPE    C318813   1.437   4.990   6.467  0.6535  0.1298 -0.0347
  167SAPE    HX18814   1.502   5.078   6.448 -0.8746  0.9193 -1.9584
  167SAPE    HY18815   1.486   4.899   6.425 -2.0428 -1.6269  0.3966
  167SAPE   O3118816   1.411   4.967   6.608  0.2781  0.1685 -0.5470
  167SAPE   C3118817   1.374   4.841   6.644  0.6437 -0.2431  0.6834
  167SAPE   O3218818   1.392   4.742   6.573  0.5879 -0.3986  0.3492
  167SAPE   C3218819   1.317   4.843   6.792 -0.6128 -0.1383 -0.7840
  167SAPE   H2X18820   1.234   4.916   6.795  1.9583  3.0230 -0.9013
  167SAPE   H2Y18821   1.393   4.888   6.859 -0.8779  2.3752 -2.0208
  167SAPE   C2318822   0.967   5.323   6.599  1.0219 -0.1470  0.0812
  167SAPE   H3R18823   0.896   5.265   6.537 -1.2431  1.5660  0.9643
  167SAPE   H3S18824   0.945   5.431   6.590  2.3497  0.1709  0.4226
  167SAPE   C2418825   0.976   5.291   6.747  0.3287 -1.1241 -0.0484
  167SAPE   H4R18826   0.994   5.184   6.769  1.5730 -0.7204  1.0665
  167SAPE   H4S18827   0.875   5.320   6.781  1.1033  3.7718 -1.1393
  167SAPE   C2518828   1.080   5.379   6.812  0.5783  0.1242  0.6228
  167SAPE   H5R18829   1.064   5.484   6.783 -1.6662 -0.3369 -0.0275
  167SAPE   C2618830   1.190   5.339   6.881  0.4461 -0.2774  0.2464
  167SAPE   H6R18831   1.258   5.411   6.930 -0.0897  1.0488 -0.8623
  167SAPE   C2718832   1.220   5.201   6.915 -0.7506  0.5124 -0.4778
  167SAPE   H7R18833   1.288   5.170   6.833 -1.0863  0.7152 -0.8339
  167SAPE   H7S18834   1.126   5.143   6.906 -0.6185  0.4695 -1.6837
  167SAPE   C2818835   1.282   5.174   7.048 -0.3245 -0.5408  0.1355
  167SAPE   H8R18836   1.386   5.139   7.037  0.3865  1.0864  1.2742
  167SAPE   C2918837   1.235   5.179   7.171  0.3474 -0.5574  0.0252
  167SAPE   H9R18838   1.300   5.148   7.254  1.6049  0.0210 -0.7188
  167SAPE  C21018839   1.088   5.209   7.200  0.5750 -0.0339 -0.1326
  167SAPE  H10R18840   1.038   5.274   7.125 -2.3467 -0.3928  1.3669
  167SAPE  H10S18841   1.092   5.274   7.290 -1.0911 -2.7811  2.1090
  167SAPE  C21118842   1.007   5.087   7.231 -0.1849 -0.4489 -0.3391
  167SAPE  H11R18843   0.966   5.042   7.139 -1.9249 -1.5002  0.8819
  167SAPE  C21218844   0.980   5.037   7.347  0.4299  0.7731  0.1332
  167SAPE  H12R18845   0.922   4.944   7.354 -2.1760  2.1675 -1.1260
  167SAPE  C21318846   1.020   5.095   7.481 -0.0103 -0.7900 -0.2686
  167SAPE  H13R18847   1.128   5.122   7.479 -0.7597  2.7709  0.9873
  167SAPE  H13S18848   1.018   5.020   7.562 -0.6376  1.2588  1.6962
  167SAPE  C21418849   0.937   5.221   7.521  0.0823  0.4695 -0.5788
  167SAPE  H14R18850   0.864   5.254   7.445 -0.2862 -0.6725 -0.7409
  167SAPE  C21518851   0.941   5.282   7.639  1.0883 -0.7294  0.9678
  167SAPE  H15R18852   0.894   5.382   7.647  2.9494  0.4829 -1.6420
  167SAPE  C21618853   1.021   5.239   7.761 -0.5620 -0.1862 -0.6956
  167SAPE  H16R18854   1.125   5.276   7.743 -0.1774 -1.1233 -0.4343
  167SAPE  H16S18855   1.043   5.130   7.759  0.6740  0.0609 -2.4616
  167SAPE  C21718856   0.983   5.282   7.907 -0.3980 -0.6299  0.1837
  167SAPE  H17R18857   0.881   5.240   7.919  0.0212 -1.8496 -0.3407
  167SAPE  H17S18858   0.965   5.391   7.914 -0.0441 -0.6184  1.0100
  167SAPE  C21818859   1.094   5.246   8.010  0.5519 -0.7202  0.0723
  167SAPE  H18R18860   1.189   5.282   7.965  0.0363  0.2104 -0.3095
  167SAPE  H18S18861   1.102   5.135   8.015  0.4577 -0.6994  0.8799
  167SAPE  C21918862   1.086   5.298   8.153  0.6098 -0.8368  0.0467
  167SAPE  H19R18863   1.088   5.408   8.161  2.9704 -0.5126 -3.0094
  167SAPE  H19S18864   1.185   5.267   8.193  1.1044 -2.1897 -2.0729
  167SAPE  C22018865   0.970   5.232   8.233  0.7277 -0.1484  0.2672
  167SAPE  H20R18866   0.880   5.220   8.169  1.6260  1.0573 -1.2740
  167SAPE  H20S18867   0.944   5.298   8.319  1.3008  0.6523 -0.1640
  167SAPE  H20T18868   1.000   5.132   8.270  0.8427 -0.2091  0.0122
  167SAPE   C3318869   1.261   4.715   6.854 -0.2363  0.0059  0.0958
  167SAPE   H3X18870   1.351   4.652   6.869 -0.7650 -0.7148  0.3215
  167SAPE   H3Y18871   1.188   4.660   6.791  2.3398 -0.9976 -2.2088
  167SAPE   C3418872   1.204   4.753   6.986  0.5578 -0.8994 -0.8136
  167SAPE   H4X18873   1.134   4.837   6.964  0.6177 -0.9096 -1.0440
  167SAPE   H4Y18874   1.283   4.799   7.050 -1.3983  0.0985  1.0413
  167SAPE   C3518875   1.141   4.650   7.071 -0.3583  0.1043 -0.2131
  167SAPE   H5X18876   1.220   4.572   7.077 -0.2726  0.1536 -0.6877
  167SAPE   H5Y18877   1.050   4.619   7.016 -0.9394 -0.1208  0.8482
  167SAPE   C3618878   1.107   4.684   7.216  0.0476  0.0362  0.0978
  167SAPE   H6X18879   1.025   4.759   7.227 -2.3676 -2.3184 -0.7836
  167SAPE   H6Y18880   1.196   4.731   7.262  0.3466  0.3505 -0.7851
  167SAPE   C3718881   1.068   4.563   7.296 -0.4100  0.4841  0.0456
  167SAPE   H7X18882   1.144   4.483   7.285  0.1551  0.9551  0.4058
  167SAPE   H7Y18883   0.969   4.533   7.256 -0.6902 -0.2227  1.2256
  167SAPE   C3818884   1.054   4.604   7.442 -0.2624 -0.8346 -0.8308
  167SAPE   H8X18885   0.975   4.682   7.450  0.2181 -0.3523 -0.7062
  167SAPE   H8Y18886   1.146   4.660   7.470 -0.2032 -0.2255 -2.1488
  167SAPE   C3918887   1.012   4.494   7.534  0.6257  0.1716 -0.3011
  167SAPE   H9X18888   1.092   4.416   7.536 -0.0364 -0.5400  1.7108
  167SAPE   H9Y18889   0.920   4.452   7.489  1.1031 -1.1624 -0.0906
  167SAPE  C31018890   0.975   4.529   7.679 -0.2376  0.2817  0.6560
  167SAPE  H10X18891   0.889   4.598   7.690  0.3413  0.7732  2.3547
  167SAPE  H10Y18892   1.052   4.592   7.727 -0.3208  1.3039 -0.5065
  167SAPE  C31118893   0.940   4.405   7.763  0.1156  0.1484 -0.0288
  167SAPE  H11X18894   1.004   4.317   7.740 -1.2714 -0.5928 -1.2342
  167SAPE  H11Y18895   0.838   4.368   7.740  0.4801 -0.2715 -1.0460
  167SAPE  C31218896   0.940   4.443   7.908  0.2867  0.0721 -0.3078
  167SAPE  H12X18897   0.887   4.540   7.916 -0.6276 -0.4445  0.1694
  167SAPE  H12Y18898   1.042   4.464   7.945 -0.6947  0.6190  2.3510
  167SAPE  C31318899   0.862   4.342   7.995 -0.5540  0.1681 -0.4797
  167SAPE  H13X18900   0.915   4.246   7.975  2.2034  1.4730  0.0791
  167SAPE  H13Y18901   0.756   4.327   7.963 -0.7596 -0.6119  0.4886
  167SAPE  C31418902   0.866   4.380   8.140  0.4854 -0.4923  0.0286
  167SAPE  H14X18903   0.822   4.476   8.177 -0.5888 -1.3635  1.1037
  167SAPE  H14Y18904   0.974   4.379   8.166  0.5282 -1.2586 -0.1616
  167SAPE  C31518905   0.810   4.272   8.230 -0.5938  0.1092  0.8622
  167SAPE  H15X18906   0.873   4.182   8.217  1.8626  1.6914  1.1074
  167SAPE  H15Y18907   0.704   4.249   8.205 -0.9567 -0.3243  2.6378
  167SAPE  C31618908   0.824   4.321   8.377  0.5702  0.7463 -0.9405
  167SAPE  H16X18909   0.802   4.428   8.396 -1.6569  0.7362 -3.0296
  167SAPE  H16Y18910   0.934   4.312   8.396  0.0035 -0.8612  2.4586
  167SAPE  C31718911   0.754   4.223   8.475 -0.3704 -0.0062  0.7329
  167SAPE  H17X18912   0.656   4.187   8.438 -0.1587 -1.1935  1.2944
  167SAPE  H17Y18913   0.747   4.280   8.570  0.9807  2.9412 -0.7919
  167SAPE  C31818914   0.836   4.101   8.511  0.0952 -0.1930 -0.6306
  167SAPE  H18X18915   0.827   4.016   8.440  1.4960  1.4846 -2.9710
  167SAPE  H18Y18916   0.798   4.073   8.611 -1.6474 -0.2810 -1.2739
  167SAPE  H18Z18917   0.946   4.118   8.517 -0.1190  0.7754  1.1603
  168SAPE     N18918   3.276   0.177   6.289  0.4081 -0.2201 -0.1186
  168SAPE   HN118919   3.222   0.088   6.288  1.5545 -0.9621  0.9025
  168SAPE   HN218920   3.261   0.225   6.198 -2.4583  0.5418  0.6655
  168SAPE   HN318921   3.373   0.145   6.308  1.0378  1.7002  0.0691
  168SAPE   C1218922   3.230   0.270   6.394  0.3731 -0.5114  0.7942
  168SAPE  H12A18923   3.148   0.329   6.348 -0.5289 -1.7028  0.8434
  168SAPE  H12B18924   3.319   0.332   6.421  0.5342  0.6660 -2.0707
  168SAPE   C1118925   3.157   0.196   6.504 -0.2977  0.8593  0.3344
  168SAPE  H11A18926   3.143   0.269   6.587 -0.9066  0.2368  0.7863
  168SAPE  H11B18927   3.225   0.124   6.553  0.3922  0.8959 -0.5516
  168SAPE     P18928   2.982   0.031   6.565  0.5273 -0.0172 -0.4956
  168SAPE   O1318929   2.848   0.001   6.507  0.2512 -1.0030  0.4689
  168SAPE   O1418930   3.081  -0.079   6.568  1.4682 -0.1482  0.2002
  168SAPE   O1218931   3.029   0.140   6.467 -0.0312  0.4350 -0.4085
  168SAPE   O1118932   2.975   0.102   6.700 -0.7768  0.5626  0.6930
  168SAPE    C118933   2.894   0.215   6.737  0.8440 -0.1410  0.6165
  168SAPE    HA18934   2.918   0.303   6.674  1.7880 -0.7280  0.1298
  168SAPE    HB18935   2.789   0.202   6.702  0.4566  0.9443  1.3206
  168SAPE    C218936   2.895   0.240   6.889 -0.8459  1.0595  0.0784
  168SAPE    HS18937   2.838   0.331   6.916 -0.5136  0.8645  1.4934
  168SAPE   O2118938   3.032   0.246   6.936 -0.6950 -0.3572  0.1640
  168SAPE   C2118939   3.098   0.358   6.891  0.6248 -0.1289  1.3153
  168SAPE   O2218940   3.044   0.445   6.824 -0.7574  0.0793 -0.2610
  168SAPE   C2218941   3.238   0.344   6.935  0.7976 -0.2339 -0.5106
  168SAPE   H2R18942   3.269   0.243   6.898 -1.7089 -0.8527 -1.1196
  168SAPE   H2S18943   3.301   0.422   6.888 -0.1804  0.5870 -0.4850
  168SAPE    C318944   2.823   0.128   6.961 -0.4419 -0.4854  0.1963
  168SAPE    HX18945   2.891   0.040   6.957 -0.6202 -0.9050  3.4117
  168SAPE    HY18946   2.726   0.117   6.907 -1.1538  3.3390  0.4653
  168SAPE   O3118947   2.806   0.155   7.102  0.2511  0.0999  0.0187
  168SAPE   C3118948   2.794   0.044   7.165 -0.3795 -0.6528 -1.0424
  168SAPE   O3218949   2.782  -0.068   7.130  0.0316  0.0105  0.6771
  168SAPE   C3218950   2.791   0.082   7.314 -0.0279  0.1481  0.1733
  168SAPE   H2X18951   2.796   0.192   7.320  2.9235  0.1783 -0.8290
  168SAPE   H2Y18952   2.882   0.039   7.362  0.4323  0.8258 -0.0774
  168SAPE   C2318953   3.252   0.347   7.091 -0.7715 -0.4158 -0.5890
  168SAPE   H3R18954   3.359   0.335   7.121 -0.7664  1.1002  0.1127
  168SAPE   H3S18955   3.187   0.268   7.134 -1.5505 -0.2267 -1.4086
  168SAPE   C2418956   3.218   0.483   7.146 -0.5879 -0.1364 -0.9259
  168SAPE   H4R18957   3.269   0.551   7.075  0.1175 -2.0007 -2.2820
  168SAPE   H4S18958   3.269   0.506   7.242 -0.2700  2.2947 -1.6097
  168SAPE   C2518959   3.069   0.513   7.162  0.1131  0.4680  0.3167
  168SAPE   H5R18960   3.003   0.534   7.076 -1.0344 -0.9580  0.8036
  168SAPE   C2618961   3.012   0.510   7.283 -0.7173 -0.5820  0.0145
  168SAPE   H6R18962   2.903   0.522   7.294 -0.4606 -0.1783  3.1101
  168SAPE   C2718963   3.083   0.491   7.418  0.6194  0.1389  0.4197
  168SAPE   H7R18964   3.020   0.531   7.501 -1.2067 -0.0455 -0.8245
  168SAPE   H7S18965   3.180   0.544   7.428  1.0647 -1.0768  4.8235
  168SAPE   C2818966   3.111   0.348   7.439 -0.1778  0.1886  0.0899
  168SAPE   H8R18967   3.131   0.282   7.353 -0.8732  1.8618 -1.4008
  168SAPE   C2918968   3.113   0.292   7.566 -0.2834 -0.0137 -0.0982
  168SAPE   H9R18969   3.140   0.186   7.573 -0.2624 -0.2260 -2.5663
  168SAPE  C21018970   3.086   0.352   7.700 -0.7528  0.4374 -0.0862
  168SAPE  H10R18971   3.086   0.264   7.768  3.6098  0.6286  0.4478
  168SAPE  H10S18972   2.984   0.397   7.703 -1.2097 -0.4351 -1.7043
  168SAPE  C21118973   3.187   0.444   7.750  0.0231 -0.9694 -0.8198
  168SAPE  H11R18974   3.197   0.534   7.688  3.1182 -2.2809 -2.4443
  168SAPE  C21218975   3.274   0.440   7.856  0.1749 -0.1660 -0.3215
  168SAPE  H12R18976   3.336   0.529   7.875  1.3874 -0.9133 -0.6603
  168SAPE  C21318977   3.290   0.325   7.950 -0.1685 -0.0506 -1.0425
  168SAPE  H13R18978   3.333   0.249   7.882  2.2087  0.6918 -0.4718
  168SAPE  H13S18979   3.194   0.286   7.989 -0.0674  0.9349  0.2887
  168SAPE  C21418980   3.385   0.337   8.060  0.1053 -0.0859 -0.0033
  168SAPE  H14R18981   3.454   0.423   8.057 -1.2418  1.3393  4.0036
  168SAPE  C21518982   3.391   0.263   8.167  0.2378  0.1987  0.1413
  168SAPE  H15R18983   3.461   0.290   8.248 -1.0817 -1.3881  1.8843
  168SAPE  C21618984   3.316   0.132   8.189  0.1421 -0.0382 -0.4455
  168SAPE  H16R18985   3.242   0.105   8.111 -2.4652 -3.0763  2.7436
  168SAPE  H16S18986   3.248   0.150   8.276  0.5582 -0.3044 -0.0635
  168SAPE  C21718987   3.407   0.012   8.228 -0.5815  0.6098 -0.4246
  168SAPE  H17R18988   3.480  -0.001   8.146  1.1600  0.6295  1.0624
  168SAPE  H17S18989   3.338  -0.076   8.229  0.3964 -0.2105 -1.8855
  168SAPE  C21818990   3.475   0.026   8.368  0.2715  0.4954  0.2147
  168SAPE  H18R18991   3.399   0.070   8.435  0.6994 -1.2382  1.9143
  168SAPE  H18S18992   3.560   0.096   8.350 -1.5678  2.5425 -1.0037
  168SAPE  C21918993   3.528  -0.106   8.425 -0.4533  0.4209  0.1237
  168SAPE  H19R18994   3.570  -0.069   8.521 -1.4921  2.2888 -0.0881
  168SAPE  H19S18995   3.601  -0.150   8.354 -1.2817 -0.8479  0.0129
  168SAPE  C22018996   3.420  -0.215   8.453 -0.6840 -0.3387 -0.2762
  168SAPE  H20R18997   3.377  -0.237   8.354  0.8377 -0.4458 -0.9396
  168SAPE  H20S18998   3.345  -0.162   8.515 -0.1017  1.4508 -1.0259
  168SAPE  H20T18999   3.453  -0.310   8.500  0.0937 -0.1955 -0.5170
  168SAPE   C3319000   2.668   0.034   7.390 -0.4469 -0.1183 -0.7078
  168SAPE   H3X19001   2.661  -0.076   7.374 -3.0163 -0.3818  1.6053
  168SAPE   H3Y19002   2.573   0.070   7.345  0.2524 -0.8986 -2.9323
  168SAPE   C3419003   2.672   0.076   7.542  0.1198  0.5542  0.0021
  168SAPE   H4X19004   2.568   0.105   7.569  0.1849  0.8359 -0.0421
  168SAPE   H4Y19005   2.724   0.174   7.532 -0.2591  0.8196  0.5587
  168SAPE   C3519006   2.744  -0.023   7.636  1.2842  0.3242  0.3533
  168SAPE   H5X19007   2.840  -0.056   7.592 -0.7947 -2.4924 -2.5529
  168SAPE   H5Y19008   2.679  -0.113   7.647 -0.0227  1.4377  2.6113
  168SAPE   C3619009   2.779   0.046   7.770  0.1688  0.1750 -0.7852
  168SAPE   H6X19010   2.845   0.132   7.745  1.2396 -0.5400 -0.4669
  168SAPE   H6Y19011   2.847  -0.022   7.825 -2.7980 -2.3203  0.0457
  168SAPE   C3719012   2.668   0.119   7.858 -0.0031 -0.1569 -0.5454
  168SAPE   H7X19013   2.583   0.151   7.794  1.9583  2.7343 -1.9263
  168SAPE   H7Y19014   2.719   0.202   7.911  1.7180 -1.9609  0.7601
  168SAPE   C3819015   2.606   0.031   7.957  0.0917 -0.0675 -0.2317
  168SAPE   H8X19016   2.683  -0.039   7.995  1.8265  1.3813 -0.9098
  168SAPE   H8Y19017   2.541  -0.037   7.898  0.1185 -0.7167  0.4702
  168SAPE   C3919018   2.525   0.109   8.062  0.3456 -0.0671  0.0844
  168SAPE   H9X19019   2.470   0.188   8.008 -0.5524 -1.0865 -0.5296
  168SAPE   H9Y19020   2.592   0.161   8.134  1.9281 -2.7590  0.7129
  168SAPE  C31019021   2.433   0.024   8.152 -0.1394 -0.3638 -0.3386
  168SAPE  H10X19022   2.393  -0.067   8.103 -1.0009 -1.1975  1.8181
  168SAPE  H10Y19023   2.342   0.082   8.180 -0.3633 -0.9245  0.1245
  168SAPE  C31119024   2.499  -0.022   8.287 -0.3031 -0.3295  0.6933
  168SAPE  H11X19025   2.529   0.065   8.350  1.4175 -0.9870  0.8386
  168SAPE  H11Y19026   2.589  -0.077   8.252 -1.5184 -2.4803  0.7602
  168SAPE  C31219027   2.427  -0.124   8.380  0.1932  0.1114  0.1444
  168SAPE  H12X19028   2.421  -0.217   8.318  1.3096 -0.1467  0.4092
  168SAPE  H12Y19029   2.325  -0.079   8.385  0.2151  0.1582  0.1588
  168SAPE  C31319030   2.497  -0.142   8.517 -0.7438  0.5593  0.1129
  168SAPE  H13X19031   2.603  -0.152   8.488 -0.2039  0.2891  2.0246
  168SAPE  H13Y19032   2.467  -0.233   8.573  0.1365 -0.4576 -1.0137
  168SAPE  C31419033   2.480  -0.027   8.618 -1.1010  0.3718 -0.4982
  168SAPE  H14X19034   2.372  -0.012   8.643 -0.7600  0.8260  0.7600
  168SAPE  H14Y19035   2.516   0.064   8.566  2.4304 -1.2774 -1.2148
  168SAPE  C31519036   2.557  -0.047   8.746  0.1395 -0.4382  0.4784
  168SAPE  H15X19037   2.659  -0.044   8.704  0.9090 -3.5103  1.8552
  168SAPE  H15Y19038   2.543  -0.145   8.797  0.6099 -0.0485  1.3743
  168SAPE  C31619039   2.542   0.064   8.839  0.0191  0.2629  0.1060
  168SAPE  H16X19040   2.574   0.162   8.796 -0.7804  0.5212  0.0666
  168SAPE  H16Y19041   2.610   0.042   8.924  0.8416 -1.1953 -0.9026
  168SAPE  C31719042   2.406   0.100   8.898 -0.5401 -0.1532  0.5395
  168SAPE  H17X19043   2.337   0.135   8.819 -0.4742  0.4383  0.7413
  168SAPE  H17Y19044   2.411   0.187   8.966 -1.7159  0.7746 -0.5116
  168SAPE  C31819045   2.334  -0.003   8.973 -0.2804  0.5766  0.1976
  168SAPE  H18X19046   2.366  -0.022   9.077 -1.6265  0.3798  0.5954
  168SAPE  H18Y19047   2.335  -0.097   8.914  2.5671 -0.2581  1.4245
  168SAPE  H18Z19048   2.228   0.026   8.993 -0.5279  1.5378 -2.1646
  169SAPE     N19049   5.956   6.059   6.000 -0.4283 -0.0664 -0.1463
  169SAPE   HN119050   5.882   6.002   5.953 -0.2425  1.6712 -2.7988
  169SAPE   HN219051   5.914   6.147   6.036 -1.2817 -0.9520  1.0841
  169SAPE   HN319052   6.023   6.094   5.929  0.1187 -2.0629 -0.6783
  169SAPE   C1219053   6.021   6.010   6.123 -0.8525 -0.1796  0.0638
  169SAPE  H12A19054   6.029   5.899   6.113 -1.7976 -0.2795  0.2539
  169SAPE  H12B19055   5.964   6.029   6.216 -1.0662  2.5814 -0.5637
  169SAPE   C1119056   6.163   6.067   6.142  0.2785 -0.1988 -0.8949
  169SAPE  H11A19057   6.148   6.177   6.150  3.1860  0.1660  1.2233
  169SAPE  H11B19058   6.233   6.047   6.058  1.0723  1.7179 -0.7482
  169SAPE     P19059   6.302   6.113   6.363 -0.0269  0.2012  0.0244
  169SAPE   O1319060   6.353   6.022   6.471 -0.0461  0.1859  0.3124
  169SAPE   O1419061   6.405   6.192   6.292  0.3031  0.2261 -0.0640
  169SAPE   O1219062   6.215   6.019   6.266 -0.0877 -0.1165 -0.3449
  169SAPE   O1119063   6.202   6.221   6.428  0.1639  0.5316 -0.0066
  169SAPE    C119064   6.062   6.202   6.454  0.0171 -0.1909 -0.3440
  169SAPE    HA19065   5.999   6.260   6.384 -1.0084 -0.3041  0.4544
  169SAPE    HB19066   6.026   6.097   6.439 -0.5598 -0.0242 -0.1559
  169SAPE    C219067   6.038   6.252   6.598 -0.1863 -0.0276  0.4401
  169SAPE    HS19068   6.054   6.361   6.607 -0.5096 -0.0018  0.7237
  169SAPE   O2119069   6.124   6.179   6.681  0.3053 -0.2126 -1.0182
  169SAPE   C2119070   6.215   6.232   6.753 -0.1945  0.4913  0.7138
  169SAPE   O2219071   6.259   6.347   6.754  0.4478  1.1553  0.0118
  169SAPE   C2219072   6.289   6.129   6.834  0.1524  0.0886 -0.1280
  169SAPE   H2R19073   6.209   6.084   6.897 -1.0795  2.6937  0.2960
  169SAPE   H2S19074   6.331   6.057   6.761  0.3361 -1.7301  1.6829
  169SAPE    C319075   5.892   6.228   6.640  0.3949  0.4086  0.1894
  169SAPE    HX19076   5.854   6.128   6.609  2.5728 -0.4257  0.0040
  169SAPE    HY19077   5.844   6.305   6.576 -0.0237 -0.0110 -0.0097
  169SAPE   O3119078   5.867   6.256   6.774  0.1601 -0.1623 -0.6133
  169SAPE   C3119079   5.797   6.160   6.845 -0.5289 -0.9090  0.3121
  169SAPE   O3219080   5.735   6.066   6.801 -0.5340  0.5094  0.3887
  169SAPE   C3219081   5.801   6.191   6.993 -0.3633 -0.2834 -0.0517
  169SAPE   H2X19082   5.745   6.110   7.046 -1.0146 -1.3648 -2.2726
  169SAPE   H2Y19083   5.736   6.281   6.999 -1.4053 -1.0417  0.4388
  169SAPE   C2319084   6.407   6.180   6.910 -0.0701 -0.5099 -0.4642
  169SAPE   H3R19085   6.378   6.267   6.973  0.6853 -0.2308 -0.4873
  169SAPE   H3S19086   6.486   6.205   6.835  2.7314 -0.3292  2.3096
  169SAPE   C2419087   6.464   6.079   7.016  0.4716 -0.4841  0.2136
  169SAPE   H4R19088   6.389   6.066   7.096  1.3922 -0.6452  1.0660
  169SAPE   H4S19089   6.547   6.122   7.076  2.5889  1.1663 -3.5540
  169SAPE   C2519090   6.499   5.941   6.973 -0.1902 -0.9468  0.2274
  169SAPE   H5R19091   6.550   5.932   6.876  1.8625  1.2901  1.0163
  169SAPE   C2619092   6.467   5.825   7.036  0.1290 -0.4463  0.8338
  169SAPE   H6R19093   6.510   5.732   6.997 -0.1309 -0.9842  1.8209
  169SAPE   C2719094   6.397   5.809   7.167  0.8538  0.2297 -0.4412
  169SAPE   H7R19095   6.373   5.906   7.215  0.2915  0.6409 -1.5342
  169SAPE   H7S19096   6.461   5.756   7.241  0.4713  0.0624 -0.2285
  169SAPE   C2819097   6.264   5.734   7.159 -0.0491 -0.1110  0.4227
  169SAPE   H8R19098   6.239   5.718   7.053  2.1421  0.1389 -0.1933
  169SAPE   C2919099   6.183   5.678   7.257 -0.1563 -0.7121  0.2526
  169SAPE   H9R19100   6.083   5.648   7.224  0.6897 -2.9415 -0.4779
  169SAPE  C21019101   6.207   5.676   7.407  1.0103 -0.6656 -0.0399
  169SAPE  H10R19102   6.298   5.620   7.439  1.0113 -0.0925  1.0207
  169SAPE  H10S19103   6.121   5.617   7.446  0.2644  0.8016  0.5888
  169SAPE  C21119104   6.208   5.810   7.479  0.2887 -0.0817 -0.2307
  169SAPE  H11R19105   6.148   5.885   7.428  0.7627  0.4866  0.0347
  169SAPE  C21219106   6.268   5.846   7.594  0.2734  0.1231  0.2396
  169SAPE  H12R19107   6.228   5.942   7.631 -1.1591 -0.5511  0.4955
  169SAPE  C21319108   6.356   5.751   7.674  0.2815  0.1091  0.1677
  169SAPE  H13R19109   6.391   5.664   7.615 -3.3304 -0.5921 -1.1624
  169SAPE  H13S19110   6.291   5.708   7.753 -0.2901 -0.7293 -0.7404
  169SAPE  C21419111   6.472   5.823   7.737 -0.3761  0.9964  0.1530
  169SAPE  H14R19112   6.559   5.819   7.670  0.0550  1.6446  0.6603
  169SAPE  C21519113   6.480   5.872   7.863 -0.2683  0.0759 -0.1731
  169SAPE  H15R19114   6.570   5.927   7.895 -0.3392  0.9867 -1.4513
  169SAPE  C21619115   6.368   5.888   7.961  0.5653 -0.2647  0.6370
  169SAPE  H16R19116   6.295   5.804   7.963 -0.4427  0.4416 -1.7935
  169SAPE  H16S19117   6.304   5.974   7.929  1.1363  0.5388  1.6209
  169SAPE  C21719118   6.415   5.913   8.107  0.6354  0.2996  0.1564
  169SAPE  H17R19119   6.464   6.013   8.110  2.5439 -0.5844  0.0080
  169SAPE  H17S19120   6.481   5.830   8.139 -1.0054 -1.5495 -1.0592
  169SAPE  C21819121   6.308   5.918   8.221 -0.5357 -0.2688  1.3501
  169SAPE  H18R19122   6.242   5.828   8.223 -3.5497  1.4175 -3.3930
  169SAPE  H18S19123   6.239   6.004   8.206  0.4189  0.2224 -0.4242
  169SAPE  C21919124   6.369   5.939   8.354  0.0866 -0.5119 -0.0830
  169SAPE  H19R19125   6.289   5.952   8.429 -0.4215  1.2523 -0.8767
  169SAPE  H19S19126   6.419   6.038   8.343 -0.1068 -0.5546 -1.5675
  169SAPE  C22019127   6.472   5.834   8.398  0.6599  0.9343  0.5094
  169SAPE  H20R19128   6.431   5.731   8.395  1.7763  0.4299  1.4998
  169SAPE  H20S19129   6.514   5.851   8.499  2.2264 -0.7497  0.1832
  169SAPE  H20T19130   6.559   5.837   8.328 -0.7770  1.2035 -1.3471
  169SAPE   C3319131   5.941   6.218   7.060 -0.5150  0.0022  0.9437
  169SAPE   H3X19132   5.934   6.294   7.140 -1.2348  1.1748 -0.1983
  169SAPE   H3Y19133   5.998   6.284   6.991  0.3406  1.3725  2.8683
  169SAPE   C3419134   6.020   6.096   7.089  0.0429  0.3610  0.7707
  169SAPE   H4X19135   6.126   6.113   7.117  0.5860  2.3461 -2.0489
  169SAPE   H4Y19136   6.042   6.035   6.999  0.9452  0.4769  0.9026
  169SAPE   C3519137   5.958   6.005   7.189 -0.3519  0.4035 -0.4810
  169SAPE   H5X19138   6.023   5.915   7.198  2.3637  2.0290 -2.3989
  169SAPE   H5Y19139   5.860   5.962   7.158 -0.5627  1.6924 -1.6878
  169SAPE   C3619140   5.926   6.062   7.332 -0.0784  0.3051  0.1222
  169SAPE   H6X19141   5.846   6.138   7.318 -0.0135  0.1222 -1.4900
  169SAPE   H6Y19142   6.020   6.094   7.382 -0.5544  1.6875  0.1812
  169SAPE   C3719143   5.875   5.947   7.421 -0.0117  0.8166  0.6580
  169SAPE   H7X19144   5.935   5.854   7.414  1.1829  1.6384 -0.4480
  169SAPE   H7Y19145   5.773   5.919   7.385 -0.6665  2.4217  1.1734
  169SAPE   C3819146   5.877   5.997   7.564  0.7016 -0.1175 -0.1462
  169SAPE   H8X19147   5.823   6.094   7.560 -2.2347 -1.6734 -1.6133
  169SAPE   H8Y19148   5.984   6.017   7.583  0.9124 -1.7561  0.5370
  169SAPE   C3919149   5.833   5.900   7.662 -0.5098 -0.2411 -0.9626
  169SAPE   H9X19150   5.885   5.801   7.656 -3.5765 -2.2584  1.9109
  169SAPE   H9Y19151   5.727   5.879   7.635 -0.2297  0.9413 -3.2407
  169SAPE  C31019152   5.854   5.948   7.801 -0.0377  0.6338  0.2293
  169SAPE  H10X19153   5.779   6.025   7.829  0.1989  0.6045  0.9611
  169SAPE  H10Y19154   5.954   5.995   7.813  0.3132 -0.6432  3.2874
  169SAPE  C31119155   5.837   5.837   7.904 -0.8436  0.5871  0.7092
  169SAPE  H11X19156   5.940   5.799   7.921  0.3534  3.7835  1.1537
  169SAPE  H11Y19157   5.770   5.756   7.868 -0.7005  0.1926  1.3238
  169SAPE  C31219158   5.771   5.874   8.035 -0.5425  0.2462  0.0091
  169SAPE  H12X19159   5.664   5.887   8.005 -0.8950 -2.4282 -0.2093
  169SAPE  H12Y19160   5.833   5.959   8.068  0.6704 -0.9568  0.8917
  169SAPE  C31319161   5.773   5.758   8.140 -0.0821 -0.3780  0.2561
  169SAPE  H13X19162   5.875   5.720   8.120 -0.3124 -0.5291 -0.7338
  169SAPE  H13Y19163   5.703   5.677   8.109 -0.9657  1.4074 -2.9005
  169SAPE  C31419164   5.750   5.800   8.282  0.3991 -0.2113  0.1346
  169SAPE  H14X19165   5.730   5.712   8.347 -2.7890  0.5004  0.2871
  169SAPE  H14Y19166   5.651   5.849   8.273  1.0968  1.2101 -0.0197
  169SAPE  C31519167   5.860   5.897   8.337  0.3665 -0.5195  0.7719
  169SAPE  H15X19168   5.844   5.992   8.282 -0.9506 -0.8899  0.4843
  169SAPE  H15Y19169   5.961   5.853   8.326  0.0094 -1.2736  0.3804
  169SAPE  C31619170   5.839   5.926   8.490 -0.2716 -0.0804 -0.0055
  169SAPE  H16X19171   5.921   5.996   8.518 -0.9042  0.4224  0.6640
  169SAPE  H16Y19172   5.851   5.827   8.538 -3.5194 -0.7101 -0.2388
  169SAPE  C31719173   5.702   5.987   8.528 -0.0125  0.4333  0.0537
  169SAPE  H17X19174   5.624   5.909   8.520 -1.5234  1.8705  0.2358
  169SAPE  H17Y19175   5.670   6.066   8.457 -0.0686  0.4835  0.1333
  169SAPE  C31819176   5.698   6.050   8.669 -0.3992  0.2939 -0.2545
  169SAPE  H18X19177   5.733   5.967   8.734  3.0797  0.5405 -1.6222
  169SAPE  H18Y19178   5.596   6.084   8.698 -1.6863  0.6470 -4.4965
  169SAPE  H18Z19179   5.763   6.139   8.669 -1.1540  0.8567  0.0056
  170SAPE     N19180   2.175   4.079   6.073  0.1719  0.5200 -0.1418
  170SAPE   HN119181   2.163   4.174   6.033 -1.7997  0.2059 -0.3713
  170SAPE   HN219182   2.276   4.055   6.064  0.2403  0.5527  0.4788
  170SAPE   HN319183   2.119   4.016   6.013  2.5680  1.5424 -3.7428
  170SAPE   C1219184   2.118   4.096   6.207 -0.3748  0.6532 -0.1759
  170SAPE  H12A19185   2.175   4.172   6.265  0.1082 -0.9376  1.5243
  170SAPE  H12B19186   2.122   4.002   6.266  1.0873  0.7489 -0.0908
  170SAPE   C1119187   1.981   4.163   6.213 -0.6762 -0.2271 -0.2014
  170SAPE  H11A19188   1.972   4.171   6.324 -0.6138 -0.8385 -0.1477
  170SAPE  H11B19189   1.901   4.099   6.169 -1.0561  1.0686 -1.4717
  170SAPE     P19190   1.947   4.433   6.220 -0.0044 -0.4128  0.4098
  170SAPE   O1319191   2.063   4.507   6.169  0.3622  0.3609  0.2736
  170SAPE   O1419192   1.814   4.481   6.188  0.3857  0.0136  0.1524
  170SAPE   O1219193   1.980   4.293   6.148  0.3362 -0.2917  0.1671
  170SAPE   O1119194   1.952   4.399   6.374 -0.3049  0.5141  0.2468
  170SAPE    C119195   2.047   4.444   6.475 -0.0556  0.3215  0.7933
  170SAPE    HA19196   2.099   4.359   6.525 -0.5744 -0.0014  0.7883
  170SAPE    HB19197   2.126   4.507   6.426 -0.2692  0.9245  1.2134
  170SAPE    C219198   1.968   4.521   6.579 -0.8658  0.6416 -0.0107
  170SAPE    HS19199   2.040   4.582   6.638 -0.2293  0.4128 -0.5375
  170SAPE   O2119200   1.895   4.429   6.667 -0.4584 -0.8197 -0.4493
  170SAPE   C2119201   1.954   4.379   6.774 -0.4847  0.3609  0.0401
  170SAPE   O2219202   2.065   4.414   6.811 -0.7087 -0.7372 -0.0873
  170SAPE   C2219203   1.852   4.288   6.843 -0.1709 -0.0423  0.0400
  170SAPE   H2R19204   1.754   4.289   6.791  0.0100 -3.8309 -0.6966
  170SAPE   H2S19205   1.884   4.181   6.833  1.3567  0.4933 -1.2974
  170SAPE    C319206   1.873   4.623   6.530  0.4320 -0.3507 -0.5452
  170SAPE    HX19207   1.784   4.565   6.498 -1.7626  0.8574  2.7909
  170SAPE    HY19208   1.914   4.681   6.445 -0.5576  1.4086  0.1066
  170SAPE   O3119209   1.832   4.711   6.644  0.1705 -0.2157 -0.0462
  170SAPE   C3119210   1.895   4.829   6.652 -0.2618 -1.3257 -0.1200
  170SAPE   O3219211   1.993   4.858   6.581  0.2019 -0.1212  0.4321
  170SAPE   C3219212   1.839   4.929   6.759  0.3491 -0.3142  0.3583
  170SAPE   H2X19213   1.791   5.018   6.714 -1.2238 -0.7284  1.1338
  170SAPE   H2Y19214   1.919   4.960   6.830  0.3291  1.4792 -0.3489
  170SAPE   C2319215   1.840   4.336   6.988 -0.2504  0.6757  0.8311
  170SAPE   H3R19216   1.944   4.331   7.027  0.0968 -0.7081 -0.2200
  170SAPE   H3S19217   1.787   4.263   7.054  0.1538  0.4963  0.9597
  170SAPE   C2419218   1.785   4.476   7.012 -0.0241  0.1530 -0.0793
  170SAPE   H4R19219   1.855   4.539   6.954  0.2665 -0.3438 -0.2731
  170SAPE   H4S19220   1.794   4.490   7.121  1.1523  0.0200 -0.1495
  170SAPE   C2519221   1.641   4.464   6.964 -0.4733  0.5148  0.8449
  170SAPE   H5R19222   1.644   4.459   6.854 -1.1200 -0.6239  0.8699
  170SAPE   C2619223   1.523   4.452   7.031  1.4285  0.0888 -0.2659
  170SAPE   H6R19224   1.428   4.450   6.975  0.0845 -0.9272  1.9080
  170SAPE   C2719225   1.496   4.464   7.183  0.0016  0.2845 -0.0505
  170SAPE   H7R19226   1.390   4.495   7.187 -0.1220  0.3342 -2.2946
  170SAPE   H7S19227   1.543   4.561   7.211 -1.8110  0.9117  0.9278
  170SAPE   C2819228   1.527   4.350   7.266 -0.6940  0.6755 -0.9452
  170SAPE   H8R19229   1.594   4.272   7.228 -1.1849 -0.2701  0.0991
  170SAPE   C2919230   1.490   4.349   7.394  0.0567  0.3636  0.0872
  170SAPE   H9R19231   1.505   4.253   7.446 -3.0234 -0.4308 -0.3127
  170SAPE  C21019232   1.416   4.461   7.469 -0.3856  0.1263 -0.4193
  170SAPE  H10R19233   1.311   4.426   7.470 -0.5252  0.5288  0.8177
  170SAPE  H10S19234   1.418   4.555   7.409 -1.2457  0.4498  0.0454
  170SAPE  C21119235   1.475   4.497   7.604  0.0570  0.3329  0.4172
  170SAPE  H11R19236   1.565   4.557   7.587 -0.9327  2.0366  0.9879
  170SAPE  C21219237   1.434   4.457   7.724  0.0170 -0.5074 -0.2820
  170SAPE  H12R19238   1.501   4.471   7.811 -1.4078 -1.3170  0.9975
  170SAPE  C21319239   1.308   4.372   7.749 -0.1119 -0.0836 -0.2060
  170SAPE  H13R19240   1.249   4.352   7.657 -2.5259  2.2315  0.6960
  170SAPE  H13S19241   1.238   4.428   7.815 -1.3556  0.1731 -1.6876
  170SAPE  C21419242   1.335   4.242   7.804 -0.1019  0.2409  0.4239
  170SAPE  H14R19243   1.363   4.174   7.722 -1.1423 -0.6170  0.7641
  170SAPE  C21519244   1.334   4.182   7.923 -0.4427 -1.0189  0.5428
  170SAPE  H15R19245   1.367   4.076   7.921  2.2036 -0.2944 -1.8598
  170SAPE  C21619246   1.303   4.257   8.047 -0.0437  0.1929 -0.2026
  170SAPE  H16R19247   1.235   4.210   8.121  0.6724  1.5512  1.3787
  170SAPE  H16S19248   1.250   4.350   8.019 -2.0517 -0.9404 -0.3541
  170SAPE  C21719249   1.439   4.287   8.121  0.3375 -0.2838 -0.1666
  170SAPE  H17R19250   1.429   4.365   8.199  3.7009  0.6042 -0.4357
  170SAPE  H17S19251   1.509   4.328   8.044  1.3269  0.2901  1.0080
  170SAPE  C21819252   1.507   4.160   8.179 -0.6964 -0.8816  0.4746
  170SAPE  H18R19253   1.607   4.196   8.212 -2.1635  2.0873  2.1727
  170SAPE  H18S19254   1.509   4.083   8.099 -1.8303 -1.5657  1.0819
  170SAPE  C21919255   1.437   4.096   8.293 -0.8450  0.5270 -0.2818
  170SAPE  H19R19256   1.489   4.004   8.327 -0.1134  0.6373 -1.0821
  170SAPE  H19S19257   1.335   4.072   8.257 -0.9644 -1.5653  1.2875
  170SAPE  C22019258   1.426   4.197   8.413 -0.6033  0.0084 -0.4106
  170SAPE  H20R19259   1.386   4.148   8.504  0.4765  0.0020  0.0772
  170SAPE  H20S19260   1.354   4.277   8.385 -0.6161 -0.2225 -1.0715
  170SAPE  H20T19261   1.524   4.245   8.431 -2.0399  2.8704  0.2278
  170SAPE   C3319262   1.742   4.856   6.850 -0.0343  0.4313  0.0471
  170SAPE   H3X19263   1.786   4.759   6.881 -1.9808 -0.8201 -0.9260
  170SAPE   H3Y19264   1.650   4.837   6.790  0.5135  2.0353 -1.3503
  170SAPE   C3419265   1.718   4.934   6.978  0.1520  0.1259 -1.0223
  170SAPE   H4X19266   1.666   5.026   6.943  0.9493  0.6866 -0.7586
  170SAPE   H4Y19267   1.806   4.972   7.035  0.0517 -0.5679 -0.3840
  170SAPE   C3519268   1.640   4.857   7.086  0.3016 -0.2353  0.7539
  170SAPE   H5X19269   1.693   4.760   7.100 -0.4010 -0.6328  0.7474
  170SAPE   H5Y19270   1.544   4.831   7.036  0.8771  1.2260 -1.2419
  170SAPE   C3619271   1.607   4.947   7.209 -0.0856 -0.9336  0.3353
  170SAPE   H6X19272   1.579   5.049   7.175 -0.5125 -0.1226  2.8795
  170SAPE   H6Y19273   1.706   4.943   7.260 -0.0299 -2.5890  0.1680
  170SAPE   C3719274   1.502   4.888   7.297  0.4706  0.6929  0.8511
  170SAPE   H7X19275   1.527   4.781   7.316  2.3663  0.4532 -2.2593
  170SAPE   H7Y19276   1.405   4.890   7.243 -0.1883  0.6522  2.0001
  170SAPE   C3819277   1.492   4.960   7.435  0.5939  0.5472 -0.4347
  170SAPE   H8X19278   1.462   5.066   7.422 -2.0095 -0.1375 -0.6428
  170SAPE   H8Y19279   1.589   4.955   7.490  0.8439  0.4830 -0.8809
  170SAPE   C3919280   1.393   4.887   7.521  0.6378 -0.1577  0.7635
  170SAPE   H9X19281   1.421   4.780   7.518 -1.8541 -0.8712  0.3962
  170SAPE   H9Y19282   1.295   4.896   7.470  0.9368 -1.5134 -0.0829
  170SAPE  C31019283   1.360   4.937   7.664  0.6162  0.2298  0.0680
  170SAPE  H10X19284   1.330   5.044   7.659 -0.2348  0.0751  1.5290
  170SAPE  H10Y19285   1.453   4.926   7.724  0.4097  0.7910  0.5022
  170SAPE  C31119286   1.252   4.855   7.728 -0.2957 -0.3900  0.4775
  170SAPE  H11X19287   1.265   4.745   7.719  0.8362 -0.1186 -2.0072
  170SAPE  H11Y19288   1.155   4.881   7.680 -0.6878  1.5670  2.1843
  170SAPE  C31219289   1.252   4.886   7.876 -0.3401  0.1045  0.4325
  170SAPE  H12X19290   1.240   4.996   7.892 -0.6738 -0.0952  1.6922
  170SAPE  H12Y19291   1.351   4.862   7.922  0.5952  0.1785 -1.4355
  170SAPE  C31319292   1.139   4.802   7.937  0.4652  0.4095  0.4405
  170SAPE  H13X19293   1.163   4.694   7.923 -1.1871  0.1333 -0.5550
  170SAPE  H13Y19294   1.040   4.799   7.886 -0.4507 -2.1703  2.1522
  170SAPE  C31419295   1.116   4.842   8.081  0.5698 -0.2451  0.6030
  170SAPE  H14X19296   1.033   4.778   8.119  0.7909 -0.9010  0.0177
  170SAPE  H14Y19297   1.096   4.950   8.095 -0.6956 -0.4144  0.2634
  170SAPE  C31519298   1.222   4.796   8.172 -0.7973  0.1781  0.4615
  170SAPE  H15X19299   1.311   4.862   8.178  0.1607 -1.1146  1.0738
  170SAPE  H15Y19300   1.261   4.700   8.133  1.5667  0.8114  1.1070
  170SAPE  C31619301   1.176   4.778   8.319  0.2290  1.2809  0.3284
  170SAPE  H16X19302   1.108   4.692   8.303  0.7542  0.9602 -0.2550
  170SAPE  H16Y19303   1.112   4.865   8.344 -0.1600  0.9022  0.6604
  170SAPE  C31719304   1.280   4.736   8.423 -0.4666 -0.0690  0.6114
  170SAPE  H17X19305   1.241   4.708   8.523 -2.4903  0.6510  0.0800
  170SAPE  H17Y19306   1.346   4.826   8.427 -2.0348  1.0883  1.6237
  170SAPE  C31819307   1.377   4.627   8.378  0.1814 -0.3879 -0.9012
  170SAPE  H18X19308   1.441   4.598   8.464 -1.7594 -0.3488  0.6163
  170SAPE  H18Y19309   1.422   4.659   8.282 -1.4368 -0.2592 -1.6563
  170SAPE  H18Z19310   1.312   4.538   8.362  0.4264 -1.0179  1.3156
  171SAPE     N19311   2.405   6.345   6.518  0.8914  0.1515 -0.0905
  171SAPE   HN119312   2.386   6.323   6.618 -0.6835  0.3554 -0.3133
  171SAPE   HN219313   2.316   6.380   6.476  0.4281 -1.2570 -0.3643
  171SAPE   HN319314   2.427   6.261   6.459  1.3445  1.7505 -2.3374
  171SAPE   C1219315   2.502   6.454   6.493  0.0548 -0.7977  0.3941
  171SAPE  H12A19316   2.457   6.549   6.528 -0.0043  0.3939 -2.6050
  171SAPE  H12B19317   2.498   6.468   6.382  0.0355 -1.5098  0.3000
  171SAPE   C1119318   2.631   6.405   6.549  0.5597  1.2026 -0.4107
  171SAPE  H11A19319   2.624   6.378   6.657  0.1944  0.8378 -0.5239
  171SAPE  H11B19320   2.699   6.493   6.549 -0.3963  1.9665 -1.5313
  171SAPE     P19321   2.828   6.254   6.446  0.1296 -0.0213  0.0454
  171SAPE   O1319322   2.831   6.127   6.374  0.2929  0.3858 -0.5934
  171SAPE   O1419323   2.906   6.366   6.395  0.7989  0.2316 -0.2895
  171SAPE   O1219324   2.678   6.293   6.475  0.9599 -0.2177  0.0261
  171SAPE   O1119325   2.877   6.210   6.588  0.3840  0.4679  0.2923
  171SAPE    C119326   2.977   6.270   6.666 -0.3547  0.3641  0.1835
  171SAPE    HA19327   3.066   6.210   6.638  0.1020  1.0222  0.2009
  171SAPE    HB19328   2.987   6.376   6.632 -3.5272  0.8484  0.4770
  171SAPE    C219329   2.961   6.254   6.822  0.1594  0.5260  0.0736
  171SAPE    HS19330   3.053   6.290   6.873  0.8480 -0.3034 -0.5627
  171SAPE   O2119331   2.925   6.117   6.854  0.5329 -0.2917  0.9637
  171SAPE   C2119332   3.028   6.039   6.872 -0.6568  0.9459  0.3915
  171SAPE   O2219333   3.145   6.073   6.860 -0.0972 -0.0296 -0.0155
  171SAPE   C2219334   2.970   5.902   6.902 -0.2951 -1.2674  0.4774
  171SAPE   H2R19335   2.864   5.908   6.934 -0.9762  1.5527 -1.8397
  171SAPE   H2S19336   2.979   5.833   6.816 -0.1088 -2.8490  1.7254
  171SAPE    C319337   2.841   6.342   6.883 -0.0074  0.4344 -0.3056
  171SAPE    HX19338   2.748   6.305   6.835 -0.7713  2.2014 -0.2506
  171SAPE    HY19339   2.855   6.444   6.842  1.4180 -0.4167 -2.0827
  171SAPE   O3119340   2.847   6.329   7.027  0.0276 -1.0579  0.1704
  171SAPE   C3119341   2.733   6.358   7.091 -0.2251  0.5214 -0.3319
  171SAPE   O3219342   2.632   6.398   7.038 -0.1614 -0.3270 -0.2621
  171SAPE   C3219343   2.756   6.318   7.243  0.3556 -0.8106 -0.0561
  171SAPE   H2X19344   2.824   6.394   7.286 -1.1185 -0.1550  1.2259
  171SAPE   H2Y19345   2.784   6.211   7.257 -1.2378 -1.1075  1.2763
  171SAPE   C2319346   3.061   5.822   6.999  0.0354 -0.0148  0.4376
  171SAPE   H3R19347   3.154   5.811   6.940 -0.4691 -0.2250 -0.3344
  171SAPE   H3S19348   3.009   5.725   7.013 -0.8971 -0.2261 -3.4793
  171SAPE   C2419349   3.085   5.875   7.144  0.0835  0.1489 -0.1781
  171SAPE   H4R19350   3.146   5.967   7.133 -0.0477  0.2667  0.0756
  171SAPE   H4S19351   3.142   5.791   7.189  0.4738  0.2900 -0.4108
  171SAPE   C2519352   2.955   5.914   7.216  0.2526  0.1275 -0.1538
  171SAPE   H5R19353   2.868   5.920   7.149 -0.6092  0.6280  0.9710
  171SAPE   C2619354   2.952   5.951   7.348  1.3236 -0.5788  0.1528
  171SAPE   H6R19355   2.858   5.986   7.394  0.8480  0.9219 -1.7973
  171SAPE   C2719356   3.067   5.955   7.444  0.6012 -0.0873 -0.2931
  171SAPE   H7R19357   3.082   6.061   7.471  0.7851  0.4273 -2.2688
  171SAPE   H7S19358   3.155   5.919   7.386  2.1377  1.1106  1.2021
  171SAPE   C2819359   3.047   5.871   7.560  0.2653  0.4036 -0.0650
  171SAPE   H8R19360   3.027   5.766   7.535  0.6669 -0.1456  1.7363
  171SAPE   C2919361   3.070   5.893   7.691  0.3237 -0.1157 -0.2749
  171SAPE   H9R19362   3.053   5.808   7.757  1.6761 -1.7381 -1.8894
  171SAPE  C21019363   3.112   6.022   7.764  0.0770 -0.2454  0.5781
  171SAPE  H10R19364   3.051   6.107   7.727  0.6244 -0.9391 -2.1140
  171SAPE  H10S19365   3.214   6.046   7.725 -0.1545 -0.3024 -0.0769
  171SAPE  C21119366   3.109   6.024   7.910 -0.1765  0.5162 -0.6374
  171SAPE  H11R19367   3.209   6.039   7.953 -0.8084  0.1169  1.0203
  171SAPE  C21219368   2.995   6.014   7.986 -0.0601  0.0510 -0.9076
  171SAPE  H12R19369   2.999   6.024   8.096  0.7921  0.5452 -0.9735
  171SAPE  C21319370   2.862   5.994   7.934  0.6373 -0.4638 -0.4626
  171SAPE  H13R19371   2.857   6.019   7.826 -0.7929 -0.6999 -0.4678
  171SAPE  H13S19372   2.796   6.074   7.973  0.2422 -0.8332 -0.3756
  171SAPE  C21419373   2.808   5.851   7.944  0.3299  0.2716  0.6466
  171SAPE  H14R19374   2.796   5.795   7.850 -0.3523 -0.7453  1.3105
  171SAPE  C21519375   2.781   5.786   8.054  0.5491  0.4112 -0.1670
  171SAPE  H15R19376   2.757   5.680   8.041  0.6986  0.3313  0.1847
  171SAPE  C21619377   2.797   5.827   8.202  0.6863 -0.2496  0.1984
  171SAPE  H16R19378   2.712   5.786   8.260  0.0795  1.3532  0.4958
  171SAPE  H16S19379   2.789   5.937   8.217  0.3310 -0.2788  0.2280
  171SAPE  C21719380   2.920   5.770   8.281 -0.0053  0.4502  0.1945
  171SAPE  H17R19381   2.911   5.790   8.390  0.8395 -0.9830  0.5503
  171SAPE  H17S19382   3.015   5.817   8.247  0.8904 -1.0900  0.4480
  171SAPE  C21819383   2.945   5.620   8.267 -0.4558 -0.4448  0.0161
  171SAPE  H18R19384   3.048   5.604   8.306 -0.0022  0.7560 -0.6197
  171SAPE  H18S19385   2.958   5.602   8.158 -2.6180  1.3589 -0.6171
  171SAPE  C21919386   2.839   5.532   8.335 -0.5586  0.3057  0.6813
  171SAPE  H19R19387   2.741   5.556   8.289 -0.6565 -0.2456  0.5928
  171SAPE  H19S19388   2.835   5.558   8.443  2.7307 -1.2094  1.2971
  171SAPE  C22019389   2.869   5.380   8.322 -0.2373 -0.1090  0.4110
  171SAPE  H20R19390   2.963   5.362   8.379 -0.7068 -1.7111  0.7462
  171SAPE  H20S19391   2.880   5.335   8.221  0.6479 -1.4668  1.0643
  171SAPE  H20T19392   2.795   5.311   8.369 -1.9435  0.7366 -0.9397
  171SAPE   C3319393   2.623   6.333   7.325  0.7960 -0.0639  0.6346
  171SAPE   H3X19394   2.565   6.246   7.287  1.6423  0.3837 -1.8285
  171SAPE   H3Y19395   2.568   6.427   7.301  0.5121  0.8562  4.3219
  171SAPE   C3419396   2.639   6.322   7.481  0.1493 -0.6481 -0.3274
  171SAPE   H4X19397   2.711   6.401   7.512 -3.0283  3.3153 -2.0549
  171SAPE   H4Y19398   2.696   6.228   7.495 -1.2279 -1.5686 -0.6174
  171SAPE   C3519399   2.510   6.343   7.567  0.3130  0.0885  0.1530
  171SAPE   H5X19400   2.439   6.268   7.529 -0.6157  0.5378  0.9551
  171SAPE   H5Y19401   2.469   6.445   7.548  1.2518  0.4382 -0.0744
  171SAPE   C3619402   2.538   6.310   7.717  0.4259 -0.6198  0.2247
  171SAPE   H6X19403   2.568   6.203   7.725 -1.1485 -1.0241  1.0347
  171SAPE   H6Y19404   2.438   6.318   7.764  0.6530  0.8275  0.5143
  171SAPE   C3719405   2.625   6.408   7.797  0.6486  0.0031  0.0479
  171SAPE   H7X19406   2.570   6.505   7.802 -0.1400 -0.3227 -1.5966
  171SAPE   H7Y19407   2.722   6.423   7.744  1.7223 -3.1861  0.9163
  171SAPE   C3819408   2.648   6.371   7.940  0.3642 -0.5181  0.1604
  171SAPE   H8X19409   2.719   6.445   7.981  0.3900 -1.0840  1.1711
  171SAPE   H8Y19410   2.701   6.273   7.946  1.3001 -0.2079 -2.0852
  171SAPE   C3919411   2.529   6.355   8.042  0.1844 -0.2119  0.8171
  171SAPE   H9X19412   2.456   6.280   8.005  0.6026 -0.6084  0.7848
  171SAPE   H9Y19413   2.491   6.458   8.060 -0.4909 -0.3440  0.1742
  171SAPE  C31019414   2.584   6.295   8.168 -0.2335  0.4531 -0.7118
  171SAPE  H10X19415   2.628   6.201   8.129  1.9403  1.0787  0.0620
  171SAPE  H10Y19416   2.496   6.256   8.223  0.7453 -1.2529 -0.2714
  171SAPE  C31119417   2.677   6.387   8.246 -0.1285 -0.8466 -0.1349
  171SAPE  H11X19418   2.614   6.471   8.283 -1.2098 -1.9612  0.6276
  171SAPE  H11Y19419   2.757   6.428   8.181  0.6245  1.3211  1.9795
  171SAPE  C31219420   2.735   6.332   8.381 -0.1133 -0.8211  0.8451
  171SAPE  H12X19421   2.648   6.303   8.443 -0.7801  2.2522  1.4717
  171SAPE  H12Y19422   2.787   6.407   8.445  1.6724 -3.1856  2.3717
  171SAPE  C31319423   2.834   6.218   8.353 -0.1289  0.6597 -0.1036
  171SAPE  H13X19424   2.882   6.246   8.257 -0.2254  1.5537  0.1092
  171SAPE  H13Y19425   2.774   6.126   8.335 -1.2166  0.6624  2.8940
  171SAPE  C31419426   2.942   6.202   8.460 -0.2145 -0.3531  1.1420
  171SAPE  H14X19427   2.905   6.192   8.565  0.8508 -2.6990  1.3548
  171SAPE  H14Y19428   2.994   6.300   8.450 -0.9576  0.0534  1.1699
  171SAPE  C31519429   3.048   6.088   8.440 -0.2941  0.0951  0.0588
  171SAPE  H15X19430   3.088   6.078   8.337 -0.0759  0.5437  0.0990
  171SAPE  H15Y19431   2.990   5.995   8.459  0.9071 -1.0468 -1.5726
  171SAPE  C31619432   3.174   6.103   8.532  0.0676  0.2413 -0.4250
  171SAPE  H16X19433   3.182   6.213   8.546  0.6853  0.3867 -1.7741
  171SAPE  H16Y19434   3.263   6.062   8.479 -0.5776 -1.2092 -0.4316
  171SAPE  C31719435   3.158   6.027   8.666  0.3494 -0.0588  0.1496
  171SAPE  H17X19436   3.053   6.033   8.701  0.2905 -0.0058 -0.0350
  171SAPE  H17Y19437   3.227   6.062   8.746  1.0787 -2.9897  0.9051
  171SAPE  C31819438   3.200   5.879   8.642 -0.1234  0.2566 -0.1380
  171SAPE  H18X19439   3.293   5.866   8.583 -0.7871  1.8562 -1.6411
  171SAPE  H18Y19440   3.119   5.826   8.588  0.8013  0.8133 -2.1727
  171SAPE  H18Z19441   3.214   5.832   8.742 -2.2286  1.6653  0.8967
  172SAPE     N19442   3.228   5.495   6.298  0.2962 -0.4296  0.3942
  172SAPE   HN119443   3.306   5.442   6.254 -0.3446  0.2165 -1.6396
  172SAPE   HN219444   3.172   5.529   6.217 -1.6081 -3.5169  0.2363
  172SAPE   HN319445   3.271   5.574   6.349  1.4703 -0.5488 -0.3703
  172SAPE   C1219446   3.151   5.408   6.393 -0.4567  0.2799  0.0535
  172SAPE  H12A19447   3.113   5.323   6.333  0.9076  0.4328 -1.1014
  172SAPE  H12B19448   3.074   5.464   6.450 -1.3568  0.7947 -1.5969
  172SAPE   C1119449   3.252   5.362   6.499 -0.2821 -0.5154  0.3981
  172SAPE  H11A19450   3.195   5.287   6.558  0.0368 -0.8906  0.2325
  172SAPE  H11B19451   3.274   5.454   6.558  2.4255 -0.2079 -0.9344
  172SAPE     P19452   3.413   5.166   6.431  0.0301 -0.1866  0.0846
  172SAPE   O1319453   3.352   5.110   6.305  0.9833 -0.0948 -0.0334
  172SAPE   O1419454   3.560   5.157   6.444  0.0301 -0.1619  0.1228
  172SAPE   O1219455   3.373   5.318   6.438 -0.0607  0.2738  0.2406
  172SAPE   O1119456   3.350   5.085   6.554  0.3012 -0.0158 -0.6283
  172SAPE    C119457   3.424   5.078   6.680  0.1352 -0.0136  0.4221
  172SAPE    HA19458   3.493   4.991   6.676 -2.6975 -2.3911 -0.8170
  172SAPE    HB19459   3.479   5.173   6.690  0.8452 -0.0977 -2.0360
  172SAPE    C219460   3.321   5.067   6.793  0.6216 -0.1622  0.0503
  172SAPE    HS19461   3.273   4.968   6.778 -0.8625  0.7593 -1.5317
  172SAPE   O2119462   3.220   5.177   6.778 -0.5642  0.1932 -0.0042
  172SAPE   C2119463   3.111   5.163   6.837  0.7402 -0.0723 -1.0230
  172SAPE   O2219464   3.078   5.067   6.902 -0.1300  0.5900 -0.3984
  172SAPE   C2219465   3.024   5.285   6.811  0.5014  0.7573  0.1996
  172SAPE   H2R19466   3.024   5.305   6.702  0.7384  2.0977  0.4269
  172SAPE   H2S19467   2.917   5.261   6.834 -0.0884  1.1600 -1.9178
  172SAPE    C319468   3.397   5.083   6.928  0.0968  0.0831 -0.4521
  172SAPE    HX19469   3.457   5.175   6.919  0.6552 -0.4701 -3.0969
  172SAPE    HY19470   3.478   5.008   6.941 -1.1625 -1.3616 -0.6425
  172SAPE   O3119471   3.309   5.098   7.047 -0.2888  0.3211  0.0619
  172SAPE   C3119472   3.286   5.004   7.132 -0.4343 -0.1590  1.0572
  172SAPE   O3219473   3.311   4.888   7.115 -0.1027 -0.5242 -0.2211
  172SAPE   C3219474   3.221   5.064   7.256  0.0242 -0.0666 -0.4339
  172SAPE   H2X19475   3.209   5.174   7.245  0.2508  0.1365  1.1423
  172SAPE   H2Y19476   3.303   5.057   7.330  1.2040  2.1011 -1.4106
  172SAPE   C2319477   3.083   5.409   6.880 -0.3471 -0.2398 -0.0135
  172SAPE   H3R19478   3.010   5.482   6.841 -0.9658 -1.0375 -0.3702
  172SAPE   H3S19479   3.178   5.449   6.839 -0.3116  0.4767  0.7359
  172SAPE   C2419480   3.091   5.407   7.033  0.8155 -0.4026 -0.4928
  172SAPE   H4R19481   3.127   5.506   7.070  1.0041 -0.5227 -0.3528
  172SAPE   H4S19482   3.174   5.340   7.065  1.4215  1.3822  1.9809
  172SAPE   C2519483   2.970   5.355   7.108  0.5537 -0.2640  0.0645
  172SAPE   H5R19484   2.887   5.306   7.054  1.4867 -1.3036 -0.4654
  172SAPE   C2619485   2.953   5.370   7.241  0.6066  0.1007 -0.2132
  172SAPE   H6R19486   2.865   5.326   7.291  0.6312  0.7290  0.4002
  172SAPE   C2719487   3.057   5.437   7.330  0.4557 -0.0399  0.0021
  172SAPE   H7R19488   3.123   5.499   7.267  0.8970 -0.2888  0.2139
  172SAPE   H7S19489   3.109   5.358   7.388 -1.4210 -0.0590  1.7694
  172SAPE   C2819490   2.978   5.531   7.420  0.8119  0.1644  0.1010
  172SAPE   H8R19491   2.970   5.629   7.371  1.1060 -0.4517 -1.2344
  172SAPE   C2919492   2.915   5.508   7.538 -0.2047 -0.0482 -0.2784
  172SAPE   H9R19493   2.876   5.591   7.599  3.2354  1.2182  0.4738
  172SAPE  C21019494   2.907   5.377   7.605 -0.5559  0.3079 -0.3489
  172SAPE  H10R19495   3.002   5.323   7.584  1.3946  3.2993  0.1471
  172SAPE  H10S19496   2.845   5.316   7.537  1.1404  0.7176 -2.3733
  172SAPE  C21119497   2.876   5.368   7.759  0.2674 -0.3751 -0.2210
  172SAPE  H11R19498   2.784   5.310   7.779 -0.5298  0.7626 -0.4848
  172SAPE  C21219499   2.951   5.403   7.863 -0.6723  0.8738 -0.1984
  172SAPE  H12R19500   2.908   5.397   7.965 -0.4187  0.1569 -0.1262
  172SAPE  C21319501   3.087   5.472   7.850 -0.0834 -0.5870 -0.0210
  172SAPE  H13R19502   3.077   5.581   7.869  0.5053 -0.6200  0.5109
  172SAPE  H13S19503   3.103   5.467   7.740  0.6711 -0.4712  0.0754
  172SAPE  C21419504   3.200   5.413   7.931  0.1090  1.5012  0.3543
  172SAPE  H14R19505   3.217   5.467   8.024  0.1025  1.8124  0.1764
  172SAPE  C21519506   3.291   5.325   7.883 -0.6510 -0.5075 -0.0040
  172SAPE  H15R19507   3.359   5.284   7.959 -2.5681  1.3636  2.9441
  172SAPE  C21619508   3.299   5.279   7.743  0.3700  0.6186 -0.1535
  172SAPE  H16R19509   3.241   5.343   7.672 -1.0229 -0.4204  0.0104
  172SAPE  H16S19510   3.250   5.180   7.735  0.3666  0.5844  0.2563
  172SAPE  C21719511   3.444   5.259   7.691 -0.0915 -0.4590  0.0178
  172SAPE  H17R19512   3.503   5.185   7.749  1.8592  1.0771  0.0999
  172SAPE  H17S19513   3.499   5.356   7.698 -1.6585  0.4472  0.2821
  172SAPE  C21819514   3.443   5.210   7.545  0.6104  0.2949  0.1316
  172SAPE  H18R19515   3.392   5.288   7.484 -1.5309  0.2242  1.7049
  172SAPE  H18S19516   3.399   5.109   7.533 -0.1106  0.2484  2.6142
  172SAPE  C21919517   3.577   5.193   7.493  0.1111 -0.7765  1.0994
  172SAPE  H19R19518   3.632   5.104   7.529  1.6399 -0.5373 -0.5112
  172SAPE  H19S19519   3.639   5.280   7.523 -2.6909  1.4899  0.7919
  172SAPE  C22019520   3.566   5.192   7.341  0.7509  0.4118 -0.5989
  172SAPE  H20R19521   3.557   5.088   7.301  0.8517 -1.4375  3.6333
  172SAPE  H20S19522   3.654   5.240   7.293  1.5320 -1.4626 -1.1542
  172SAPE  H20T19523   3.478   5.250   7.307  1.9619  1.2137 -2.5267
  172SAPE   C3319524   3.091   4.985   7.304 -0.4858 -0.4112  0.8771
  172SAPE   H3X19525   3.124   4.882   7.327 -0.0409  0.0232  2.2645
  172SAPE   H3Y19526   3.021   4.991   7.217  1.3636 -2.7542 -0.8840
  172SAPE   C3419527   3.023   5.036   7.438 -0.6959  0.1598 -0.5007
  172SAPE   H4X19528   2.996   5.141   7.414 -2.4330  0.7277  3.1088
  172SAPE   H4Y19529   3.104   5.041   7.514 -0.5031 -2.1525 -0.4636
  172SAPE   C3519530   2.903   4.957   7.492 -0.5518  0.3449  0.2386
  172SAPE   H5X19531   2.932   4.850   7.484  2.4141  1.0352  0.6498
  172SAPE   H5Y19532   2.819   4.982   7.423  0.1941  1.1088 -0.4143
  172SAPE   C3619533   2.866   4.974   7.638  0.1116 -0.0303  0.1443
  172SAPE   H6X19534   2.811   5.070   7.639  2.1784  1.2615 -1.7708
  172SAPE   H6Y19535   2.965   4.983   7.688  0.6873  1.4690 -1.1775
  172SAPE   C3719536   2.789   4.861   7.702 -0.0731 -0.4618  0.3309
  172SAPE   H7X19537   2.837   4.761   7.689  0.1384 -0.4624  1.0424
  172SAPE   H7Y19538   2.697   4.846   7.642 -0.5577  1.0411  0.6597
  172SAPE   C3819539   2.747   4.884   7.846  0.0686  0.0540 -0.5170
  172SAPE   H8X19540   2.834   4.901   7.913  0.0556 -0.8476 -0.2625
  172SAPE   H8Y19541   2.687   4.799   7.885  0.7156 -0.9410 -1.6312
  172SAPE   C3919542   2.657   5.013   7.864 -0.0628 -0.3053 -0.3885
  172SAPE   H9X19543   2.583   5.014   7.781 -0.6844  0.3081  0.1553
  172SAPE   H9Y19544   2.717   5.106   7.855 -1.6486  0.9074  0.8948
  172SAPE  C31019545   2.582   5.024   8.004 -0.1837  0.7121 -0.7435
  172SAPE  H10X19546   2.521   4.930   8.010 -0.3323  0.8805  0.7234
  172SAPE  H10Y19547   2.512   5.110   8.003 -1.3209 -0.1102  1.2091
  172SAPE  C31119548   2.671   5.030   8.127 -0.2733  0.4459 -0.0546
  172SAPE  H11X19549   2.743   5.108   8.096 -1.0684  0.7402 -1.2088
  172SAPE  H11Y19550   2.724   4.932   8.136 -1.7709 -0.5272 -1.2038
  172SAPE  C31219551   2.603   5.069   8.257 -0.0946  0.2689  0.1269
  172SAPE  H12X19552   2.566   5.173   8.245 -1.9048 -0.4727 -1.0500
  172SAPE  H12Y19553   2.674   5.074   8.343 -0.2325 -1.4251  0.3759
  172SAPE  C31319554   2.491   4.979   8.321  0.3865  0.5072  0.5682
  172SAPE  H13X19555   2.531   4.876   8.333 -0.2244  0.2316  0.2751
  172SAPE  H13Y19556   2.405   4.976   8.251  0.0182  1.0378  0.9853
  172SAPE  C31419557   2.429   5.036   8.445  0.0500 -0.0105  0.0234
  172SAPE  H14X19558   2.380   5.131   8.412  1.4740 -0.0076 -2.3686
  172SAPE  H14Y19559   2.502   5.072   8.521  1.2209 -0.3517 -0.8962
  172SAPE  C31519560   2.327   4.940   8.504  0.3225 -0.7869 -0.7321
  172SAPE  H15X19561   2.256   4.908   8.424 -0.5519 -1.2428  0.2120
  172SAPE  H15Y19562   2.260   4.987   8.578 -0.1964 -1.5039 -0.7377
  172SAPE  C31619563   2.380   4.806   8.563 -0.4772 -0.1614  0.0420
  172SAPE  H16X19564   2.457   4.835   8.638  1.4890  2.0618 -2.6023
  172SAPE  H16Y19565   2.445   4.762   8.483 -0.9921 -0.0309 -0.4547
  172SAPE  C31719566   2.266   4.709   8.602  0.0855  0.2668  0.0673
  172SAPE  H17X19567   2.234   4.655   8.510  0.1136  0.5205 -0.0938
  172SAPE  H17Y19568   2.179   4.767   8.639 -1.4222 -1.9099  0.1077
  172SAPE  C31819569   2.313   4.611   8.709 -0.3033  0.4826  0.3106
  172SAPE  H18X19570   2.344   4.675   8.795 -0.6995  2.3434 -0.8814
  172SAPE  H18Y19571   2.390   4.535   8.683  0.0811  0.1596  2.2048
  172SAPE  H18Z19572   2.226   4.552   8.746 -0.4342 -0.2521 -1.0953
  173SOPE     N19573   3.053   2.419  10.955 -0.3374  0.1850  0.3972
  173SOPE   HN119574   3.105   2.369  11.030 -0.2604  0.2765  0.4039
  173SOPE   HN219575   3.124   2.423  10.880  1.7711 -0.8582  2.2225
  173SOPE   HN319576   3.038   2.514  10.995  0.0616 -1.1590  4.1095
  173SOPE   C1219577   2.935   2.347  10.893  1.0009  0.4068  0.1905
  173SOPE  H12A19578   2.856   2.339  10.972  1.0378  0.6829  0.2578
  173SOPE  H12B19579   2.974   2.249  10.860 -1.6630 -0.3787 -0.9089
  173SOPE   C1119580   2.891   2.428  10.766 -0.1490 -0.4199 -0.2876
  173SOPE  H11A19581   2.801   2.372  10.733 -0.3113 -0.2125 -0.2000
  173SOPE  H11B19582   2.972   2.431  10.690 -1.2351  0.9299 -1.4607
  173SOPE     P19583   2.734   2.607  10.847  0.0617  0.5204  0.7874
  173SOPE   O1319584   2.761   2.698  10.962 -0.0338 -0.2123 -0.3568
  173SOPE   O1419585   2.638   2.492  10.876 -0.3309 -0.3872 -0.7741
  173SOPE   O1219586   2.875   2.567  10.792 -0.6818 -0.5957  0.2380
  173SOPE   O1119587   2.676   2.694  10.726  0.0722 -0.3338  0.3557
  173SOPE    C119588   2.672   2.646  10.589 -0.3179 -0.3355 -0.6223
  173SOPE    HA19589   2.622   2.546  10.587 -0.4149 -0.3679  1.2381
  173SOPE    HB19590   2.773   2.612  10.556 -0.3824 -0.5102 -0.6386
  173SOPE    C219591   2.598   2.741  10.495 -0.4996  0.1751 -0.7533
  173SOPE    HS19592   2.496   2.697  10.488 -0.7967  0.0592  2.8044
  173SOPE   O2119593   2.671   2.748  10.375 -0.6812  0.1976  0.2330
  173SOPE   C2119594   2.606   2.744  10.261  0.0773 -0.4199 -0.0055
  173SOPE   O2219595   2.488   2.745  10.251  0.1414  0.3091 -0.0949
  173SOPE   C2219596   2.707   2.724  10.150 -0.5099 -0.3220 -0.1016
  173SOPE   H2R19597   2.687   2.623  10.109  0.7766 -0.4175 -0.5350
  173SOPE   H2S19598   2.808   2.719  10.194 -1.1052  0.2210  1.3763
  173SOPE    C319599   2.600   2.892  10.549 -0.0257  0.1878  0.0231
  173SOPE    HX19600   2.707   2.918  10.537 -0.1541  0.1221 -1.5491
  173SOPE    HY19601   2.581   2.890  10.658 -1.0236  2.1072 -0.0826
  173SOPE   O3119602   2.511   2.988  10.479 -0.1749  0.3531 -0.5821
  173SOPE   C3119603   2.558   3.111  10.462  0.1824 -0.0876  0.4321
  173SOPE   O3219604   2.669   3.153  10.491  0.0246  0.2106  0.4248
  173SOPE   C3219605   2.431   3.195  10.433 -0.0087  0.1415  0.3121
  173SOPE   H2X19606   2.467   3.300  10.423  0.5646  0.0195  1.0612
  173SOPE   H2Y19607   2.351   3.184  10.509 -2.9924 -1.0112 -2.7222
  173SOPE   C2319608   2.699   2.832  10.029 -0.6540 -0.1456  0.0832
  173SOPE   H3R19609   2.795   2.807   9.980 -1.5123 -1.2189 -1.1189
  173SOPE   H3S19610   2.706   2.937  10.065  2.7434 -0.1995 -0.1777
  173SOPE   C2419611   2.569   2.826   9.944  0.0372  0.5711 -0.1273
  173SOPE   H4R19612   2.479   2.851  10.004 -0.8594  1.1857 -1.6781
  173SOPE   H4S19613   2.582   2.896   9.859  0.5379 -0.7513 -1.1739
  173SOPE   C2519614   2.542   2.687   9.879 -0.1717  0.6409 -0.2714
  173SOPE   H5R19615   2.614   2.673   9.796  1.1334 -1.7396  1.1405
  173SOPE   H5S19616   2.564   2.601   9.947  1.8317 -0.3247 -2.0292
  173SOPE   C2619617   2.397   2.668   9.838 -0.0266  0.0022 -0.7963
  173SOPE   H6R19618   2.376   2.562   9.813  1.6476 -0.5227 -0.1071
  173SOPE   H6S19619   2.350   2.686   9.937  0.0925  3.9475 -1.2888
  173SOPE   C2719620   2.334   2.772   9.750  0.1162 -0.8399  0.2112
  173SOPE   H7R19621   2.224   2.762   9.762  0.3411 -2.4881  1.1932
  173SOPE   H7S19622   2.369   2.871   9.787  1.6245 -1.6440  1.0281
  173SOPE   C2819623   2.364   2.756   9.594  0.5558  0.3647 -0.7792
  173SOPE   H8R19624   2.475   2.754   9.588  0.8621  2.4272  2.0271
  173SOPE   H8S19625   2.323   2.657   9.566  1.1042 -1.1350  3.1562
  173SOPE   C2919626   2.310   2.871   9.518  1.5719 -0.4084 -0.2527
  173SOPE   H9119627   2.260   2.945   9.582 -1.2171 -3.2900  1.2003
  173SOPE  C21019628   2.309   2.876   9.382 -0.5594  0.1971 -0.1185
  173SOPE  H10119629   2.264   2.965   9.336 -0.0955  0.2603 -0.4490
  173SOPE  C21119630   2.357   2.775   9.281  0.2415 -0.9334 -0.0505
  173SOPE  H11R19631   2.266   2.737   9.230 -1.1683  0.1863  1.4931
  173SOPE  H11S19632   2.406   2.686   9.327  1.1348  0.3690  1.6376
  173SOPE  C21219633   2.448   2.824   9.173 -0.5772  0.5889  0.7154
  173SOPE  H12R19634   2.543   2.858   9.219  1.3124 -0.3430 -2.1867
  173SOPE  H12S19635   2.393   2.903   9.116  0.8475  3.0772  2.5659
  173SOPE  C21319636   2.486   2.712   9.066 -0.0603 -0.4069 -1.2162
  173SOPE  H13R19637   2.405   2.653   9.019  0.3867 -1.2758 -0.9172
  173SOPE  H13S19638   2.538   2.635   9.128 -1.0860 -1.5362 -1.7178
  173SOPE  C21419639   2.574   2.761   8.951  0.5303 -0.5391  0.1632
  173SOPE  H14R19640   2.667   2.798   8.999  1.6056 -2.9117  0.0855
  173SOPE  H14S19641   2.529   2.844   8.893  1.6382  0.1095  0.2077
  173SOPE  C21519642   2.616   2.650   8.854 -0.0134  0.2291 -0.1152
  173SOPE  H15R19643   2.518   2.611   8.817 -0.0748  0.0711  0.2071
  173SOPE  H15S19644   2.674   2.571   8.908 -0.4596 -0.7876 -1.0822
  173SOPE  C21619645   2.714   2.691   8.746 -0.2097 -0.3517  0.1399
  173SOPE  H16R19646   2.818   2.707   8.781 -0.2274  0.5020 -0.1555
  173SOPE  H16S19647   2.678   2.791   8.712  1.6823  0.0334 -0.8609
  173SOPE  C21719648   2.716   2.596   8.627 -0.1981 -0.0079  0.2565
  173SOPE  H17R19649   2.638   2.614   8.551  0.9055 -2.0728 -1.4542
  173SOPE  H17S19650   2.689   2.497   8.669 -2.5591  1.5453  2.7847
  173SOPE  C21819651   2.856   2.585   8.552  0.2092  0.6877 -0.0806
  173SOPE  H18R19652   2.937   2.574   8.628  0.3195 -0.7019 -0.3861
  173SOPE  H18S19653   2.869   2.674   8.487  0.2910 -0.1271 -1.2056
  173SOPE  H18T19654   2.864   2.495   8.487 -0.8935  0.1142  0.5497
  173SOPE   C3319655   2.361   3.168  10.297  0.2196  0.0375 -0.3912
  173SOPE   H3X19656   2.263   3.220  10.295  0.6564  0.8753 -0.4040
  173SOPE   H3Y19657   2.333   3.061  10.303 -0.8081  0.3304  0.5134
  173SOPE   C3419658   2.450   3.214  10.177 -0.0524 -0.0389 -0.2922
  173SOPE   H4X19659   2.545   3.156  10.172 -1.5861 -2.9733  1.4551
  173SOPE   H4Y19660   2.480   3.318  10.200  0.7488 -0.2718 -0.2488
  173SOPE   C3519661   2.389   3.203  10.034  0.2992 -0.8671 -0.2364
  173SOPE   H5X19662   2.294   3.260  10.040  0.9059  0.0018  2.0153
  173SOPE   H5Y19663   2.366   3.099  10.001 -0.1523 -0.4108 -1.4489
  173SOPE   C3619664   2.486   3.255   9.926 -0.1140 -0.4562 -0.4115
  173SOPE   H6X19665   2.564   3.177   9.917 -2.5319 -2.9299 -1.1898
  173SOPE   H6Y19666   2.538   3.347   9.961  1.1025 -1.2610 -0.0218
  173SOPE   C3719667   2.429   3.265   9.783  0.0375 -0.1994 -0.1249
  173SOPE   H7X19668   2.352   3.345   9.785  2.1655  1.9832  2.1557
  173SOPE   H7Y19669   2.387   3.173   9.738 -0.0707  0.4125 -1.3053
  173SOPE   C3819670   2.515   3.312   9.659  0.2004 -0.0921 -0.7148
  173SOPE   H8X19671   2.597   3.240   9.635 -0.7504 -1.1251 -0.9695
  173SOPE   H8Y19672   2.551   3.414   9.684  1.3879 -0.6358 -0.1429
  173SOPE   C3919673   2.425   3.320   9.532  0.1335  0.0408  0.5095
  173SOPE   H9X19674   2.362   3.411   9.525  1.6169  1.1036  0.6839
  173SOPE   H9Y19675   2.353   3.236   9.520  1.0205 -0.5566 -0.8852
  173SOPE  C31019676   2.513   3.327   9.407  0.2303 -0.4180 -0.1536
  173SOPE  H10X19677   2.574   3.235   9.396 -0.3693 -0.7546 -0.6744
  173SOPE  H10Y19678   2.576   3.419   9.412  0.1264 -0.2169 -1.9596
  173SOPE  C31119679   2.436   3.346   9.277 -0.1303  0.5959 -0.1398
  173SOPE  H11X19680   2.506   3.327   9.193 -2.2352 -3.2411 -1.2220
  173SOPE  H11Y19681   2.394   3.448   9.261  1.3630  1.6197  1.8907
  173SOPE  C31219682   2.312   3.255   9.268 -0.1443  0.4745  0.3641
  173SOPE  H12X19683   2.239   3.307   9.333 -0.1778  1.0217 -0.1000
  173SOPE  H12Y19684   2.340   3.161   9.319  0.2744  0.5495  0.2771
  173SOPE  C31319685   2.266   3.236   9.125 -0.0092  0.5630  0.3400
  173SOPE  H13X19686   2.361   3.207   9.075 -0.3074 -1.6859  0.9671
  173SOPE  H13Y19687   2.240   3.332   9.076  0.8044  0.8010  0.3563
  173SOPE  C31419688   2.161   3.129   9.101 -0.1032 -0.3621 -0.2635
  173SOPE  H14X19689   2.065   3.172   9.136  1.5563  2.2905  1.3348
  173SOPE  H14Y19690   2.191   3.053   9.177  0.5313  2.8758  3.0062
  173SOPE  C31519691   2.138   3.074   8.961  0.8625 -0.8921  0.1823
  173SOPE  H15X19692   2.238   3.056   8.916  0.5301  0.9053 -1.4004
  173SOPE  H15Y19693   2.081   3.155   8.911 -0.9950 -3.0488 -1.3720
  173SOPE  C31619694   2.039   2.958   8.964 -0.7640  0.5073  0.5089
  173SOPE  H16X19695   1.941   2.987   9.006 -2.0970  1.1599 -2.8019
  173SOPE  H16Y19696   2.081   2.888   9.039 -0.1347  1.1930  0.8078
  173SOPE  C31719697   2.029   2.878   8.831 -0.0296 -0.5866  0.3260
  173SOPE  H17X19698   2.122   2.825   8.800  0.1251 -1.4873  2.2055
  173SOPE  H17Y19699   2.008   2.948   8.747  0.5474  0.6601  1.2058
  173SOPE  C31819700   1.915   2.777   8.850  0.3698 -0.6440  0.2631
  173SOPE  H18X19701   1.823   2.817   8.900  1.0129 -0.7205  1.5298
  173SOPE  H18Y19702   1.946   2.697   8.920 -0.3853 -0.3245  0.9988
  173SOPE  H18Z19703   1.889   2.731   8.752  0.6857 -0.0829 -0.0876
  174SOPE     N19704   1.478   2.431  10.926 -0.0511 -0.3820 -0.7012
  174SOPE   HN119705   1.550   2.414  10.999 -1.7888  0.2168  1.2250
  174SOPE   HN219706   1.464   2.534  10.933 -0.6042 -0.5236  0.5371
  174SOPE   HN319707   1.391   2.388  10.961 -1.4072  0.2285 -3.0718
  174SOPE   C1219708   1.521   2.384  10.787 -0.2393  0.6206 -0.3866
  174SOPE  H12A19709   1.442   2.397  10.710 -3.8054 -1.8152  2.5273
  174SOPE  H12B19710   1.560   2.280  10.789 -1.3046  0.2061 -0.2220
  174SOPE   C1119711   1.641   2.474  10.744  0.2557 -0.1532  0.1430
  174SOPE  H11A19712   1.611   2.580  10.749  1.4277  0.2814 -1.2861
  174SOPE  H11B19713   1.664   2.457  10.637  1.3730 -0.1815  0.3675
  174SOPE     P19714   1.885   2.379  10.780  0.1645 -0.0454 -0.1520
  174SOPE   O1319715   1.875   2.231  10.789 -0.4769  0.0670 -0.4395
  174SOPE   O1419716   2.000   2.439  10.851 -0.1268 -0.1453 -0.0959
  174SOPE   O1219717   1.753   2.450  10.832 -0.1868  0.0669 -0.3056
  174SOPE   O1119718   1.901   2.418  10.627  0.0133 -0.2430 -0.1142
  174SOPE    C119719   1.976   2.321  10.551  0.5412  0.1214  0.1274
  174SOPE    HA19720   1.951   2.329  10.442 -1.1519  1.3083  0.5537
  174SOPE    HB19721   1.960   2.212  10.562 -0.1849  0.0616 -1.2343
  174SOPE    C219722   2.131   2.348  10.555  0.1776  0.6169  0.2692
  174SOPE    HS19723   2.144   2.421  10.638  0.4410  1.3093 -0.3765
  174SOPE   O2119724   2.161   2.400  10.423 -0.5189 -0.2112 -0.2755
  174SOPE   C2119725   2.289   2.435  10.408 -0.4416  0.3735 -0.8929
  174SOPE   O2219726   2.359   2.462  10.508 -0.0991 -0.0183  0.3419
  174SOPE   C2219727   2.332   2.458  10.265 -0.1931  0.3207 -0.2363
  174SOPE   H2R19728   2.437   2.494  10.264  0.0128  0.0418  2.3689
  174SOPE   H2S19729   2.263   2.529  10.215 -0.8520 -0.5912 -0.6348
  174SOPE    C319730   2.202   2.209  10.583  0.0228  0.8584  0.2447
  174SOPE    HX19731   2.134   2.154  10.652 -0.5925  1.6121  0.2498
  174SOPE    HY19732   2.298   2.237  10.634  1.0962 -0.5244 -0.9374
  174SOPE   O3119733   2.235   2.132  10.461 -0.2627 -0.0512 -0.1026
  174SOPE   C3119734   2.156   2.025  10.438 -0.3637 -0.8289 -0.2676
  174SOPE   O3219735   2.053   2.011  10.497 -0.2283  0.5537  0.0268
  174SOPE   C3219736   2.230   1.923  10.340  0.5515  0.2815 -0.3341
  174SOPE   H2X19737   2.187   1.821  10.338 -1.3002  1.0184  0.3464
  174SOPE   H2Y19738   2.331   1.918  10.387  1.6576  2.0401 -2.3334
  174SOPE   C2319739   2.331   2.324  10.184  0.1809  0.9896  0.5721
  174SOPE   H3R19740   2.231   2.279  10.195  0.6264 -0.1035  0.2510
  174SOPE   H3S19741   2.401   2.256  10.236 -0.9101 -1.0586 -0.5102
  174SOPE   C2419742   2.370   2.344  10.035 -0.5758  0.6307 -0.3383
  174SOPE   H4R19743   2.304   2.421   9.989  2.6825  3.3887 -0.8293
  174SOPE   H4S19744   2.478   2.370  10.033 -0.1945 -0.9390 -1.9258
  174SOPE   C2519745   2.357   2.218   9.947 -0.2926  0.3230  0.5615
  174SOPE   H5R19746   2.407   2.138  10.006  0.5197  2.1823  2.5060
  174SOPE   H5S19747   2.250   2.190   9.947 -0.1567 -0.2162  1.0190
  174SOPE   C2619748   2.406   2.229   9.802 -0.7350 -0.1883 -0.1501
  174SOPE   H6R19749   2.358   2.321   9.762 -1.2534 -0.7489 -0.8465
  174SOPE   H6S19750   2.517   2.233   9.796 -0.6482 -2.8393 -2.2913
  174SOPE   C2719751   2.368   2.101   9.725  0.1844  0.2351 -0.0153
  174SOPE   H7R19752   2.263   2.086   9.758  0.6175  1.1098  1.9069
  174SOPE   H7S19753   2.372   2.122   9.616  0.9503  0.8811  0.1306
  174SOPE   C2819754   2.443   1.967   9.761 -0.6942 -0.0225 -0.0540
  174SOPE   H8R19755   2.547   1.969   9.723 -0.9301 -0.4979 -0.7207
  174SOPE   H8S19756   2.442   1.954   9.872  1.2682  0.4850  0.0727
  174SOPE   C2919757   2.371   1.843   9.708 -0.3804  0.0857  0.7404
  174SOPE   H9119758   2.296   1.803   9.777 -0.8350  1.1340  0.8636
  174SOPE  C21019759   2.392   1.783   9.590 -0.1654  0.3047 -0.0122
  174SOPE  H10119760   2.334   1.692   9.568 -2.1263  1.8255 -1.4391
  174SOPE  C21119761   2.485   1.829   9.478  1.2925 -0.1239 -0.5248
  174SOPE  H11R19762   2.590   1.807   9.506  0.9300 -1.8011 -0.3345
  174SOPE  H11S19763   2.465   1.938   9.473  0.2322 -0.3117 -0.7730
  174SOPE  C21219764   2.438   1.761   9.345 -1.0495  0.2788 -1.5676
  174SOPE  H12R19765   2.450   1.651   9.350  0.8677  0.4979  0.3652
  174SOPE  H12S19766   2.501   1.801   9.262 -0.4194  3.2013  0.1831
  174SOPE  C21319767   2.289   1.802   9.310  0.0770  0.2559 -0.1292
  174SOPE  H13R19768   2.219   1.785   9.394 -1.1975  0.7265 -1.0698
  174SOPE  H13S19769   2.254   1.726   9.237 -0.9492  0.5446  0.0577
  174SOPE  C21419770   2.263   1.937   9.251  0.3438  0.2198  0.1355
  174SOPE  H14R19771   2.318   2.013   9.311  1.2072  0.7092 -1.2314
  174SOPE  H14S19772   2.152   1.943   9.247  0.2486 -0.7081  0.8798
  174SOPE  C21519773   2.318   1.960   9.107  0.1869  0.5769  0.6174
  174SOPE  H15R19774   2.429   1.967   9.108  0.3906 -1.3919 -0.9280
  174SOPE  H15S19775   2.265   2.052   9.074 -1.0423 -0.0897  0.6790
  174SOPE  C21619776   2.280   1.852   8.999  0.0007  0.1581 -0.0970
  174SOPE  H16R19777   2.307   1.753   9.042  0.1871  1.0653  1.9933
  174SOPE  H16S19778   2.350   1.862   8.913  0.3958 -0.3789  0.1518
  174SOPE  C21719779   2.129   1.857   8.965 -0.6295 -0.6831 -0.2051
  174SOPE  H17R19780   2.113   1.945   8.899 -0.1353 -0.0997  0.4322
  174SOPE  H17S19781   2.077   1.871   9.062 -1.5974  0.0418 -0.8135
  174SOPE  C21819782   2.094   1.723   8.899  0.1442  0.3807 -0.0932
  174SOPE  H18R19783   1.986   1.712   8.875 -0.4466  0.9065  2.0669
  174SOPE  H18S19784   2.126   1.645   8.972 -0.8476 -0.6420 -0.7280
  174SOPE  H18T19785   2.162   1.715   8.812  0.2561 -1.2317  0.1216
  174SOPE   C3319786   2.243   1.977  10.197 -0.6513  0.7117 -0.4491
  174SOPE   H3X19787   2.326   2.050  10.189 -1.4421  1.6118 -0.6427
  174SOPE   H3Y19788   2.147   2.027  10.173 -0.5352  1.6964  0.9520
  174SOPE   C3419789   2.273   1.864  10.101 -0.2498 -0.1161 -0.9736
  174SOPE   H4X19790   2.258   1.906  10.000 -0.1097  0.5220 -0.7333
  174SOPE   H4Y19791   2.201   1.779  10.108 -2.6075  1.8943  0.9559
  174SOPE   C3519792   2.415   1.809  10.121  0.4849 -0.5062  0.0412
  174SOPE   H5X19793   2.424   1.769  10.224 -0.5791 -0.5355  0.1327
  174SOPE   H5Y19794   2.485   1.893  10.099 -1.1279  1.0468  0.5543
  174SOPE   C3619795   2.436   1.678  10.044 -0.1791  0.6521 -0.1637
  174SOPE   H6X19796   2.408   1.696   9.938 -2.0650  3.5067  0.6909
  174SOPE   H6Y19797   2.365   1.607  10.092 -0.1521  1.4764  1.1513
  174SOPE   C3719798   2.577   1.616  10.060 -0.3696 -0.5981 -0.4362
  174SOPE   H7X19799   2.594   1.579  10.164  0.0828  0.2433 -0.1973
  174SOPE   H7Y19800   2.640   1.708  10.065 -1.5022  0.1586  0.2044
  174SOPE   C3819801   2.633   1.517   9.962  0.6125  1.1814  0.0337
  174SOPE   H8X19802   2.570   1.426   9.972 -0.6543  2.1287  1.0990
  174SOPE   H8Y19803   2.739   1.507   9.992  0.3023  1.8159  1.4472
  174SOPE   C3919804   2.628   1.550   9.815  0.1649  0.0144 -0.1084
  174SOPE   H9X19805   2.670   1.652   9.797 -0.2013  0.2260  0.2181
  174SOPE   H9Y19806   2.525   1.577   9.781 -0.0062  2.9891  2.3749
  174SOPE  C31019807   2.693   1.448   9.721  1.1601 -0.6383  0.6572
  174SOPE  H10X19808   2.628   1.358   9.714  1.0592 -0.4285 -1.7904
  174SOPE  H10Y19809   2.789   1.397   9.745  1.7615 -0.7809 -1.8377
  174SOPE  C31119810   2.703   1.501   9.582  0.3980 -1.0341  0.6246
  174SOPE  H11X19811   2.796   1.562   9.581  0.5793 -1.3087  0.1973
  174SOPE  H11Y19812   2.624   1.570   9.548  1.1921 -1.1485 -1.6559
  174SOPE  C31219813   2.719   1.389   9.473  0.6096  0.3516 -0.2423
  174SOPE  H12X19814   2.619   1.368   9.428 -0.1010  1.5932  0.6921
  174SOPE  H12Y19815   2.766   1.300   9.520  2.7929  2.0737  1.0112
  174SOPE  C31319816   2.813   1.439   9.363  0.2638 -0.3306  0.5165
  174SOPE  H13X19817   2.837   1.352   9.299 -0.9788  0.7568 -1.5463
  174SOPE  H13Y19818   2.904   1.483   9.409 -0.7585  0.2830  2.0803
  174SOPE  C31419819   2.748   1.545   9.273  0.1110 -0.0321 -0.4450
  174SOPE  H14X19820   2.712   1.635   9.326 -0.6132 -1.3817  1.4687
  174SOPE  H14Y19821   2.655   1.496   9.236  0.8156 -0.7755 -1.2890
  174SOPE  C31519822   2.827   1.584   9.149 -0.0232 -0.0813  0.4729
  174SOPE  H15X19823   2.927   1.615   9.184  0.2303  1.1471 -1.2066
  174SOPE  H15Y19824   2.778   1.667   9.095 -1.4987  0.0424  1.9075
  174SOPE  C31619825   2.833   1.466   9.050  0.0270  0.2103 -0.1310
  174SOPE  H16X19826   2.730   1.454   9.010  0.5714  1.8160 -2.2110
  174SOPE  H16Y19827   2.871   1.369   9.087 -0.6543  0.1107  0.3258
  174SOPE  C31719828   2.917   1.497   8.924  0.0094  0.0975 -0.4612
  174SOPE  H17X19829   3.024   1.505   8.954 -0.5160 -0.1866  1.6621
  174SOPE  H17Y19830   2.882   1.596   8.889  1.7244  1.3501  1.1268
  174SOPE  C31819831   2.905   1.394   8.805  0.1747 -0.1033 -0.3195
  174SOPE  H18X19832   2.958   1.443   8.720 -0.3143  2.6520  0.8605
  174SOPE  H18Y19833   2.800   1.392   8.767 -1.1159  0.0376  2.9393
  174SOPE  H18Z19834   2.940   1.291   8.828  0.0008  0.6853  4.2131
  175SOPE     N19835   5.895   1.289  10.916  0.1098 -0.1371  0.1810
  175SOPE   HN119836   5.835   1.208  10.889  2.5552 -1.3420 -2.1795
  175SOPE   HN219837   5.982   1.292  10.859 -0.7839 -3.9678 -1.7056
  175SOPE   HN319838   5.921   1.266  11.015  1.6004 -3.3603 -0.7877
  175SOPE   C1219839   5.841   1.431  10.901  1.1636 -0.0777 -0.2939
  175SOPE  H12A19840   5.740   1.426  10.947  1.5185  0.5756  0.5862
  175SOPE  H12B19841   5.827   1.454  10.793  2.5888 -0.3702 -0.5641
  175SOPE   C1119842   5.925   1.526  10.973  1.0496  0.0925  0.6256
  175SOPE  H11A19843   5.895   1.514  11.080  0.2499 -1.0941  0.2865
  175SOPE  H11B19844   5.899   1.634  10.973 -0.4756 -0.2012  3.1480
  175SOPE     P19845   6.138   1.604  10.839 -0.1475  0.5396 -0.0243
  175SOPE   O1319846   6.248   1.520  10.782 -0.0581  0.0245  0.0107
  175SOPE   O1419847   6.183   1.726  10.914 -0.5376  0.3873  0.0346
  175SOPE   O1219848   6.068   1.502  10.942 -0.3364 -0.1334 -0.1796
  175SOPE   O1119849   6.029   1.642  10.730 -0.3559  0.5589 -0.9513
  175SOPE    C119850   5.969   1.767  10.711  0.8004 -0.3893  0.1941
  175SOPE    HA19851   6.045   1.844  10.687  0.7367 -0.4828 -0.3121
  175SOPE    HB19852   5.921   1.806  10.803 -0.6224  0.8741 -1.0377
  175SOPE    C219853   5.853   1.755  10.599 -0.1057 -0.5275 -0.5464
  175SOPE    HS19854   5.785   1.672  10.627 -1.5400  0.6997 -0.2722
  175SOPE   O2119855   5.922   1.739  10.469 -0.4939 -0.1647 -0.4036
  175SOPE   C2119856   5.950   1.614  10.435  0.5758  0.9776 -0.6581
  175SOPE   O2219857   5.927   1.510  10.500 -0.0890  0.3998 -0.0451
  175SOPE   C2219858   5.983   1.608  10.291 -0.8075  0.0413 -0.5063
  175SOPE   H2R19859   6.048   1.520  10.272 -0.1453  0.6881 -1.3413
  175SOPE   H2S19860   6.048   1.698  10.279  0.3665 -0.2291  2.8280
  175SOPE    C319861   5.767   1.878  10.597  0.1357  0.2987  0.4438
  175SOPE    HX19862   5.833   1.967  10.600  1.2175 -0.4750  0.2309
  175SOPE    HY19863   5.699   1.888  10.684  0.0037  2.8987  0.1102
  175SOPE   O3119864   5.684   1.875  10.478 -0.2865 -0.0313  0.5487
  175SOPE   C3119865   5.712   1.972  10.387  0.0673 -0.3452  0.9781
  175SOPE   O3219866   5.795   2.064  10.390  0.3708  0.0416 -0.2299
  175SOPE   C3219867   5.606   1.953  10.273 -0.1810  0.0790  0.1980
  175SOPE   H2X19868   5.506   1.990  10.305 -0.6843 -0.0522 -1.1510
  175SOPE   H2Y19869   5.612   1.847  10.240 -0.2638  0.4165 -0.9127
  175SOPE   C2319870   5.854   1.599  10.213  0.5479 -0.0119 -0.3257
  175SOPE   H3R19871   5.780   1.666  10.263  2.1957 -0.4089  2.8413
  175SOPE   H3S19872   5.801   1.502  10.219 -0.9642  0.5910 -2.5358
  175SOPE   C2419873   5.884   1.654  10.068  0.2535 -0.1438 -0.8651
  175SOPE   H4R19874   5.925   1.757  10.069 -0.1397  0.0313  1.0512
  175SOPE   H4S19875   5.954   1.583  10.018  3.1627  1.9134  0.0621
  175SOPE   C2519876   5.755   1.673   9.985 -0.1741  0.0976  0.1683
  175SOPE   H5R19877   5.730   1.566   9.976  1.9186 -0.5759  1.6129
  175SOPE   H5S19878   5.677   1.733  10.037  0.3811  0.0886  1.0292
  175SOPE   C2619879   5.767   1.719   9.842  0.2690  0.5468  0.6082
  175SOPE   H6R19880   5.822   1.815   9.846  1.1607  0.0493  0.4163
  175SOPE   H6S19881   5.837   1.643   9.803 -0.5591 -1.4825  2.8229
  175SOPE   C2719882   5.628   1.723   9.776 -0.1927 -0.2696  0.0211
  175SOPE   H7R19883   5.592   1.619   9.760  0.6834 -0.5425 -0.2064
  175SOPE   H7S19884   5.559   1.776   9.846 -1.1410 -0.4938 -0.7107
  175SOPE   C2819885   5.637   1.791   9.632 -0.0325 -0.2530 -0.3608
  175SOPE   H8R19886   5.528   1.808   9.616 -0.6304 -1.6628  1.7439
  175SOPE   H8S19887   5.700   1.882   9.643  1.0938 -1.2229  1.8986
  175SOPE   C2919888   5.693   1.695   9.535 -0.3191 -0.9798  0.4250
  175SOPE   H9119889   5.772   1.636   9.583 -0.3247 -0.6830  0.8044
  175SOPE  C21019890   5.657   1.677   9.409 -0.2355  0.5034 -1.1076
  175SOPE  H10119891   5.705   1.602   9.345 -2.3138 -0.4907 -1.5877
  175SOPE  C21119892   5.546   1.748   9.332 -0.3500 -0.4674 -0.7514
  175SOPE  H11R19893   5.472   1.797   9.399  0.6748  0.6289 -0.3818
  175SOPE  H11S19894   5.486   1.669   9.282 -2.1411  0.4442 -0.1470
  175SOPE  C21219895   5.604   1.838   9.224 -0.5188 -0.6148  0.5452
  175SOPE  H12R19896   5.684   1.779   9.175 -0.2513  0.2621 -0.1103
  175SOPE  H12S19897   5.658   1.925   9.268 -0.0307 -1.2861  1.3035
  175SOPE  C21319898   5.497   1.870   9.121 -0.2365 -0.9887  0.1612
  175SOPE  H13R19899   5.425   1.943   9.163  0.3669 -0.6028  0.5235
  175SOPE  H13S19900   5.449   1.774   9.089 -0.2477 -1.5283  1.7391
  175SOPE  C21419901   5.558   1.924   8.988  0.6372 -0.0563  0.5424
  175SOPE  H14R19902   5.639   1.856   8.953  3.3111  3.0161  0.2212
  175SOPE  H14S19903   5.616   2.017   9.007  1.3008 -0.3295 -0.0959
  175SOPE  C21519904   5.449   1.963   8.886 -0.2009  0.5309 -0.6684
  175SOPE  H15R19905   5.366   2.021   8.931 -0.4210  1.5904 -2.3399
  175SOPE  H15S19906   5.399   1.877   8.837 -1.8523  0.6403  0.7161
  175SOPE  C21619907   5.502   2.060   8.776  0.0919 -0.2219  0.1618
  175SOPE  H16R19908   5.530   1.986   8.699 -0.8991  0.5874 -1.0127
  175SOPE  H16S19909   5.595   2.113   8.806 -0.9055  2.4217 -1.0973
  175SOPE  C21719910   5.398   2.142   8.713  0.2171  0.4379  0.0698
  175SOPE  H17R19911   5.309   2.076   8.699  0.2051  0.2790  0.8692
  175SOPE  H17S19912   5.437   2.183   8.617  0.3784 -1.1966 -0.6053
  175SOPE  C21819913   5.352   2.258   8.798  0.2423  0.6129  0.4205
  175SOPE  H18R19914   5.280   2.315   8.736  0.8266 -0.2689 -1.1115
  175SOPE  H18S19915   5.437   2.322   8.828  1.9077 -0.7734 -1.1427
  175SOPE  H18T19916   5.296   2.219   8.886  0.2959  0.7749  0.5280
  175SOPE   C3319917   5.661   2.023  10.145 -0.9526  0.3757 -0.4045
  175SOPE   H3X19918   5.739   1.959  10.097 -1.3029  0.4001 -1.0231
  175SOPE   H3Y19919   5.723   2.112  10.171  2.6035 -2.0636  0.2381
  175SOPE   C3419920   5.559   2.061  10.034 -0.7224  0.0306 -0.5046
  175SOPE   H4X19921   5.516   2.161  10.057 -1.8663 -0.9891  2.1305
  175SOPE   H4Y19922   5.467   1.999  10.032 -0.1161 -0.8788 -0.7601
  175SOPE   C3519923   5.615   2.070   9.892  0.1590  0.3950 -0.1718
  175SOPE   H5X19924   5.606   1.973   9.839  3.0195  0.4954 -1.0024
  175SOPE   H5Y19925   5.726   2.083   9.892  0.2666  0.4409  3.6427
  175SOPE   C3619926   5.554   2.180   9.809  0.2289 -0.8335  0.0187
  175SOPE   H6X19927   5.573   2.279   9.856 -1.1587 -0.4910 -0.0895
  175SOPE   H6Y19928   5.444   2.167   9.810  0.3962 -2.7119 -1.1133
  175SOPE   C3719929   5.599   2.191   9.661  0.2715  0.6220  0.4431
  175SOPE   H7X19930   5.585   2.087   9.624  4.2008  0.5308 -1.3073
  175SOPE   H7Y19931   5.709   2.207   9.662  0.5710 -1.2081  0.3644
  175SOPE   C3819932   5.522   2.300   9.581 -0.1568  0.1295  0.4639
  175SOPE   H8X19933   5.537   2.389   9.646  3.0352 -1.5851  2.3240
  175SOPE   H8Y19934   5.412   2.283   9.576 -0.4326  2.0832 -1.3178
  175SOPE   C3919935   5.582   2.318   9.446 -0.3269 -0.0428  0.3117
  175SOPE   H9X19936   5.691   2.302   9.446 -0.0031  1.9028  0.0391
  175SOPE   H9Y19937   5.560   2.418   9.402 -1.2410 -0.9274 -1.3410
  175SOPE  C31019938   5.524   2.220   9.338 -0.1626 -0.4762  0.3362
  175SOPE  H10X19939   5.413   2.228   9.347 -0.1829 -1.3448  1.0214
  175SOPE  H10Y19940   5.558   2.118   9.367  0.9531  0.2964  1.8279
  175SOPE  C31119941   5.561   2.259   9.189 -0.3274  0.5933  0.3848
  175SOPE  H11X19942   5.513   2.186   9.121  0.4837 -0.4720  0.9288
  175SOPE  H11Y19943   5.670   2.248   9.170  0.0162  2.4182  1.0621
  175SOPE  C31219944   5.515   2.396   9.142  0.5815 -0.3601  0.9712
  175SOPE  H12X19945   5.541   2.388   9.034  3.1475 -1.0938  1.5783
  175SOPE  H12Y19946   5.589   2.474   9.172  0.7627  0.5022 -1.4942
  175SOPE  C31319947   5.370   2.426   9.157 -0.4178 -0.3231  0.2416
  175SOPE  H13X19948   5.345   2.450   9.262  0.3157  0.1488  0.3174
  175SOPE  H13Y19949   5.309   2.339   9.122 -1.1584  0.8995 -1.6799
  175SOPE  C31419950   5.337   2.549   9.066  0.2348  0.4126  0.1352
  175SOPE  H14X19951   5.374   2.525   8.965  1.7461 -1.4643  1.0644
  175SOPE  H14Y19952   5.397   2.636   9.102 -0.9595  0.9567  0.9110
  175SOPE  C31519953   5.189   2.592   9.068 -0.1745 -0.2816  0.6632
  175SOPE  H15X19954   5.170   2.639   9.167  1.1222  0.1777  0.7192
  175SOPE  H15Y19955   5.121   2.504   9.069  1.2747 -1.5245 -1.5105
  175SOPE  C31619956   5.156   2.669   8.943  0.3458 -0.3337  0.1405
  175SOPE  H16X19957   5.170   2.604   8.855 -1.4414 -0.4938 -0.0535
  175SOPE  H16Y19958   5.230   2.752   8.938  0.8442 -0.7842 -4.6955
  175SOPE  C31719959   5.005   2.707   8.947 -0.5541 -0.6647  0.0622
  175SOPE  H17X19960   4.972   2.747   9.045 -1.8869 -0.9365 -0.2618
  175SOPE  H17Y19961   4.942   2.618   8.930 -1.1174 -0.4123  0.7741
  175SOPE  C31819962   4.972   2.808   8.831  0.2930 -0.0839 -0.2860
  175SOPE  H18X19963   4.864   2.836   8.825  0.5613  1.4520  1.2297
  175SOPE  H18Y19964   5.002   2.765   8.733 -1.5586  2.3218 -2.0339
  175SOPE  H18Z19965   5.021   2.906   8.848 -1.8287  1.0667 -0.3991
  176SOPE     N19966   5.734   2.474  11.192  0.1414 -0.5529  0.9915
  176SOPE   HN119967   5.770   2.528  11.274 -1.3182  1.6197  0.2876
  176SOPE   HN219968   5.779   2.513  11.107  0.7436  0.2518  1.6505
  176SOPE   HN319969   5.640   2.510  11.168 -0.3745 -0.8509  2.4184
  176SOPE   C1219970   5.733   2.331  11.206 -0.2555  0.5705  0.0478
  176SOPE  H12A19971   5.692   2.323  11.309  0.9241  2.0276  0.6623
  176SOPE  H12B19972   5.838   2.297  11.202 -0.6159 -0.5460 -0.4529
  176SOPE   C1119973   5.635   2.256  11.103  0.1826 -0.5702 -0.1544
  176SOPE  H11A19974   5.668   2.150  11.098 -0.2902 -0.7301  0.0731
  176SOPE  H11B19975   5.664   2.288  11.000  0.8932 -0.0002  0.2126
  176SOPE     P19976   5.399   2.379  11.063  0.1059 -0.1304 -0.4861
  176SOPE   O1319977   5.459   2.511  11.084 -0.2291  0.2089 -0.0630
  176SOPE   O1419978   5.256   2.364  11.107 -0.1847 -0.9979  0.3374
  176SOPE   O1219979   5.498   2.274  11.132  0.0596 -0.4973 -0.0944
  176SOPE   O1119980   5.398   2.344  10.912  0.1047  0.2416 -0.0162
  176SOPE    C119981   5.359   2.217  10.850  0.5259  0.0645  0.2512
  176SOPE    HA19982   5.301   2.149  10.917 -0.7400 -1.5382 -2.3143
  176SOPE    HB19983   5.456   2.167  10.830 -0.0308 -0.4432 -1.3774
  176SOPE    C219984   5.270   2.230  10.722  1.1781  0.1652 -0.0770
  176SOPE    HS19985   5.241   2.128  10.687  2.4650 -0.3676  0.3098
  176SOPE   O2119986   5.351   2.291  10.620  0.0558 -0.8948 -0.2236
  176SOPE   C2119987   5.447   2.224  10.567 -0.3015 -0.5233 -0.2245
  176SOPE   O2219988   5.467   2.109  10.610  0.2304 -0.0437  0.1382
  176SOPE   C2219989   5.520   2.300  10.459  0.4305  0.2335  0.3968
  176SOPE   H2R19990   5.581   2.230  10.398  0.1199  2.2622 -2.4137
  176SOPE   H2S19991   5.593   2.369  10.504 -0.8009  2.0624 -0.2687
  176SOPE    C319992   5.145   2.312  10.763 -0.2568  0.4698  0.6450
  176SOPE    HX19993   5.180   2.412  10.798 -2.4217  1.4096  0.2477
  176SOPE    HY19994   5.095   2.262  10.848 -2.6044  0.7973 -0.4886
  176SOPE   O3119995   5.044   2.319  10.659 -0.1643 -0.0307 -0.1196
  176SOPE   C3119996   5.047   2.428  10.579 -0.0643  0.1857  0.3751
  176SOPE   O3219997   5.101   2.534  10.600 -0.2139 -0.4423  0.0813
  176SOPE   C3219998   4.963   2.399  10.452 -0.5094 -0.5716  0.1555
  176SOPE   H2X19999   4.857   2.403  10.485 -0.4656  1.3500  0.1936
  176SOPE   H2Y20000   4.977   2.301  10.402  1.3128  0.2223 -1.0248
  176SOPE   C2320001   5.418   2.378  10.373 -0.0992 -0.1004  0.3737
  176SOPE   H3R20002   5.384   2.468  10.427 -1.6088  1.4228 -2.8606
  176SOPE   H3S20003   5.333   2.309  10.352  0.3986 -0.5684 -0.1748
  176SOPE   C2420004   5.474   2.438  10.241 -0.2710 -0.2416  0.1370
  176SOPE   H4R20005   5.555   2.500  10.285  0.4258 -1.2674  0.3433
  176SOPE   H4S20006   5.524   2.351  10.193 -0.2542 -2.0567  3.1393
  176SOPE   C2520007   5.375   2.516  10.152  0.0874 -0.1747 -0.5601
  176SOPE   H5R20008   5.290   2.446  10.133  0.0995 -0.8847  1.7782
  176SOPE   H5S20009   5.334   2.592  10.221  0.4446 -1.2481  0.8917
  176SOPE   C2620010   5.429   2.569  10.017 -0.3817  0.6381  0.8204
  176SOPE   H6R20011   5.508   2.636  10.058  2.8544 -2.6467  0.5221
  176SOPE   H6S20012   5.471   2.493   9.948 -2.7607  0.1847 -0.1986
  176SOPE   C2720013   5.323   2.641   9.930 -1.0391 -0.3162  0.1089
  176SOPE   H7R20014   5.260   2.567   9.877 -1.9847  0.2436  0.4244
  176SOPE   H7S20015   5.242   2.680   9.996  0.0489  1.0649  0.6902
  176SOPE   C2820016   5.380   2.756   9.845  0.5809 -0.6232 -0.6547
  176SOPE   H8R20017   5.293   2.798   9.790  0.9327 -0.0175 -0.7513
  176SOPE   H8S20018   5.413   2.844   9.905 -0.4763  0.3553 -1.4457
  176SOPE   C2920019   5.486   2.697   9.753 -0.0409  0.0985  0.3175
  176SOPE   H9120020   5.586   2.678   9.795  0.8859  0.4040 -1.6693
  176SOPE  C21020021   5.468   2.658   9.625 -0.1774 -0.0397 -0.0210
  176SOPE  H10120022   5.552   2.606   9.577  0.6488 -0.2679  1.6260
  176SOPE  C21120023   5.335   2.668   9.549  0.0800  0.5125  0.1438
  176SOPE  H11R20024   5.250   2.655   9.619  0.6026  1.6891  1.0362
  176SOPE  H11S20025   5.328   2.585   9.476  0.0072  0.1636  0.5410
  176SOPE  C21220026   5.320   2.798   9.466 -0.2173  0.4074  0.2430
  176SOPE  H12R20027   5.340   2.875   9.542 -2.4358  0.6416  0.6422
  176SOPE  H12S20028   5.215   2.801   9.431 -0.1305 -1.9260 -0.3926
  176SOPE  C21320029   5.431   2.814   9.354 -0.4390  0.6677  0.1145
  176SOPE  H13R20030   5.442   2.711   9.313 -1.6919  0.7536 -0.4803
  176SOPE  H13S20031   5.529   2.842   9.399 -0.9202  2.2145  0.2284
  176SOPE  C21420032   5.397   2.925   9.251 -0.6330 -0.4438  0.0756
  176SOPE  H14R20033   5.388   3.016   9.313 -1.2248  0.5631 -1.4355
  176SOPE  H14S20034   5.301   2.900   9.200 -0.7686  0.1854  0.0257
  176SOPE  C21520035   5.508   2.935   9.142 -0.3392  0.8291  0.9435
  176SOPE  H15R20036   5.510   2.838   9.088 -0.3548  0.8604  0.8873
  176SOPE  H15S20037   5.610   2.942   9.186  0.6830 -0.4504 -1.0732
  176SOPE  C21620038   5.502   3.059   9.044 -0.3129  0.0621 -0.7752
  176SOPE  H16R20039   5.606   3.069   9.006 -0.8169  1.4001 -1.9085
  176SOPE  H16S20040   5.483   3.154   9.099  0.9175 -0.8955  1.4375
  176SOPE  C21720041   5.410   3.038   8.926  0.1042 -0.5774 -0.6574
  176SOPE  H17R20042   5.373   3.138   8.894 -0.7357 -0.4798  0.5120
  176SOPE  H17S20043   5.314   2.990   8.957  0.5582 -0.6026  0.7895
  176SOPE  C21820044   5.470   2.970   8.806 -0.0488 -0.4487  0.7428
  176SOPE  H18R20045   5.389   2.957   8.730 -0.5173  4.1053  0.2239
  176SOPE  H18S20046   5.522   2.872   8.812 -0.0204 -0.6298 -1.4187
  176SOPE  H18T20047   5.539   3.046   8.764 -1.3899  0.0007 -0.7838
  176SOPE   C3320048   4.997   2.518  10.355  0.6758  0.4114 -0.5573
  176SOPE   H3X20049   5.105   2.542  10.353  0.9471  0.5092  4.3419
  176SOPE   H3Y20050   4.942   2.606  10.393 -0.3788 -0.9245  1.1764
  176SOPE   C3420051   4.942   2.489  10.209 -0.5507  0.4612 -0.3668
  176SOPE   H4X20052   4.963   2.583  10.153 -0.1306  1.2213  1.0100
  176SOPE   H4Y20053   4.832   2.482  10.224 -0.8713  3.0659 -1.0241
  176SOPE   C3520054   4.998   2.368  10.140  0.0924  0.2552  0.5002
  176SOPE   H5X20055   4.951   2.273  10.173 -1.9150  0.2292 -2.0650
  176SOPE   H5Y20056   5.106   2.353  10.163  1.2657  1.3109 -3.5343
  176SOPE   C3620057   4.968   2.383   9.987 -0.0035 -0.4191  0.0330
  176SOPE   H6X20058   5.003   2.484   9.958  0.1034  0.4175  2.8120
  176SOPE   H6Y20059   4.859   2.392   9.968  0.5875 -0.0547 -4.0554
  176SOPE   C3720060   5.049   2.288   9.896  0.1246 -0.1769 -1.0748
  176SOPE   H7X20061   5.034   2.180   9.920 -2.6449  0.3792  0.0741
  176SOPE   H7Y20062   5.153   2.320   9.921 -0.3268 -0.2447  1.0829
  176SOPE   C3820063   5.020   2.298   9.752 -0.3147 -0.2952  0.0419
  176SOPE   H8X20064   4.913   2.327   9.750 -0.1743  0.2167 -1.0751
  176SOPE   H8Y20065   5.050   2.203   9.703 -0.3803  0.2932 -1.1785
  176SOPE   C3920066   5.095   2.411   9.676 -0.2822 -0.1499 -0.3691
  176SOPE   H9X20067   5.200   2.377   9.662 -0.4286 -0.2531 -1.3263
  176SOPE   H9Y20068   5.088   2.501   9.740 -0.6606 -0.2213 -0.3108
  176SOPE  C31020069   5.018   2.434   9.547  0.0662 -0.3414 -0.1701
  176SOPE  H10X20070   5.025   2.542   9.521  1.9237 -0.9167 -2.3678
  176SOPE  H10Y20071   4.912   2.423   9.580  0.6309 -1.1656  1.4374
  176SOPE  C31120072   5.040   2.341   9.425  0.5142  0.0039  0.0405
  176SOPE  H11X20073   5.040   2.232   9.448  1.1440 -0.2646 -1.1370
  176SOPE  H11Y20074   5.145   2.360   9.393  0.3627  0.2729 -0.2990
  176SOPE  C31220075   4.940   2.371   9.316  0.9983  0.3497  0.8381
  176SOPE  H12X20076   4.968   2.473   9.284 -0.5829  0.3339 -0.7580
  176SOPE  H12Y20077   4.834   2.374   9.351 -0.3673 -2.2642 -2.5297
  176SOPE  C31320078   4.948   2.281   9.189 -0.3900  0.4042  0.6964
  176SOPE  H13X20079   4.904   2.180   9.201  1.9162 -1.3523 -3.5882
  176SOPE  H13Y20080   5.055   2.271   9.163  0.0413  0.4781  2.3113
  176SOPE  C31420081   4.872   2.346   9.066  0.2613 -0.0071  0.3765
  176SOPE  H14X20082   4.924   2.441   9.044 -0.2545  0.3849  0.8066
  176SOPE  H14Y20083   4.770   2.360   9.108 -0.6678 -0.7077 -1.5551
  176SOPE  C31520084   4.849   2.269   8.933 -0.1471 -0.0580 -0.4901
  176SOPE  H15X20085   4.788   2.335   8.868  0.0538 -0.7118 -1.3666
  176SOPE  H15Y20086   4.791   2.177   8.957  0.5562 -0.6772 -1.0854
  176SOPE  C31620087   4.981   2.236   8.860  0.1651  0.1330  0.3033
  176SOPE  H16X20088   5.062   2.200   8.927 -0.5158 -1.9429  0.0760
  176SOPE  H16Y20089   5.009   2.335   8.819 -2.1763 -0.1804 -2.3377
  176SOPE  C31720090   4.966   2.142   8.744  0.4184 -1.4570 -0.3498
  176SOPE  H17X20091   5.042   2.164   8.666 -0.1506  4.8797  0.3479
  176SOPE  H17Y20092   4.876   2.164   8.681  0.1678 -0.1696  0.4181
  176SOPE  C31820093   4.961   1.991   8.775 -0.0824 -0.0173 -0.1670
  176SOPE  H18X20094   5.058   1.946   8.805 -0.0371 -1.3892 -2.1833
  176SOPE  H18Y20095   4.907   1.931   8.699 -1.7238  1.8807 -0.5919
  176SOPE  H18Z20096   4.904   1.977   8.869  0.6718 -0.4472  0.2367
  177SOPE     N20097   2.432   1.583  11.091  0.3577 -0.1292 -0.5781
  177SOPE   HN120098   2.506   1.545  11.154  1.3708  1.9823 -0.4026
  177SOPE   HN220099   2.345   1.526  11.092  1.8365 -2.5154 -0.9472
  177SOPE   HN320100   2.481   1.569  11.001 -0.5111  1.7236 -1.3746
  177SOPE   C1220101   2.389   1.721  11.123 -0.4340  0.7972 -0.2270
  177SOPE  H12A20102   2.321   1.708  11.210  0.3239  3.5134  0.8775
  177SOPE  H12B20103   2.329   1.753  11.036  0.5241  1.4825 -0.6557
  177SOPE   C1120104   2.515   1.808  11.140 -0.3057  0.0023  0.1424
  177SOPE  H11A20105   2.572   1.777  11.230 -1.6599 -0.2857  0.9312
  177SOPE  H11B20106   2.482   1.912  11.159 -0.0808  0.2641 -0.8764
  177SOPE     P20107   2.739   1.776  11.000  0.1828  0.0992 -0.2367
  177SOPE   O1320108   2.745   1.634  10.955 -1.0139 -0.1901 -0.4198
  177SOPE   O1420109   2.818   1.809  11.122 -1.0041  0.5965  0.3112
  177SOPE   O1220110   2.591   1.820  11.020  0.0543  1.0474  0.6735
  177SOPE   O1120111   2.793   1.876  10.894  0.0167 -0.1210  0.1577
  177SOPE    C120112   2.713   1.966  10.819 -0.3930 -0.6114  0.3614
  177SOPE    HA20113   2.788   2.038  10.780 -0.4677  1.0760  3.0877
  177SOPE    HB20114   2.644   2.023  10.885  0.6372  0.4890  0.5191
  177SOPE    C220115   2.635   1.900  10.709  0.1203  0.5564 -0.0957
  177SOPE    HS20116   2.586   1.811  10.752  0.4083 -0.0971 -1.0669
  177SOPE   O2120117   2.718   1.865  10.594  0.0251 -0.1452  0.2180
  177SOPE   C2120118   2.668   1.777  10.509 -0.0184  0.0427  0.5723
  177SOPE   O2220119   2.556   1.729  10.520 -0.0640  0.0227  0.3884
  177SOPE   C2220120   2.768   1.739  10.399  0.1906 -0.2527 -0.1218
  177SOPE   H2R20121   2.721   1.662  10.334  1.7991 -1.9221  0.6075
  177SOPE   H2S20122   2.856   1.689  10.446  1.0678 -0.0262 -1.4770
  177SOPE    C320123   2.520   1.997  10.664 -0.1957  0.1323  0.9512
  177SOPE    HX20124   2.465   2.010  10.760  1.3014  1.9666  1.6211
  177SOPE    HY20125   2.442   1.954  10.599 -1.3002  2.9037  0.2876
  177SOPE   O3120126   2.577   2.119  10.612  0.2413  0.3588  0.0762
  177SOPE   C3120127   2.573   2.127  10.484 -0.6831  0.5301 -0.3286
  177SOPE   O3220128   2.526   2.048  10.406  0.3227 -0.9244  0.0914
  177SOPE   C3220129   2.642   2.249  10.429 -0.1093 -0.0885  0.5814
  177SOPE   H2X20130   2.735   2.276  10.484 -0.3659  1.2224  0.4130
  177SOPE   H2Y20131   2.583   2.342  10.441 -0.5774 -0.5875  2.5646
  177SOPE   C2320132   2.819   1.860  10.308 -0.2933  0.4036  0.5902
  177SOPE   H3R20133   2.872   1.930  10.376 -1.0658 -0.2306  1.8939
  177SOPE   H3S20134   2.733   1.915  10.267  0.5230 -0.0488 -1.8780
  177SOPE   C2420135   2.912   1.800  10.197  0.7735 -0.2425 -0.1211
  177SOPE   H4R20136   2.998   1.755  10.251  1.0699 -0.3698 -0.6913
  177SOPE   H4S20137   2.871   1.719  10.132 -1.1925  1.3269 -0.9414
  177SOPE   C2520138   2.960   1.905  10.097 -0.0932  0.3667  0.2874
  177SOPE   H5R20139   2.864   1.953  10.068 -1.1375 -0.6851  1.7857
  177SOPE   H5S20140   3.021   1.976  10.157  2.6195 -1.3366 -0.2803
  177SOPE   C2620141   3.045   1.850   9.989 -0.3006  0.2028 -0.1647
  177SOPE   H6R20142   3.114   1.927   9.948 -1.2283  0.7320 -0.7898
  177SOPE   H6S20143   3.114   1.773  10.028  0.3666  0.5131 -0.7270
  177SOPE   C2720144   2.965   1.792   9.876  0.3669 -0.4748 -0.0977
  177SOPE   H7R20145   2.882   1.727   9.911 -0.8845  0.8525 -0.4642
  177SOPE   H7S20146   2.913   1.867   9.813 -1.4058 -2.2583 -0.8598
  177SOPE   C2820147   3.055   1.710   9.785 -0.1525  0.1071  0.1294
  177SOPE   H8R20148   3.091   1.628   9.850 -1.7712 -0.5728  0.2222
  177SOPE   H8S20149   2.989   1.641   9.728  1.3563 -1.4244  0.1760
  177SOPE   C2920150   3.162   1.769   9.695  0.1932  0.4439  0.6389
  177SOPE   H9120151   3.265   1.770   9.733 -0.3361  1.2796  2.1581
  177SOPE  C21020152   3.126   1.823   9.578 -0.8592 -0.2725 -0.4490
  177SOPE  H10120153   3.208   1.852   9.510 -2.6545  3.8769 -1.1174
  177SOPE  C21120154   2.991   1.826   9.516 -0.0889  0.2932 -0.0035
  177SOPE  H11R20155   2.917   1.773   9.580 -0.6700  0.7768 -0.2671
  177SOPE  H11S20156   2.997   1.751   9.434  0.1918 -0.1962  0.4554
  177SOPE  C21220157   2.958   1.966   9.471  0.1456  0.0355  0.0896
  177SOPE  H12R20158   3.048   2.027   9.448 -0.5297  1.6560  1.4857
  177SOPE  H12S20159   2.915   2.023   9.556  0.3975  0.7795 -0.2716
  177SOPE  C21320160   2.851   1.970   9.362 -0.9770  0.8993  0.2221
  177SOPE  H13R20161   2.775   1.894   9.387 -1.4174  1.4739  0.6584
  177SOPE  H13S20162   2.891   1.943   9.262 -2.1795  2.3745 -0.6956
  177SOPE  C21420163   2.790   2.109   9.350 -0.0622 -0.0385 -0.5165
  177SOPE  H14R20164   2.860   2.182   9.304  0.3686  0.6512  1.1829
  177SOPE  H14S20165   2.756   2.136   9.452  3.3919  0.5706  0.5875
  177SOPE  C21520166   2.673   2.100   9.250  0.4257 -0.2434 -0.1179
  177SOPE  H15R20167   2.606   2.017   9.281  1.0136  0.7201  4.4431
  177SOPE  H15S20168   2.712   2.067   9.151  2.2928  0.9222  0.1832
  177SOPE  C21620169   2.591   2.228   9.237  0.5589 -0.2383  0.9430
  177SOPE  H16R20170   2.519   2.199   9.157  1.0582 -0.6304  0.6294
  177SOPE  H16S20171   2.654   2.318   9.217  0.8209 -0.3387  1.2960
  177SOPE  C21720172   2.523   2.263   9.365 -0.0906  0.1698  0.0643
  177SOPE  H17R20173   2.600   2.304   9.433 -1.2260  1.4794  0.6043
  177SOPE  H17S20174   2.484   2.166   9.404 -1.9239  0.1908 -1.5190
  177SOPE  C21820175   2.415   2.373   9.354  0.2959 -0.1544 -0.4198
  177SOPE  H18R20176   2.468   2.452   9.297 -0.8372 -0.6865 -2.3342
  177SOPE  H18S20177   2.378   2.406   9.453  1.5527  0.2255 -0.0607
  177SOPE  H18T20178   2.331   2.335   9.292  0.1731  0.5473 -0.6917
  177SOPE   C3320179   2.684   2.225  10.278 -0.4055  0.7540  0.1203
  177SOPE   H3X20180   2.594   2.195  10.221  0.4397 -0.7665 -0.4879
  177SOPE   H3Y20181   2.743   2.131  10.274 -0.2923  0.8719 -1.6728
  177SOPE   C3420182   2.762   2.336  10.211 -0.1722  0.1815 -0.5692
  177SOPE   H4X20183   2.866   2.345  10.249  0.1265  1.5086 -1.6181
  177SOPE   H4Y20184   2.718   2.437  10.229 -0.6031 -0.4338  2.2336
  177SOPE   C3520185   2.777   2.299  10.056  1.2430 -0.4277  0.3322
  177SOPE   H5X20186   2.757   2.393  10.001 -0.0013 -1.2258 -0.6231
  177SOPE   H5Y20187   2.705   2.226  10.014  1.3502 -0.8794  0.9096
  177SOPE   C3620188   2.914   2.257  10.013 -0.4708 -0.1116  0.1652
  177SOPE   H6X20189   2.955   2.181  10.082 -0.5398 -1.5764 -1.3320
  177SOPE   H6Y20190   2.989   2.339  10.004 -0.3959 -0.2358 -0.4176
  177SOPE   C3720191   2.921   2.188   9.873  0.3214 -0.6450  0.3075
  177SOPE   H7X20192   2.886   2.083   9.882 -0.5671 -0.3291  0.6226
  177SOPE   H7Y20193   3.028   2.176   9.844 -0.0084 -0.8550 -0.8477
  177SOPE   C3820194   2.834   2.254   9.762 -0.4260  0.1899  0.2949
  177SOPE   H8X20195   2.725   2.251   9.782 -0.1456 -0.4294  1.8846
  177SOPE   H8Y20196   2.843   2.194   9.669 -0.7728  1.7796 -0.8005
  177SOPE   C3920197   2.882   2.394   9.714  0.2264 -0.5916  0.5608
  177SOPE   H9X20198   2.991   2.395   9.695  0.0007 -1.0533 -0.8078
  177SOPE   H9Y20199   2.858   2.465   9.796  1.0201  2.4127 -1.6402
  177SOPE  C31020200   2.800   2.462   9.602  0.0282  0.2727  0.3377
  177SOPE  H10X20201   2.693   2.438   9.621  0.4014 -2.2548 -0.3373
  177SOPE  H10Y20202   2.811   2.403   9.509 -1.3900 -0.0025  0.3214
  177SOPE  C31120203   2.849   2.608   9.572 -0.8282  0.2764 -0.4302
  177SOPE  H11X20204   2.960   2.602   9.561 -0.6843  0.4963  0.7754
  177SOPE  H11Y20205   2.833   2.658   9.670 -0.7174 -2.7187  1.2165
  177SOPE  C31220206   2.767   2.676   9.456 -0.1434  0.4554  0.0953
  177SOPE  H12X20207   2.806   2.780   9.454 -1.5226  1.0935  2.3966
  177SOPE  H12Y20208   2.667   2.699   9.498  2.0768  3.5681  4.4382
  177SOPE  C31320209   2.779   2.612   9.315  0.3590  0.2194 -0.5470
  177SOPE  H13X20210   2.728   2.669   9.235  1.3666  1.2763 -0.4563
  177SOPE  H13Y20211   2.742   2.507   9.321 -0.1972  0.4393 -0.0632
  177SOPE  C31420212   2.927   2.600   9.273 -0.1466 -0.1823 -0.3239
  177SOPE  H14X20213   2.981   2.528   9.339 -0.1740  0.7329  0.7265
  177SOPE  H14Y20214   2.978   2.698   9.280  1.3495 -0.9212 -0.3767
  177SOPE  C31520215   2.955   2.543   9.126 -0.3911 -0.7516 -0.4820
  177SOPE  H15X20216   3.057   2.578   9.101 -0.8631  1.4681  0.4244
  177SOPE  H15Y20217   2.879   2.593   9.063 -0.3684 -0.5571 -0.3571
  177SOPE  C31620218   2.949   2.395   9.117  0.3871 -0.1850 -0.8455
  177SOPE  H16X20219   2.842   2.367   9.122  0.2415  0.2883 -1.2451
  177SOPE  H16Y20220   3.010   2.348   9.197  0.6880  0.9345 -0.4051
  177SOPE  C31720221   3.006   2.334   8.993  0.2562  0.0908  0.1944
  177SOPE  H17X20222   2.970   2.229   8.992 -1.5299  0.6690  0.4659
  177SOPE  H17Y20223   3.117   2.339   8.990  0.2161  0.3190 -1.8712
  177SOPE  C31820224   2.945   2.405   8.871  0.6815  0.2330 -0.8370
  177SOPE  H18X20225   2.835   2.392   8.869  0.7017 -1.5117  2.4920
  177SOPE  H18Y20226   2.985   2.362   8.777  2.7286 -0.2387  0.1921
  177SOPE  H18Z20227   2.970   2.513   8.876 -0.1085  0.3889 -0.0594
  178SOPE     N20228   1.269   4.047  10.981  0.2058 -0.4859  0.0935
  178SOPE   HN120229   1.320   4.086  11.063  0.8587 -2.8985  0.9185
  178SOPE   HN220230   1.273   4.122  10.909 -1.4750  0.1069  0.5831
  178SOPE   HN320231   1.169   4.039  11.009  0.5310  1.0388  1.8899
  178SOPE   C1220232   1.326   3.919  10.936 -0.4572  0.2275  0.0742
  178SOPE  H12A20233   1.329   3.847  11.021  1.9649  0.4681  0.2829
  178SOPE  H12B20234   1.429   3.948  10.906 -1.7180  2.3633 -2.6335
  178SOPE   C1120235   1.250   3.869  10.823  0.8074  0.5851 -0.2101
  178SOPE  H11A20236   1.316   3.786  10.789  1.3444  1.0362 -0.2737
  178SOPE  H11B20237   1.235   3.944  10.742  1.1899 -0.7335 -1.5496
  178SOPE     P20238   1.057   3.692  10.801 -0.2394  0.3039  0.4543
  178SOPE   O1320239   0.924   3.734  10.748 -0.5838  0.5173 -0.2876
  178SOPE   O1420240   1.058   3.590  10.902 -0.1601 -0.5302 -0.1746
  178SOPE   O1220241   1.121   3.825  10.866 -0.1557  0.5891 -0.6277
  178SOPE   O1120242   1.148   3.649  10.685 -0.0574  0.2158 -0.2798
  178SOPE    C120243   1.193   3.528  10.635 -0.3853 -0.1133  0.1428
  178SOPE    HA20244   1.198   3.536  10.524 -4.0968 -0.0876 -0.1326
  178SOPE    HB20245   1.130   3.445  10.674  0.2013 -1.1018 -0.9551
  178SOPE    C220246   1.343   3.501  10.680 -0.1233 -1.1352  0.5096
  178SOPE    HS20247   1.352   3.526  10.788  1.0180  2.4082 -0.2851
  178SOPE   O2120248   1.436   3.596  10.611 -0.0947 -0.0497  0.0968
  178SOPE   C2120249   1.561   3.602  10.656  0.4163  0.4152 -0.3444
  178SOPE   O2220250   1.610   3.523  10.735  0.1657 -0.2920  0.1766
  178SOPE   C2220251   1.635   3.719  10.593 -0.1154 -0.3584  0.1806
  178SOPE   H2R20252   1.683   3.762  10.684  0.8776 -0.9314 -0.0538
  178SOPE   H2S20253   1.562   3.788  10.547  0.4570 -1.0729 -1.8812
  178SOPE    C320254   1.374   3.352  10.660  0.3638  0.8550 -0.3924
  178SOPE    HX20255   1.305   3.293  10.724 -1.5065  4.3029  0.9711
  178SOPE    HY20256   1.476   3.332  10.701 -0.1877  1.1150  1.1698
  178SOPE   O3120257   1.354   3.312  10.525 -0.1650 -0.1401  0.0181
  178SOPE   C3120258   1.454   3.313  10.438  0.5111 -0.7889 -0.0151
  178SOPE   O3220259   1.569   3.339  10.466 -0.1750  0.3754  0.2301
  178SOPE   C3220260   1.388   3.294  10.298 -0.6454  0.3881  0.3899
  178SOPE   H2X20261   1.372   3.399  10.267 -1.9198  0.1295  0.0975
  178SOPE   H2Y20262   1.288   3.247  10.310  0.2457 -1.9569 -0.6565
  178SOPE   C2320263   1.740   3.677  10.487 -0.1146 -0.7108  0.5723
  178SOPE   H3R20264   1.792   3.582  10.513 -0.3770 -0.8310  0.6572
  178SOPE   H3S20265   1.821   3.753  10.481 -0.1046 -0.7453  0.2020
  178SOPE   C2420266   1.680   3.668  10.349  0.2392 -0.0102  0.5235
  178SOPE   H4R20267   1.615   3.579  10.360 -0.4928  0.2219 -1.5816
  178SOPE   H4S20268   1.620   3.760  10.333  0.8723  0.5157  1.0789
  178SOPE   C2520269   1.777   3.660  10.237 -0.4383  0.0090  0.5552
  178SOPE   H5R20270   1.822   3.761  10.231 -0.2563 -0.0579  0.7582
  178SOPE   H5S20271   1.860   3.590  10.259  1.5523  1.6114 -1.4785
  178SOPE   C2620272   1.696   3.624  10.114 -0.4046  0.5608 -0.3895
  178SOPE   H6R20273   1.661   3.519  10.124  0.5851  0.1070 -1.4665
  178SOPE   H6S20274   1.605   3.686  10.096 -2.0830 -1.8194 -0.5426
  178SOPE   C2720275   1.778   3.619   9.982 -0.5648 -0.3920  0.5005
  178SOPE   H7R20276   1.813   3.722   9.962 -1.3131  0.1176  1.7114
  178SOPE   H7S20277   1.866   3.555  10.006  0.4386  0.7040 -0.1226
  178SOPE   C2820278   1.711   3.576   9.853  0.6331  0.0683  0.4309
  178SOPE   H8R20279   1.652   3.484   9.874  1.0774  0.0568  1.7479
  178SOPE   H8S20280   1.633   3.650   9.825  0.1882 -0.6036 -0.1327
  178SOPE   C2920281   1.810   3.568   9.742  0.0113  0.5170 -0.5125
  178SOPE   H9120282   1.881   3.651   9.748  0.2521  0.1796  2.3727
  178SOPE  C21020283   1.822   3.470   9.649 -0.8191  0.4771 -0.0906
  178SOPE  H10120284   1.910   3.476   9.583  0.2355 -0.2860  1.2024
  178SOPE  C21120285   1.721   3.358   9.625 -0.4712  0.1500 -0.0062
  178SOPE  H11R20286   1.640   3.366   9.701 -1.5809 -1.5567 -0.9342
  178SOPE  H11S20287   1.770   3.261   9.650  0.2030  0.4813 -0.0292
  178SOPE  C21220288   1.653   3.357   9.490  0.1869 -0.7395  0.3792
  178SOPE  H12R20289   1.635   3.463   9.462 -2.4593 -0.4554  2.7074
  178SOPE  H12S20290   1.564   3.292   9.506  1.4864 -2.8107 -0.4097
  178SOPE  C21320291   1.742   3.311   9.370 -0.0630  0.0446  0.4367
  178SOPE  H13R20292   1.782   3.209   9.390  0.5100  0.3397  0.8178
  178SOPE  H13S20293   1.825   3.384   9.366 -1.8990  2.2806  1.1715
  178SOPE  C21420294   1.665   3.340   9.242 -0.5982 -0.5172 -0.7124
  178SOPE  H14R20295   1.686   3.445   9.212  1.5637 -1.1597 -1.6443
  178SOPE  H14S20296   1.559   3.310   9.255 -1.0024 -0.9460 -4.0498
  178SOPE  C21520297   1.704   3.253   9.124  0.6474  0.1813 -0.7360
  178SOPE  H15R20298   1.660   3.152   9.136 -2.1102  1.3254 -0.4364
  178SOPE  H15S20299   1.813   3.237   9.137  0.3190 -1.5232  0.1225
  178SOPE  C21620300   1.661   3.319   8.990  0.7944  0.3750  0.1619
  178SOPE  H16R20301   1.688   3.249   8.908 -2.8631  0.8366 -1.6274
  178SOPE  H16S20302   1.721   3.408   8.963  1.6001 -0.5949 -1.4031
  178SOPE  C21720303   1.505   3.338   8.967 -0.1456 -0.4078  0.4536
  178SOPE  H17R20304   1.460   3.366   9.064 -2.6182 -0.8263 -0.4779
  178SOPE  H17S20305   1.469   3.234   8.950 -0.1317 -0.6928  2.0122
  178SOPE  C21820306   1.461   3.436   8.853 -0.2768 -0.4370 -0.0871
  178SOPE  H18R20307   1.355   3.425   8.822  0.1258  0.2925 -1.7781
  178SOPE  H18S20308   1.515   3.421   8.757 -0.9780 -2.9667 -0.1763
  178SOPE  H18T20309   1.477   3.540   8.887  1.3946 -1.2443  1.8634
  178SOPE   C3320310   1.482   3.207  10.209 -0.5623 -0.2380 -0.5380
  178SOPE   H3X20311   1.487   3.100  10.235 -0.0232 -0.4712 -1.5610
  178SOPE   H3Y20312   1.579   3.259  10.224 -0.1758 -0.8281 -0.9835
  178SOPE   C3420313   1.446   3.225  10.059 -0.2751 -0.5445 -0.5062
  178SOPE   H4X20314   1.521   3.163  10.006  1.9776  1.5771  0.0058
  178SOPE   H4Y20315   1.457   3.330  10.022 -0.5197 -1.7553 -4.5313
  178SOPE   C3520316   1.303   3.170  10.030 -0.0389  0.5647  0.6892
  178SOPE   H5X20317   1.224   3.216  10.093 -0.8707  0.3261 -0.1392
  178SOPE   H5Y20318   1.299   3.062  10.054  2.0386  0.4241  0.6048
  178SOPE   C3620319   1.254   3.187   9.882  0.4874  0.0427 -0.2444
  178SOPE   H6X20320   1.265   3.292   9.847 -1.9689  0.2082 -0.6614
  178SOPE   H6Y20321   1.144   3.173   9.879  0.8031 -4.0263  1.3521
  178SOPE   C3720322   1.312   3.103   9.770  0.2562  0.5708  0.0208
  178SOPE   H7X20323   1.267   3.008   9.806  1.2489  0.2098  0.3320
  178SOPE   H7Y20324   1.422   3.109   9.780  0.2169 -0.2817  1.2275
  178SOPE   C3820325   1.255   3.127   9.629 -0.1642 -0.0535 -0.1479
  178SOPE   H8X20326   1.267   3.237   9.615  0.9611  0.3697  3.1863
  178SOPE   H8Y20327   1.145   3.110   9.635 -0.0111 -0.6434  1.4286
  178SOPE   C3920328   1.318   3.050   9.505  0.2199  0.0317  0.3921
  178SOPE   H9X20329   1.300   2.942   9.523  1.1946 -0.0263  1.1044
  178SOPE   H9Y20330   1.428   3.062   9.501  0.3415 -1.0761 -0.2252
  178SOPE  C31020331   1.263   3.076   9.363  0.0978  0.1096  0.2652
  178SOPE  H10X20332   1.269   3.182   9.332  1.1913 -0.3562 -1.1976
  178SOPE  H10Y20333   1.158   3.040   9.358  0.1529  0.1075 -1.5077
  178SOPE  C31120334   1.338   2.994   9.251  0.2710  0.1213 -0.4116
  178SOPE  H11X20335   1.402   2.913   9.291 -1.2451 -0.6044  0.6330
  178SOPE  H11Y20336   1.410   3.066   9.206 -2.0717  2.0095 -1.3899
  178SOPE  C31220337   1.256   2.929   9.141  0.1853 -0.2680 -0.0916
  178SOPE  H12X20338   1.199   3.000   9.078  0.4128 -0.7799 -0.8951
  178SOPE  H12Y20339   1.186   2.851   9.180  0.8031 -1.3127 -1.0278
  178SOPE  C31320340   1.342   2.847   9.041 -1.0609 -0.1907 -0.1464
  178SOPE  H13X20341   1.273   2.768   9.006 -0.7904  0.2625 -1.7875
  178SOPE  H13Y20342   1.428   2.811   9.102 -0.0639 -0.0769 -1.4371
  178SOPE  C31420343   1.397   2.915   8.917 -0.4365 -0.5504 -0.1861
  178SOPE  H14X20344   1.462   3.001   8.941 -1.3189  0.5053 -1.4412
  178SOPE  H14Y20345   1.314   2.964   8.860 -0.3291 -0.8114 -0.5724
  178SOPE  C31520346   1.477   2.820   8.822 -0.9855  0.6413 -0.1715
  178SOPE  H15X20347   1.411   2.733   8.800 -1.1638  0.4922  0.9220
  178SOPE  H15Y20348   1.554   2.771   8.886 -0.5471  0.1071 -1.0781
  178SOPE  C31620349   1.563   2.877   8.711  0.5485 -0.0963  0.7284
  178SOPE  H16X20350   1.632   2.805   8.662 -0.4719  0.4612 -1.6746
  178SOPE  H16Y20351   1.631   2.959   8.743 -0.2928  0.0093  2.3628
  178SOPE  C31720352   1.479   2.946   8.600  0.1959  0.2695 -0.0677
  178SOPE  H17X20353   1.420   3.023   8.653  2.3800  0.3523  2.4880
  178SOPE  H17Y20354   1.408   2.873   8.554  0.4827  1.2877 -2.2672
  178SOPE  C31820355   1.568   3.002   8.486  0.2899 -0.6304 -0.1055
  178SOPE  H18X20356   1.510   3.053   8.406  0.1051 -0.4034  0.1661
  178SOPE  H18Y20357   1.637   2.923   8.450  0.7954  0.2051 -0.9864
  178SOPE  H18Z20358   1.629   3.079   8.537 -2.1417  0.6748  1.0581
  179SOPE     N20359   5.240   6.016   6.404 -0.4816  0.7694 -0.7250
  179SOPE   HN120360   5.166   6.048   6.470 -2.0199  0.7291 -2.3497
  179SOPE   HN220361   5.239   6.082   6.323  0.8492  0.6350 -0.8642
  179SOPE   HN320362   5.217   5.922   6.365  2.9862  0.3912 -2.2181
  179SOPE   C1220363   5.379   6.012   6.468  1.0406  0.0174  0.4547
  179SOPE  H12A20364   5.442   5.980   6.382 -1.4052 -0.0116 -1.4358
  179SOPE  H12B20365   5.372   5.928   6.540  0.2038 -1.8157 -1.6363
  179SOPE   C1120366   5.408   6.153   6.521 -0.3419  0.4114 -0.2514
  179SOPE  H11A20367   5.495   6.145   6.590  0.3404 -0.6974 -1.2140
  179SOPE  H11B20368   5.326   6.191   6.585 -0.2716  0.9937 -0.5046
  179SOPE     P20369   5.371   6.383   6.414 -0.0485 -0.5572  0.0958
  179SOPE   O1320370   5.252   6.394   6.323  0.0331 -0.1689 -0.0370
  179SOPE   O1420371   5.472   6.486   6.389 -0.1919  0.1962  0.2900
  179SOPE   O1220372   5.430   6.242   6.409  0.2358  0.8944  0.2810
  179SOPE   O1120373   5.331   6.394   6.560  0.3033 -0.1937  0.1179
  179SOPE    C120374   5.438   6.422   6.661  0.1460  0.4029  0.3558
  179SOPE    HA20375   5.518   6.489   6.623  1.2622 -0.4113  1.2002
  179SOPE    HB20376   5.501   6.332   6.680  1.3888  0.6966 -2.0145
  179SOPE    C220377   5.378   6.496   6.795 -0.0851 -0.5577 -0.3918
  179SOPE    HS20378   5.466   6.537   6.848 -0.2269 -2.4261  1.4378
  179SOPE   O2120379   5.303   6.403   6.882 -0.2649 -0.1659  0.0610
  179SOPE   C2120380   5.369   6.311   6.935 -0.1719 -0.7763 -0.2261
  179SOPE   O2220381   5.485   6.289   6.929 -1.0589  0.0332  0.8831
  179SOPE   C2220382   5.272   6.224   7.013  0.5621  0.8992 -0.3584
  179SOPE   H2R20383   5.211   6.175   6.934 -0.8519  1.0840  0.5723
  179SOPE   H2S20384   5.212   6.292   7.079  2.1314 -0.6348  2.8808
  179SOPE    C320385   5.287   6.617   6.756  0.0386 -0.0501 -0.5775
  179SOPE    HX20386   5.217   6.579   6.678 -0.9750  0.4128  0.0864
  179SOPE    HY20387   5.353   6.695   6.712  1.2224 -0.4926  0.3390
  179SOPE   O3120388   5.204   6.658   6.863  0.2079 -0.2062  0.4221
  179SOPE   C3120389   5.086   6.730   6.833 -0.4032 -0.3518 -0.5043
  179SOPE   O3220390   5.043   6.746   6.722 -0.2859  0.0077 -0.0751
  179SOPE   C3220391   5.022   6.783   6.961 -0.0187 -0.6251  0.4579
  179SOPE   H2X20392   5.011   6.708   7.042  0.2628  1.0637  2.1630
  179SOPE   H2Y20393   4.922   6.824   6.938  1.0651  2.1585  0.1832
  179SOPE   C2320394   5.335   6.107   7.095  0.4200 -0.1180  0.5472
  179SOPE   H3R20395   5.407   6.076   7.017  0.8141  1.2256  0.3504
  179SOPE   H3S20396   5.257   6.028   7.103  1.1940 -1.1045 -1.1435
  179SOPE   C2420397   5.401   6.143   7.230  0.6668 -0.2865 -0.1201
  179SOPE   H4R20398   5.508   6.114   7.232  0.3060 -1.6962  1.5360
  179SOPE   H4S20399   5.396   6.254   7.229  0.0536 -0.3093 -0.3153
  179SOPE   C2520400   5.318   6.099   7.348 -0.0875 -0.7868 -0.7173
  179SOPE   H5R20401   5.210   6.120   7.335  0.3226  1.2110 -1.2354
  179SOPE   H5S20402   5.335   5.989   7.354  1.9879 -0.5290 -0.9247
  179SOPE   C2620403   5.367   6.154   7.486 -0.0571 -0.8760 -0.1966
  179SOPE   H6R20404   5.477   6.139   7.492 -0.3451 -2.3491  3.5031
  179SOPE   H6S20405   5.341   6.262   7.478 -0.8379 -0.8755  1.8967
  179SOPE   C2720406   5.310   6.084   7.608  0.3082 -0.3301 -0.1965
  179SOPE   H7R20407   5.202   6.108   7.616  0.5359  0.0438  2.4418
  179SOPE   H7S20408   5.319   5.975   7.591 -0.3282 -0.1583 -1.8658
  179SOPE   C2820409   5.380   6.125   7.735 -0.2552 -0.4225 -0.3407
  179SOPE   H8R20410   5.484   6.085   7.728  0.1836  0.9164 -2.1311
  179SOPE   H8S20411   5.387   6.235   7.747 -5.4177  0.3303 -1.9184
  179SOPE   C2920412   5.312   6.053   7.849 -0.9048 -0.2802 -0.4916
  179SOPE   H9120413   5.317   5.943   7.839 -2.4944 -0.2563 -2.0585
  179SOPE  C21020414   5.248   6.110   7.952 -0.1579  0.2938  0.1057
  179SOPE  H10120415   5.200   6.038   8.020 -1.0977  0.6902 -0.1243
  179SOPE  C21120416   5.229   6.258   7.971  0.2754 -0.6396 -0.0164
  179SOPE  H11R20417   5.275   6.320   7.891  1.8154 -0.1038  1.2212
  179SOPE  H11S20418   5.284   6.276   8.066  0.4978 -1.1790 -0.0393
  179SOPE  C21220419   5.081   6.291   7.972  0.5108  0.2622 -0.9456
  179SOPE  H12R20420   5.071   6.393   8.013 -1.3274 -0.8140  1.5422
  179SOPE  H12S20421   5.028   6.226   8.045  0.0327  2.5907  0.9076
  179SOPE  C21320422   5.012   6.289   7.830  0.2060  0.2953 -0.3538
  179SOPE  H13R20423   4.901   6.300   7.832  0.0356 -0.7818 -2.0343
  179SOPE  H13S20424   5.035   6.192   7.781  0.5284  0.0314  0.3079
  179SOPE  C21420425   5.046   6.402   7.737 -0.0422 -0.2203 -0.8831
  179SOPE  H14R20426   5.154   6.424   7.735  0.5452 -2.6955 -0.4162
  179SOPE  H14S20427   4.992   6.494   7.767  0.4791 -0.2651  0.2080
  179SOPE  C21520428   5.018   6.365   7.593 -0.2430  0.1155 -0.5184
  179SOPE  H15R20429   4.908   6.366   7.572 -0.8638  0.4217  2.3562
  179SOPE  H15S20430   5.056   6.264   7.565  0.2144  0.3083 -0.5958
  179SOPE  C21620431   5.088   6.466   7.498  0.9482 -0.3149  0.5122
  179SOPE  H16R20432   5.195   6.435   7.497  0.8664 -0.6080  0.5563
  179SOPE  H16S20433   5.086   6.568   7.541 -0.8688  2.1145 -4.5009
  179SOPE  C21720434   5.022   6.490   7.363  0.8033  0.3513 -0.0154
  179SOPE  H17R20435   4.957   6.580   7.357  0.4994  0.0983 -0.6098
  179SOPE  H17S20436   4.957   6.404   7.340  0.9205  0.1168  0.5238
  179SOPE  C21820437   5.132   6.508   7.258 -0.8980 -1.0553 -0.1605
  179SOPE  H18R20438   5.170   6.612   7.268 -1.3354 -0.9783  0.8533
  179SOPE  H18S20439   5.090   6.499   7.155 -0.5513 -4.0295 -0.1431
  179SOPE  H18T20440   5.208   6.426   7.263  0.2533  0.0510  2.7492
  179SOPE   C3320441   5.101   6.893   7.028  0.5535 -0.2215  0.2981
  179SOPE   H3X20442   5.108   6.977   6.956 -0.2966 -2.0694 -2.0729
  179SOPE   H3Y20443   5.202   6.856   7.055  0.6633  1.0992  1.8281
  179SOPE   C3420444   5.035   6.941   7.162 -0.7817 -0.0171  0.2887
  179SOPE   H4X20445   5.028   6.854   7.232  5.3948 -1.7892 -0.7478
  179SOPE   H4Y20446   4.935   6.975   7.128  0.4394  1.9523 -1.6096
  179SOPE   C3520447   5.117   7.047   7.233 -0.5543 -0.5602 -0.0310
  179SOPE   H5X20448   5.123   7.137   7.167  0.9485  1.2924  2.4403
  179SOPE   H5Y20449   5.214   7.003   7.264 -0.4785 -0.1564  0.3186
  179SOPE   C3620450   5.027   7.091   7.350  0.3305  0.5235 -0.8762
  179SOPE   H6X20451   4.922   7.111   7.320  0.0028  1.0207  0.5033
  179SOPE   H6Y20452   5.063   7.189   7.388  0.5468  0.5887 -1.2437
  179SOPE   C3720453   5.033   6.987   7.468  0.1468 -1.2434  0.1058
  179SOPE   H7X20454   5.138   6.960   7.493  0.5762  0.7123  0.6059
  179SOPE   H7Y20455   4.989   6.889   7.441 -1.3280 -0.4273 -0.5854
  179SOPE   C3820456   4.965   7.039   7.594  0.3548  0.4830 -0.2322
  179SOPE   H8X20457   4.858   7.056   7.571 -0.0316  1.7799  2.1899
  179SOPE   H8Y20458   5.025   7.132   7.606 -0.9128  1.3116 -0.1890
  179SOPE   C3920459   4.979   6.943   7.716 -0.5536 -0.2279  0.3239
  179SOPE   H9X20460   5.087   6.945   7.742 -0.6066  1.1575  0.4835
  179SOPE   H9Y20461   4.957   6.841   7.678  0.9739 -0.4177 -0.0938
  179SOPE  C31020462   4.895   6.985   7.832 -0.1934  0.4906 -0.4560
  179SOPE  H10X20463   4.794   7.012   7.796 -0.3438  1.6056  0.7444
  179SOPE  H10Y20464   4.940   7.071   7.886 -0.9278  0.0787  0.8369
  179SOPE  C31120465   4.890   6.872   7.936  0.1227 -0.1492 -0.0591
  179SOPE  H11X20466   4.988   6.876   7.989 -0.7114  1.7391  1.4803
  179SOPE  H11Y20467   4.866   6.774   7.891 -1.9490  0.5635 -0.6356
  179SOPE  C31220468   4.773   6.887   8.042 -0.5033  0.3719 -0.2251
  179SOPE  H12X20469   4.791   6.797   8.105 -2.0191  1.9768  2.7228
  179SOPE  H12Y20470   4.672   6.884   7.997 -0.6503  2.2618 -0.0860
  179SOPE  C31320471   4.784   7.003   8.143 -0.6423  0.4088  0.6018
  179SOPE  H13X20472   4.702   6.992   8.217 -0.7903 -1.7344  0.1738
  179SOPE  H13Y20473   4.769   7.096   8.084 -0.6630  0.4359  0.6493
  179SOPE  C31420474   4.914   7.007   8.231 -0.6646 -0.0562  0.2853
  179SOPE  H14X20475   5.004   7.009   8.166 -0.7286  2.2755  0.1988
  179SOPE  H14Y20476   4.921   6.922   8.303  0.9275 -1.6084 -1.6027
  179SOPE  C31520477   4.925   7.136   8.309 -0.1121  0.1651 -0.5756
  179SOPE  H15X20478   4.832   7.147   8.370 -0.0319 -2.3160  0.1249
  179SOPE  H15Y20479   4.927   7.222   8.240  3.1532  0.2589 -0.5232
  179SOPE  C31620480   5.057   7.130   8.393  0.7411  0.4989  0.1252
  179SOPE  H16X20481   5.137   7.106   8.320  1.1029  2.1745 -0.0768
  179SOPE  H16Y20482   5.060   7.040   8.457 -0.8967  1.0125  0.9787
  179SOPE  C31720483   5.089   7.261   8.477  0.1757  0.3276  0.1439
  179SOPE  H17X20484   5.078   7.350   8.412  1.3184 -0.0166 -0.5568
  179SOPE  H17Y20485   5.198   7.248   8.493  0.0228 -0.6247  0.4599
  179SOPE  C31820486   5.017   7.260   8.616 -0.4017  0.2089 -0.0867
  179SOPE  H18X20487   4.908   7.258   8.596 -0.2959  2.2019 -1.0716
  179SOPE  H18Y20488   5.046   7.348   8.678  3.1107 -1.1395  0.4514
  179SOPE  H18Z20489   5.051   7.178   8.683  1.1109  1.1431  0.3488
  180SOPE     N20490   6.253   6.571   6.380  0.6556  0.5015  0.8156
  180SOPE   HN120491   6.289   6.662   6.343 -0.5485  0.1258 -1.4585
  180SOPE   HN220492   6.258   6.500   6.305 -0.3750 -1.2946  2.3462
  180SOPE   HN320493   6.151   6.593   6.391  0.4533 -0.9422  2.1559
  180SOPE   C1220494   6.323   6.532   6.508 -0.5425 -0.2398  0.0711
  180SOPE  H12A20495   6.424   6.507   6.468  0.1423  2.1381  0.1281
  180SOPE  H12B20496   6.271   6.440   6.542 -0.7274  0.5218  1.9525
  180SOPE   C1120497   6.359   6.645   6.612 -0.1990  0.6463  0.1184
  180SOPE  H11A20498   6.421   6.599   6.692 -2.5720  2.1870  3.1044
  180SOPE  H11B20499   6.262   6.685   6.650  0.7242  0.1422  3.2819
  180SOPE     P20500   6.443   6.896   6.608  0.1859  0.2527 -0.2270
  180SOPE   O1320501   6.324   6.914   6.701  0.2188  0.7613  0.8003
  180SOPE   O1420502   6.449   6.995   6.497 -0.3728  0.3084 -0.1407
  180SOPE   O1220503   6.431   6.750   6.545 -0.3064  0.8308  0.7895
  180SOPE   O1120504   6.581   6.913   6.687  0.3104 -0.4514 -0.3457
  180SOPE    C120505   6.678   6.803   6.673 -0.3729  0.2986 -0.5400
  180SOPE    HA20506   6.765   6.844   6.617 -0.6811 -0.0919 -1.3233
  180SOPE    HB20507   6.641   6.706   6.632 -0.3188  0.3336 -0.6709
  180SOPE    C220508   6.740   6.788   6.813  0.0457  0.9509 -1.0606
  180SOPE    HS20509   6.831   6.724   6.814 -0.7346 -0.1950 -1.0928
  180SOPE   O2120510   6.645   6.730   6.909  0.1276 -0.4338  0.2549
  180SOPE   C2120511   6.613   6.609   6.873  1.1601  1.1453 -0.0468
  180SOPE   O2220512   6.669   6.539   6.788  0.4582  0.1399  0.2503
  180SOPE   C2220513   6.490   6.561   6.952 -0.3267 -0.6547  0.4279
  180SOPE   H2R20514   6.443   6.484   6.888 -2.0797 -1.0904  2.1425
  180SOPE   H2S20515   6.424   6.648   6.969 -0.9392 -1.3108  1.6218
  180SOPE    C320516   6.774   6.924   6.885 -0.1674  0.8679  0.0663
  180SOPE    HX20517   6.674   6.972   6.888 -0.3735  0.6761 -2.1402
  180SOPE    HY20518   6.850   6.976   6.823  1.0872 -1.0810 -0.1360
  180SOPE   O3120519   6.832   6.899   7.014 -0.3788  0.2003  0.9794
  180SOPE   C3120520   6.960   6.941   7.034 -0.4726  0.0541 -0.1101
  180SOPE   O3220521   7.037   6.997   6.954  0.4266 -0.2120 -0.0570
  180SOPE   C3220522   7.000   6.911   7.185 -0.5017 -1.2336  0.5704
  180SOPE   H2X20523   7.027   6.806   7.206  2.0954 -0.5545  0.9685
  180SOPE   H2Y20524   6.903   6.931   7.237 -2.5239 -1.5689 -2.7600
  180SOPE   C2320525   6.528   6.492   7.086  1.0376 -0.1870 -0.0388
  180SOPE   H3R20526   6.595   6.405   7.069  0.1803 -0.7801 -0.4849
  180SOPE   H3S20527   6.430   6.451   7.120  1.5072  1.3955  3.7274
  180SOPE   C2420528   6.571   6.580   7.199 -0.4039  0.6328 -0.2586
  180SOPE   H4R20529   6.577   6.530   7.299  1.8602  3.1792  1.0203
  180SOPE   H4S20530   6.678   6.583   7.169  0.7608 -1.7487  2.9444
  180SOPE   C2520531   6.517   6.724   7.202  0.7967 -0.1671 -0.6087
  180SOPE   H5R20532   6.525   6.774   7.103 -1.5142  0.7578 -0.3834
  180SOPE   H5S20533   6.412   6.722   7.238  1.8658  0.4658  2.9366
  180SOPE   C2620534   6.605   6.822   7.290  0.5869 -0.3103 -0.0926
  180SOPE   H6R20535   6.690   6.851   7.226  1.4435  0.4778  1.3456
  180SOPE   H6S20536   6.530   6.903   7.304 -0.6258 -0.9514 -2.4289
  180SOPE   C2720537   6.648   6.783   7.428  0.0405 -0.1154  1.1420
  180SOPE   H7R20538   6.711   6.693   7.415 -0.3408 -0.0118 -2.0805
  180SOPE   H7S20539   6.712   6.859   7.477  1.3601  0.6470 -1.5790
  180SOPE   C2820540   6.528   6.753   7.524  0.2997  0.4346  0.5696
  180SOPE   H8R20541   6.483   6.850   7.555 -0.5645 -0.0097  0.7518
  180SOPE   H8S20542   6.459   6.704   7.452 -0.0743  2.1692 -0.3110
  180SOPE   C2920543   6.556   6.677   7.645 -0.0194 -0.5380  0.2770
  180SOPE   H9120544   6.660   6.682   7.680 -0.3870  1.4099  1.2000
  180SOPE  C21020545   6.466   6.619   7.729 -0.0988  0.2875 -0.5683
  180SOPE  H10120546   6.507   6.548   7.802 -0.8750 -0.0788 -0.4795
  180SOPE  C21120547   6.315   6.620   7.710 -0.0509 -0.4315 -0.0484
  180SOPE  H11R20548   6.263   6.555   7.784 -0.1333 -1.3471 -0.8766
  180SOPE  H11S20549   6.287   6.576   7.611  1.5549 -0.5315 -0.4908
  180SOPE  C21220550   6.249   6.755   7.723  0.1163  0.5524  0.7563
  180SOPE  H12R20551   6.140   6.736   7.732  0.2136 -0.8753 -0.6141
  180SOPE  H12S20552   6.256   6.804   7.624  0.5066  1.2095  1.0995
  180SOPE  C21320553   6.301   6.836   7.840  0.7271  0.1915 -0.2594
  180SOPE  H13R20554   6.249   6.934   7.846  0.5158 -0.0001  2.5361
  180SOPE  H13S20555   6.401   6.873   7.808  0.9110 -1.1772 -1.3486
  180SOPE  C21420556   6.313   6.765   7.977 -0.3787  1.3077  0.0603
  180SOPE  H14R20557   6.407   6.706   7.969 -0.8477  0.7660 -2.9219
  180SOPE  H14S20558   6.223   6.705   8.001  0.2642  0.1937 -0.1923
  180SOPE  C21520559   6.335   6.870   8.086  0.1046  0.0014  0.2670
  180SOPE  H15R20560   6.248   6.936   8.065 -1.0468 -1.3144  0.7682
  180SOPE  H15S20561   6.423   6.936   8.068 -0.9158  1.0247 -1.1934
  180SOPE  C21620562   6.348   6.823   8.232  0.4438  0.1880  0.6978
  180SOPE  H16R20563   6.451   6.796   8.263  0.5345 -1.0269 -0.5762
  180SOPE  H16S20564   6.289   6.729   8.238  1.9750 -0.9892 -1.3291
  180SOPE  C21720565   6.310   6.929   8.337 -0.8643  0.1192  0.0857
  180SOPE  H17R20566   6.214   6.982   8.324  1.3956  4.5882 -0.3192
  180SOPE  H17S20567   6.389   7.007   8.337 -0.6811 -0.0390  1.8668
  180SOPE  C21820568   6.322   6.870   8.485 -0.1628  0.8460 -0.2348
  180SOPE  H18R20569   6.243   6.791   8.491  0.9434 -0.1741  1.9110
  180SOPE  H18S20570   6.317   6.957   8.553  2.0037 -0.3301  1.5811
  180SOPE  H18T20571   6.422   6.826   8.504 -0.2943  0.9620  0.7479
  180SOPE   C3320572   7.106   7.015   7.234  0.5800  0.1393 -0.1800
  180SOPE   H3X20573   7.058   7.115   7.231 -0.7679 -0.3528  2.5235
  180SOPE   H3Y20574   7.202   7.004   7.179  1.5495 -0.9462  1.6224
  180SOPE   C3420575   7.151   6.982   7.376  0.8356  0.0130 -0.2461
  180SOPE   H4X20576   7.245   7.042   7.387  0.1329  1.3948 -1.4357
  180SOPE   H4Y20577   7.178   6.876   7.395  1.7061  0.4662  1.2449
  180SOPE   C3520578   7.062   7.037   7.490  0.2199 -0.2800  0.3863
  180SOPE   H5X20579   6.963   6.989   7.478  1.1852 -2.4938  0.7753
  180SOPE   H5Y20580   7.051   7.147   7.480  1.1959  0.2069  3.4244
  180SOPE   C3620581   7.117   6.998   7.620 -0.3361 -0.1122  0.3390
  180SOPE   H6X20582   7.215   7.049   7.628  1.1048 -2.2179 -2.3128
  180SOPE   H6Y20583   7.134   6.889   7.630  2.8541  0.2003 -0.6077
  180SOPE   C3720584   7.031   7.046   7.733  0.4278  0.1256 -0.0489
  180SOPE   H7X20585   7.034   7.157   7.741 -0.6990  0.0389  3.4787
  180SOPE   H7Y20586   7.081   7.012   7.827  0.5899  3.0715  1.0432
  180SOPE   C3820587   6.883   6.995   7.732 -0.3289 -0.1916 -0.3051
  180SOPE   H8X20588   6.887   6.889   7.701 -1.3879 -0.5913  0.8578
  180SOPE   H8Y20589   6.822   7.049   7.656 -0.8614 -0.4848 -0.0873
  180SOPE   C3920590   6.813   7.006   7.860  0.1596 -0.1754 -0.5444
  180SOPE   H9X20591   6.707   6.993   7.829  0.4811 -1.0053 -1.3743
  180SOPE   H9Y20592   6.820   7.104   7.910  2.5746 -2.1265  3.4561
  180SOPE  C31020593   6.851   6.891   7.964 -0.4803  0.2794  0.3882
  180SOPE  H10X20594   6.961   6.877   7.963 -0.4871 -0.0341 -2.0412
  180SOPE  H10Y20595   6.810   6.802   7.912 -0.8728  1.4607 -1.4466
  180SOPE  C31120596   6.809   6.900   8.109  0.1222 -0.9443 -0.5009
  180SOPE  H11X20597   6.701   6.927   8.116  0.5259  0.6667 -0.1220
  180SOPE  H11Y20598   6.868   6.974   8.167  1.5707 -1.5476 -1.1679
  180SOPE  C31220599   6.832   6.767   8.182 -0.2696 -0.3373 -0.3627
  180SOPE  H12X20600   6.942   6.749   8.181 -0.2076 -0.4653  1.9786
  180SOPE  H12Y20601   6.780   6.687   8.126 -1.3156  1.8503 -2.7289
  180SOPE  C31320602   6.798   6.766   8.334 -0.5582 -0.7473 -0.1427
  180SOPE  H13X20603   6.692   6.796   8.348  0.1631  1.2888  1.4121
  180SOPE  H13Y20604   6.863   6.834   8.393  1.2142 -2.0402 -0.5021
  180SOPE  C31420605   6.837   6.628   8.397  0.1927 -0.0115 -0.1642
  180SOPE  H14X20606   6.947   6.611   8.389  0.7009  0.6168  3.4793
  180SOPE  H14Y20607   6.777   6.553   8.342 -0.7357  1.7906 -1.7180
  180SOPE  C31520608   6.813   6.604   8.550  0.1722  0.6969 -0.1925
  180SOPE  H15X20609   6.886   6.653   8.618  1.4566 -2.0789  0.5809
  180SOPE  H15Y20610   6.842   6.499   8.571  3.1018  1.5325  0.3968
  180SOPE  C31620611   6.671   6.638   8.596 -0.5682  0.3355  0.0821
  180SOPE  H16X20612   6.597   6.569   8.551 -2.0493  0.6266  1.9080
  180SOPE  H16Y20613   6.639   6.741   8.570  0.9069  0.6318 -0.6340
  180SOPE  C31720614   6.655   6.623   8.759  0.4675  0.4752 -0.1357
  180SOPE  H17X20615   6.740   6.675   8.807 -0.4404 -0.4727  2.7774
  180SOPE  H17Y20616   6.648   6.518   8.796  0.0115  1.3764  2.5788
  180SOPE  C31820617   6.525   6.692   8.825 -0.1892 -0.5777  0.4122
  180SOPE  H18X20618   6.438   6.628   8.796 -1.0825  1.5621 -1.9809
  180SOPE  H18Y20619   6.524   6.795   8.784  2.1930 -0.1574  1.2480
  180SOPE  H18Z20620   6.541   6.696   8.935  0.3115  0.7947  0.2993
  181SOPE     N20621   6.398   4.100   6.166  0.1272 -0.5400  0.1265
  181SOPE   HN120622   6.477   4.145   6.115 -0.8058 -1.3037 -2.1178
  181SOPE   HN220623   6.435   4.003   6.160  0.2393 -0.4066 -2.1084
  181SOPE   HN320624   6.308   4.110   6.116 -0.1680  0.5678  0.8422
  181SOPE   C1220625   6.399   4.147   6.308 -0.1379 -0.5844  0.3178
  181SOPE  H12A20626   6.378   4.054   6.365  0.6605 -2.5881 -2.4641
  181SOPE  H12B20627   6.318   4.222   6.320 -0.8463 -1.0303 -1.4537
  181SOPE   C1120628   6.535   4.211   6.339 -0.1167  0.2064 -0.8963
  181SOPE  H11A20629   6.616   4.136   6.347 -0.8360 -0.3947  5.0894
  181SOPE  H11B20630   6.539   4.248   6.444  4.2876 -1.8534 -0.1160
  181SOPE     P20631   6.545   4.456   6.240  0.1947  0.0726  0.5246
  181SOPE   O1320632   6.404   4.464   6.184  0.2265 -0.2535 -0.3735
  181SOPE   O1420633   6.654   4.530   6.167 -0.7557  0.1781  0.2786
  181SOPE   O1220634   6.576   4.307   6.242 -0.1911 -0.1153  0.0670
  181SOPE   O1120635   6.552   4.493   6.387  0.3009 -0.0985  0.0145
  181SOPE    C120636   6.502   4.619   6.436 -0.1354 -0.2657 -0.4065
  181SOPE    HA20637   6.454   4.681   6.357  0.3380  1.5436  0.6669
  181SOPE    HB20638   6.590   4.682   6.458 -0.2888 -0.5999  1.3044
  181SOPE    C220639   6.403   4.607   6.551  0.1058  0.1454  0.3172
  181SOPE    HS20640   6.376   4.706   6.592 -1.4321 -1.2355  2.9251
  181SOPE   O2120641   6.453   4.521   6.654 -0.0575 -0.2407  0.0874
  181SOPE   C2120642   6.552   4.579   6.723 -0.2143 -0.2605  1.0495
  181SOPE   O2220643   6.610   4.689   6.698 -0.0218  0.6908 -0.9534
  181SOPE   C2220644   6.572   4.489   6.837  0.4136  0.1978  0.0821
  181SOPE   H2R20645   6.579   4.386   6.797 -1.8484 -0.0787  0.3138
  181SOPE   H2S20646   6.473   4.494   6.887  0.9070 -2.2160  1.4282
  181SOPE    C320647   6.272   4.528   6.514 -0.7860 -0.6440  0.2223
  181SOPE    HX20648   6.289   4.419   6.499 -2.3859 -1.2337  2.2157
  181SOPE    HY20649   6.247   4.559   6.410  0.3181  1.4661  0.5336
  181SOPE   O3120650   6.163   4.544   6.605 -0.2100 -0.2001  0.2705
  181SOPE   C3120651   6.112   4.664   6.605 -0.5063 -0.5732  0.0475
  181SOPE   O3220652   6.137   4.757   6.531 -0.6411  0.2764 -0.2323
  181SOPE   C3220653   6.008   4.680   6.719  0.1078  0.3560 -0.2500
  181SOPE   H2X20654   5.936   4.597   6.734 -1.7268  1.9251  0.1596
  181SOPE   H2Y20655   5.945   4.766   6.686  0.3136  0.3569 -0.6488
  181SOPE   C2320656   6.689   4.521   6.929  0.4051  0.3622 -0.2577
  181SOPE   H3R20657   6.769   4.549   6.858 -0.4058 -1.2201 -1.8747
  181SOPE   H3S20658   6.731   4.431   6.978 -1.8511 -1.9199 -2.2254
  181SOPE   C2420659   6.662   4.634   7.028  0.2799 -0.3270  0.1113
  181SOPE   H4R20660   6.765   4.644   7.069 -0.1073 -0.4295  1.1449
  181SOPE   H4S20661   6.628   4.728   6.980 -2.6275 -2.3249 -2.1145
  181SOPE   C2520662   6.576   4.600   7.142 -0.4422  0.1177 -0.1133
  181SOPE   H5R20663   6.474   4.592   7.098 -0.2765 -1.6113 -0.2552
  181SOPE   H5S20664   6.589   4.502   7.192 -0.0732  0.9977  1.5879
  181SOPE   C2620665   6.578   4.698   7.259 -0.2328  0.6166  0.4631
  181SOPE   H6R20666   6.685   4.706   7.286  0.1169  0.9330 -0.9236
  181SOPE   H6S20667   6.537   4.796   7.226  2.0190  1.5763  0.2968
  181SOPE   C2720668   6.504   4.644   7.373  0.0962  0.9651 -0.1014
  181SOPE   H7R20669   6.394   4.653   7.359 -0.0036  0.6102  0.4090
  181SOPE   H7S20670   6.526   4.537   7.393 -0.3549  0.6732 -1.1246
  181SOPE   C2820671   6.522   4.724   7.505  0.3259  0.1929 -0.3423
  181SOPE   H8R20672   6.458   4.669   7.577 -0.2379  1.6007  0.2731
  181SOPE   H8S20673   6.632   4.714   7.520  0.3342 -0.4415 -0.8179
  181SOPE   C2920674   6.475   4.871   7.507 -0.4869  0.1824  0.8436
  181SOPE   H9120675   6.486   4.910   7.405 -0.3230 -1.7690  0.0803
  181SOPE  C21020676   6.440   4.946   7.613 -0.6001  0.3464  0.2878
  181SOPE  H10120677   6.402   5.046   7.589 -1.7974  0.4556  2.4065
  181SOPE  C21120678   6.431   4.895   7.751  0.0041  0.0855  0.4801
  181SOPE  H11R20679   6.430   4.785   7.744  2.1003  0.0882 -0.7265
  181SOPE  H11S20680   6.337   4.937   7.792 -0.4328  0.9034 -1.2309
  181SOPE  C21220681   6.567   4.912   7.833  0.0290  0.2770  0.4350
  181SOPE  H12R20682   6.593   5.020   7.836 -1.4968  0.7049 -0.2357
  181SOPE  H12S20683   6.649   4.868   7.773 -1.3694  0.5099 -1.8075
  181SOPE  C21320684   6.552   4.868   7.977  0.5817  0.1126  0.8375
  181SOPE  H13R20685   6.541   4.758   7.986  1.7607 -0.1347 -0.3242
  181SOPE  H13S20686   6.461   4.916   8.019  0.9152 -0.7618  2.6141
  181SOPE  C21420687   6.673   4.895   8.073 -0.0210 -0.9399  0.0637
  181SOPE  H14R20688   6.682   5.005   8.083  0.2507 -1.0067  0.6053
  181SOPE  H14S20689   6.768   4.868   8.024 -0.9919  1.6753 -3.6874
  181SOPE  C21520690   6.650   4.838   8.220 -0.2236  0.0129  0.2038
  181SOPE  H15R20691   6.648   4.727   8.210 -0.5575 -0.3484  3.2597
  181SOPE  H15S20692   6.556   4.878   8.264 -0.0267  0.2639  0.4002
  181SOPE  C21620693   6.770   4.858   8.321  0.6167 -0.1241  0.2356
  181SOPE  H16R20694   6.766   4.796   8.413  0.7944 -0.9966 -0.3280
  181SOPE  H16S20695   6.761   4.966   8.344 -1.6754  0.2564 -1.9162
  181SOPE  C21720696   6.920   4.833   8.290  0.4494  0.2635 -0.4832
  181SOPE  H17R20697   6.979   4.873   8.376 -0.3869 -1.2796  0.8725
  181SOPE  H17S20698   6.947   4.887   8.197 -1.4608  1.9704 -0.1186
  181SOPE  C21820699   6.957   4.688   8.283 -0.3209  0.1106  0.5129
  181SOPE  H18R20700   6.896   4.631   8.210 -1.6740  2.2878 -0.1563
  181SOPE  H18S20701   6.962   4.626   8.375 -0.9003 -2.9392 -1.3609
  181SOPE  H18T20702   7.062   4.675   8.249 -0.1110  1.3087  0.6695
  181SOPE   C3320703   6.076   4.708   6.847  0.3344 -0.2416  0.2209
  181SOPE   H3X20704   6.157   4.782   6.832  0.3025 -0.4741 -1.1493
  181SOPE   H3Y20705   6.121   4.611   6.880  1.1264  0.1636  0.3408
  181SOPE   C3420706   5.990   4.759   6.964 -0.2577 -0.2163 -0.6395
  181SOPE   H4X20707   5.920   4.677   6.992  0.0201  0.2197  1.4692
  181SOPE   H4Y20708   5.948   4.857   6.934  2.7353  1.1915 -0.6713
  181SOPE   C3520709   6.074   4.795   7.091  0.2648  0.0713  0.1084
  181SOPE   H5X20710   6.150   4.873   7.068 -0.7803  1.3796  0.9046
  181SOPE   H5Y20711   6.137   4.706   7.111 -0.7953 -0.3538  1.7187
  181SOPE   C3620712   5.991   4.835   7.217 -0.0554 -0.4356  0.0179
  181SOPE   H6X20713   5.898   4.774   7.226  1.5545 -3.2351 -0.8254
  181SOPE   H6Y20714   5.963   4.942   7.209  1.8094  0.0270 -1.1548
  181SOPE   C3720715   6.071   4.836   7.342 -0.2232 -0.3787 -0.0205
  181SOPE   H7X20716   6.146   4.917   7.345  0.9111 -1.3888 -0.4296
  181SOPE   H7Y20717   6.132   4.743   7.350 -0.2562 -0.2820  1.5184
  181SOPE   C3820718   5.994   4.855   7.469 -0.1054  0.3545  0.5165
  181SOPE   H8X20719   5.909   4.783   7.466  0.6299 -0.4797 -1.5874
  181SOPE   H8Y20720   5.959   4.960   7.478  3.4552  1.8225 -0.8511
  181SOPE   C3920721   6.068   4.810   7.591  0.6555  0.2473  0.0469
  181SOPE   H9X20722   6.163   4.867   7.597  2.5284 -2.7009  1.0466
  181SOPE   H9Y20723   6.111   4.707   7.590  3.0202  1.1499 -2.7204
  181SOPE  C31020724   5.989   4.839   7.722 -0.1868  0.0239 -0.1030
  181SOPE  H10X20725   5.903   4.769   7.725  0.7281 -1.3080 -2.3204
  181SOPE  H10Y20726   5.948   4.942   7.718  2.4765  1.1077 -1.7069
  181SOPE  C31120727   6.063   4.826   7.855 -0.0877 -0.2050  0.1090
  181SOPE  H11X20728   6.143   4.902   7.870  0.0370 -0.5828  1.4301
  181SOPE  H11Y20729   6.102   4.724   7.876  1.8455  1.0232  3.1101
  181SOPE  C31220730   5.967   4.871   7.966  0.1970 -0.2138  0.5535
  181SOPE  H12X20731   5.878   4.805   7.967  0.3348 -0.4043  1.9328
  181SOPE  H12Y20732   5.927   4.962   7.917  0.5594 -1.7755 -2.9932
  181SOPE  C31320733   6.024   4.895   8.104  0.3774  0.0169 -0.5728
  181SOPE  H13X20734   6.107   4.825   8.126 -0.0002  0.2435  1.8874
  181SOPE  H13Y20735   5.945   4.867   8.177 -0.5501 -0.5326 -1.7570
  181SOPE  C31420736   6.075   5.036   8.144  0.0733  0.0771 -0.0991
  181SOPE  H14X20737   6.114   5.040   8.248  1.4837  2.6125 -0.6531
  181SOPE  H14Y20738   5.982   5.098   8.150 -0.7853 -1.2742  4.7969
  181SOPE  C31520739   6.176   5.087   8.050 -0.2327 -0.1274  0.5576
  181SOPE  H15X20740   6.108   5.103   7.963 -1.0100  1.5887  1.4150
  181SOPE  H15Y20741   6.254   5.012   8.026 -1.6477 -1.2355 -0.7945
  181SOPE  C31620742   6.232   5.217   8.101  0.5383 -0.4788 -0.0954
  181SOPE  H16X20743   6.336   5.199   8.138  0.4102  0.3076  0.7012
  181SOPE  H16Y20744   6.168   5.253   8.184 -0.7780  1.5743 -1.9299
  181SOPE  C31720745   6.243   5.329   8.003  0.5410  0.3455 -0.3117
  181SOPE  H17X20746   6.144   5.355   7.961  0.7851  0.4727 -0.8141
  181SOPE  H17Y20747   6.291   5.290   7.911 -1.7001 -2.7781 -0.3083
  181SOPE  C31820748   6.287   5.465   8.049 -0.5376 -0.2099  0.2353
  181SOPE  H18X20749   6.398   5.469   8.059 -0.5096 -1.6381  0.7418
  181SOPE  H18Y20750   6.249   5.498   8.148 -0.4933 -3.6339  1.5604
  181SOPE  H18Z20751   6.270   5.545   7.974  1.2030  0.8184  0.8732
  182SOPE     N20752   6.740   5.957   6.449  0.0633 -0.1631  0.5176
  182SOPE   HN120753   6.747   5.990   6.548 -0.0206  0.6089  0.2730
  182SOPE   HN220754   6.666   5.885   6.450 -0.5784  0.4165 -1.1755
  182SOPE   HN320755   6.825   5.906   6.418  0.2373  0.1624  0.4464
  182SOPE   C1220756   6.701   6.073   6.358 -0.3194  0.9759  0.4050
  182SOPE  H12A20757   6.629   6.130   6.420 -1.5153  1.8916 -1.7193
  182SOPE  H12B20758   6.661   6.031   6.263  1.7753  0.7585 -0.4334
  182SOPE   C1120759   6.834   6.145   6.330 -0.2943 -0.3647  0.1006
  182SOPE  H11A20760   6.871   6.188   6.426  0.8930 -3.3024  1.0638
  182SOPE  H11B20761   6.811   6.234   6.267 -1.0148 -0.3666  0.3438
  182SOPE     P20762   7.090   6.088   6.265 -0.0102  0.2584 -0.2526
  182SOPE   O1320763   7.113   6.211   6.195  0.1059  0.1542 -0.0966
  182SOPE   O1420764   7.153   5.962   6.214  0.4833 -0.5441 -0.0469
  182SOPE   O1220765   6.934   6.059   6.272 -0.3724 -0.5685 -0.2408
  182SOPE   O1120766   7.135   6.100   6.417  0.0709  0.0093  0.3267
  182SOPE    C120767   7.117   5.991   6.503 -0.1970  0.2144 -0.7381
  182SOPE    HA20768   7.180   5.907   6.466  0.1055  0.4038 -0.6549
  182SOPE    HB20769   7.009   5.964   6.501 -0.1021 -0.2579 -0.1354
  182SOPE    C220770   7.151   6.022   6.656  0.3103  0.6257  0.6511
  182SOPE    HS20771   7.061   6.079   6.689 -0.7951  0.8692 -2.3829
  182SOPE   O2120772   7.276   6.096   6.665 -0.4710 -0.5746 -0.0238
  182SOPE   C2120773   7.291   6.145   6.790  0.3271 -1.0944 -0.1367
  182SOPE   O2220774   7.197   6.176   6.861 -0.6295  0.3185 -0.3179
  182SOPE   C2220775   7.442   6.169   6.811  0.0727  0.5053 -1.2388
  182SOPE   H2R20776   7.478   6.228   6.724  0.5418  0.9500 -0.7395
  182SOPE   H2S20777   7.498   6.073   6.802  0.1529  0.2811  1.1468
  182SOPE    C320778   7.157   5.887   6.742  0.2606  0.2598  0.0422
  182SOPE    HX20779   7.255   5.845   6.711 -0.9405 -1.2488 -1.8377
  182SOPE    HY20780   7.079   5.819   6.704  0.5702 -1.7124  2.6313
  182SOPE   O3120781   7.163   5.899   6.885 -0.1571 -0.3524 -0.5128
  182SOPE   C3120782   7.042   5.929   6.944  0.3573 -0.0024 -0.2749
  182SOPE   O3220783   6.939   5.961   6.883 -0.3982 -0.9559 -0.1369
  182SOPE   C3220784   7.049   5.909   7.090 -0.0588 -0.5613 -0.1745
  182SOPE   H2X20785   7.122   5.982   7.132  0.7212 -0.5993 -1.4205
  182SOPE   H2Y20786   7.096   5.812   7.116  2.4158  0.5021 -0.4093
  182SOPE   C2320787   7.482   6.257   6.930  0.3873  0.1051 -0.0211
  182SOPE   H3R20788   7.439   6.360   6.936 -0.1390 -0.1789  1.9471
  182SOPE   H3S20789   7.589   6.284   6.915  0.7871 -2.0608 -1.5125
  182SOPE   C2420790   7.468   6.184   7.073 -0.0744  0.1533 -0.0326
  182SOPE   H4R20791   7.359   6.167   7.086 -0.0866 -0.7185 -1.0749
  182SOPE   H4S20792   7.517   6.084   7.068  0.5452  0.4354  0.2724
  182SOPE   C2520793   7.522   6.273   7.186 -0.3964  0.6054 -0.5147
  182SOPE   H5R20794   7.632   6.278   7.172 -0.4831 -0.5752 -1.8337
  182SOPE   H5S20795   7.493   6.380   7.174 -0.3318  0.6017 -0.7001
  182SOPE   C2620796   7.486   6.215   7.324 -1.0301  0.0643  1.2140
  182SOPE   H6R20797   7.376   6.217   7.332 -0.9488  0.3407  2.5144
  182SOPE   H6S20798   7.524   6.111   7.335  0.6956  0.2112 -2.0400
  182SOPE   C2720799   7.537   6.299   7.444 -0.1685 -0.6429  0.4284
  182SOPE   H7R20800   7.648   6.294   7.450 -0.1756 -1.2109  0.1295
  182SOPE   H7S20801   7.512   6.407   7.433  0.3892 -0.3944  1.5026
  182SOPE   C2820802   7.489   6.243   7.581 -0.4841 -0.8836  0.2403
  182SOPE   H8R20803   7.521   6.138   7.598 -0.6413 -1.0701 -0.5742
  182SOPE   H8S20804   7.558   6.292   7.654 -0.7427 -1.1113  0.6439
  182SOPE   C2920805   7.348   6.261   7.623  0.4349  0.1643  0.4504
  182SOPE   H9120806   7.321   6.367   7.626  0.6344  0.2420 -0.3672
  182SOPE  C21020807   7.255   6.165   7.649 -0.1641 -0.6250  0.2076
  182SOPE  H10120808   7.156   6.198   7.680  0.1736  1.4065 -0.6958
  182SOPE  C21120809   7.275   6.010   7.646 -0.2227 -0.4800  0.0321
  182SOPE  H11R20810   7.379   5.984   7.676 -0.6207 -1.1682  0.8309
  182SOPE  H11S20811   7.284   5.981   7.539  0.5551  0.9184 -0.2997
  182SOPE  C21220812   7.159   5.932   7.695 -0.2988 -0.0208 -0.2128
  182SOPE  H12R20813   7.178   5.825   7.673 -0.9559 -0.7558  2.4243
  182SOPE  H12S20814   7.067   5.950   7.635 -1.3593  2.0794  1.8911
  182SOPE  C21320815   7.127   5.930   7.844  0.2499 -1.0282 -0.0527
  182SOPE  H13R20816   7.122   6.037   7.872  0.2837 -1.1074  0.2581
  182SOPE  H13S20817   7.209   5.878   7.897  1.4223 -0.5162 -1.2789
  182SOPE  C21420818   6.997   5.861   7.871  0.2301 -0.2722 -0.0073
  182SOPE  H14R20819   7.004   5.752   7.851  2.3287 -0.0050 -0.9910
  182SOPE  H14S20820   6.915   5.905   7.812 -1.8909  0.0606  2.9561
  182SOPE  C21520821   6.980   5.862   8.028  0.3357 -0.0962 -0.0917
  182SOPE  H15R20822   6.969   5.967   8.062  1.5931  0.3723 -1.0309
  182SOPE  H15S20823   7.075   5.841   8.082  0.7717  0.3928 -0.6592
  182SOPE  C21620824   6.863   5.778   8.073 -0.1572 -0.0520  0.1720
  182SOPE  H16R20825   6.890   5.673   8.045  2.5373  1.3429 -3.2184
  182SOPE  H16S20826   6.768   5.798   8.020 -0.1120 -0.5752 -0.1149
  182SOPE  C21720827   6.852   5.798   8.224  0.6888  0.0709  0.1233
  182SOPE  H17R20828   6.758   5.743   8.243  0.4957  0.5751  0.6713
  182SOPE  H17S20829   6.841   5.904   8.258 -1.4315 -0.1562  0.2942
  182SOPE  C21820830   6.965   5.738   8.305 -0.1135 -0.0297  0.6714
  182SOPE  H18R20831   6.952   5.749   8.414  0.9341 -2.3693  1.0958
  182SOPE  H18S20832   7.064   5.786   8.285 -0.8255  1.8296  1.4140
  182SOPE  H18T20833   6.978   5.632   8.275  1.5021  0.4012 -0.3191
  182SOPE   C3320834   6.909   5.936   7.147 -0.1849  0.2118 -0.3320
  182SOPE   H3X20835   6.845   5.852   7.114 -1.3632  1.2594 -0.8262
  182SOPE   H3Y20836   6.878   6.035   7.105  1.9643  1.2668  0.4547
  182SOPE   C3420837   6.914   5.920   7.301  0.7126 -0.4262  0.3083
  182SOPE   H4X20838   6.987   5.990   7.346  0.7285 -1.0704  1.3410
  182SOPE   H4Y20839   6.958   5.820   7.321  1.4200 -0.6914 -2.2076
  182SOPE   C3520840   6.773   5.940   7.379  0.3095 -0.6881 -0.1195
  182SOPE   H5X20841   6.781   5.904   7.484 -0.9439  1.2835  0.7066
  182SOPE   H5Y20842   6.693   5.878   7.335  0.6898 -1.4742  0.2708
  182SOPE   C3620843   6.741   6.098   7.384  0.4152  0.3449  1.3126
  182SOPE   H6X20844   6.770   6.138   7.284 -0.4010  2.8244  1.9798
  182SOPE   H6Y20845   6.806   6.145   7.461  1.3196 -0.1779  0.8761
  182SOPE   C3720846   6.587   6.120   7.390 -0.3467 -0.0346  0.6888
  182SOPE   H7X20847   6.542   6.064   7.474 -1.7167 -1.1147 -0.7119
  182SOPE   H7Y20848   6.532   6.094   7.297  1.2643  1.8545 -0.8972
  182SOPE   C3820849   6.542   6.266   7.431 -0.0998  0.5234  0.6597
  182SOPE   H8X20850   6.575   6.322   7.341 -1.3263  2.3852  1.3193
  182SOPE   H8Y20851   6.591   6.303   7.524 -0.2170  1.2636  0.4335
  182SOPE   C3920852   6.393   6.288   7.448 -0.0386 -0.4729 -0.0908
  182SOPE   H9X20853   6.335   6.262   7.357 -2.7861 -0.5262  1.5619
  182SOPE   H9Y20854   6.384   6.398   7.463 -0.8751 -0.5332 -0.1216
  182SOPE  C31020855   6.324   6.210   7.562 -0.5188 -0.7420  0.0914
  182SOPE  H10X20856   6.332   6.100   7.546 -3.0273 -1.1029  0.8580
  182SOPE  H10Y20857   6.215   6.226   7.545 -0.1982  0.0158 -1.4686
  182SOPE  C31120858   6.360   6.247   7.703 -0.7348  0.5961 -0.3425
  182SOPE  H11X20859   6.391   6.353   7.693 -1.2574  0.8054  0.1525
  182SOPE  H11Y20860   6.436   6.178   7.745 -0.4158  0.6355 -0.8491
  182SOPE  C31220861   6.236   6.251   7.800 -0.7731 -0.3526  0.6145
  182SOPE  H12X20862   6.192   6.149   7.810  0.1843 -0.8427 -0.0250
  182SOPE  H12Y20863   6.160   6.326   7.767  1.1977  1.5010  0.0985
  182SOPE  C31320864   6.297   6.295   7.928 -0.1481 -0.0607 -0.5451
  182SOPE  H13X20865   6.341   6.397   7.930  1.0401 -0.5416 -1.0326
  182SOPE  H13Y20866   6.373   6.223   7.966  1.4252  2.3073  1.1134
  182SOPE  C31420867   6.180   6.289   8.028  0.4610 -0.3945 -0.0592
  182SOPE  H14X20868   6.128   6.191   8.021 -1.8032  0.7793 -0.5746
  182SOPE  H14Y20869   6.101   6.364   8.004 -1.1519 -1.1015  2.5429
  182SOPE  C31520870   6.216   6.320   8.178  0.4337  0.5727  0.4749
  182SOPE  H15X20871   6.274   6.233   8.218 -2.2203 -1.0586  0.9833
  182SOPE  H15Y20872   6.119   6.304   8.230  1.0371  1.5593  1.9596
  182SOPE  C31620873   6.263   6.460   8.209  0.9921 -0.1159 -0.1560
  182SOPE  H16X20874   6.190   6.538   8.180 -0.0215 -0.5740  1.0597
  182SOPE  H16Y20875   6.353   6.481   8.148  0.3240 -0.4465 -1.2870
  182SOPE  C31720876   6.298   6.466   8.354 -0.0390 -0.3474 -0.4598
  182SOPE  H17X20877   6.214   6.441   8.422 -0.6389 -1.5109 -1.6073
  182SOPE  H17Y20878   6.325   6.571   8.377 -0.4583 -0.4046  0.3488
  182SOPE  C31820879   6.421   6.382   8.399 -0.1003  0.0911 -0.0900
  182SOPE  H18X20880   6.410   6.276   8.369  0.6676  0.0223 -0.1553
  182SOPE  H18Y20881   6.428   6.391   8.510 -1.3211 -0.1478  0.0154
  182SOPE  H18Z20882   6.515   6.424   8.355 -1.2889  1.3136 -1.5751
  183SOPE     N20883   2.411   3.614   6.571  0.1776 -1.2143 -0.4345
  183SOPE   HN120884   2.320   3.592   6.617  0.8981 -0.4400  1.4720
  183SOPE   HN220885   2.443   3.529   6.519  0.2950  0.6283 -3.6039
  183SOPE   HN320886   2.480   3.637   6.646 -0.6878  1.5023 -0.3728
  183SOPE   C1220887   2.398   3.728   6.477 -1.0260  0.4067  0.0612
  183SOPE  H12A20888   2.491   3.788   6.470 -2.8674  3.2920 -1.4228
  183SOPE  H12B20889   2.323   3.801   6.516 -1.5605  0.2274 -0.6071
  183SOPE   C1120890   2.372   3.676   6.334  0.6879  0.3409  0.0237
  183SOPE  H11A20891   2.450   3.603   6.304  1.0776 -0.0999  1.9487
  183SOPE  H11B20892   2.387   3.755   6.257  0.3158 -0.5216 -0.9558
  183SOPE     P20893   2.110   3.691   6.283  0.3086 -0.1070 -0.2866
  183SOPE   O1320894   2.011   3.580   6.288  0.4412 -0.2194 -0.1170
  183SOPE   O1420895   2.138   3.762   6.155  0.4180  0.6552  0.1711
  183SOPE   O1220896   2.243   3.616   6.326  0.4048 -0.2090 -0.4218
  183SOPE   O1120897   2.086   3.789   6.407  0.3146  0.4173  0.0048
  183SOPE    C120898   2.023   3.747   6.530  0.4639 -0.5539 -0.0233
  183SOPE    HA20899   2.067   3.662   6.587 -0.0539  0.9514  2.8463
  183SOPE    HB20900   1.922   3.713   6.500 -0.5305  1.5815  0.7308
  183SOPE    C220901   2.011   3.858   6.634  0.0106 -0.1361 -0.5120
  183SOPE    HS20902   1.939   3.930   6.590 -0.3281 -1.3820 -2.0766
  183SOPE   O2120903   2.144   3.909   6.663 -0.1850 -0.5145  0.1506
  183SOPE   C2120904   2.154   4.044   6.652  0.4807 -0.4547 -0.3162
  183SOPE   O2220905   2.063   4.122   6.640 -0.2137  0.2085  0.0279
  183SOPE   C2220906   2.300   4.088   6.676  0.1682 -0.3459  0.7495
  183SOPE   H2R20907   2.301   4.196   6.653  3.4018 -0.4013  0.1107
  183SOPE   H2S20908   2.358   4.037   6.595  3.0183  3.3410  0.2167
  183SOPE    C320909   1.954   3.800   6.767  0.2482  0.0827  0.4061
  183SOPE    HX20910   2.030   3.726   6.799  1.2385  1.0681  0.4032
  183SOPE    HY20911   1.858   3.748   6.747  1.2184 -1.0672 -1.6723
  183SOPE   O3120912   1.935   3.907   6.860 -0.6333  0.9095  0.9699
  183SOPE   C3120913   1.971   3.887   6.985 -0.4561 -0.3370  0.0234
  183SOPE   O3220914   2.045   3.800   7.021 -0.1750  0.0475  0.1287
  183SOPE   C3220915   1.909   3.991   7.070  1.0070  0.2920  0.4663
  183SOPE   H2X20916   1.805   4.001   7.033  0.8868 -0.9156  0.4352
  183SOPE   H2Y20917   1.966   4.083   7.044  0.8886  0.0197 -0.8070
  183SOPE   C2320918   2.340   4.055   6.826 -0.8048  0.2027 -0.4736
  183SOPE   H3R20919   2.446   4.084   6.844 -0.2579 -1.8924 -0.0702
  183SOPE   H3S20920   2.334   3.947   6.850 -0.9691  0.7169  2.0662
  183SOPE   C2420921   2.262   4.133   6.927  0.1779  0.0098 -0.5891
  183SOPE   H4R20922   2.289   4.238   6.906  2.3599 -0.4800 -0.4717
  183SOPE   H4S20923   2.152   4.120   6.913 -0.5017 -0.2966  3.5829
  183SOPE   C2520924   2.298   4.097   7.070 -0.2720 -0.2993 -1.1538
  183SOPE   H5R20925   2.257   3.998   7.099 -0.7319  0.2430  0.1355
  183SOPE   H5S20926   2.407   4.084   7.084 -0.1868  0.5373 -0.9487
  183SOPE   C2620927   2.249   4.205   7.167 -0.0236  0.2008  0.1686
  183SOPE   H6R20928   2.327   4.283   7.147  1.6701 -1.0014  1.7646
  183SOPE   H6S20929   2.144   4.231   7.145  0.4302  1.9216 -0.1304
  183SOPE   C2720930   2.267   4.162   7.307  0.1321  0.1044  0.9015
  183SOPE   H7R20931   2.217   4.063   7.313  2.0080 -0.9622 -0.1062
  183SOPE   H7S20932   2.378   4.155   7.315  0.1173  1.3812  2.9580
  183SOPE   C2820933   2.221   4.271   7.408  0.3012  0.1915 -0.0829
  183SOPE   H8R20934   2.259   4.373   7.382  0.6293 -0.4964 -2.6039
  183SOPE   H8S20935   2.111   4.278   7.395  0.3098 -2.0041 -2.0025
  183SOPE   C2920936   2.253   4.234   7.548  0.2258 -0.5097  0.3806
  183SOPE   H9120937   2.247   4.134   7.593 -1.5858 -0.8225 -0.4718
  183SOPE  C21020938   2.272   4.329   7.644 -0.2557  0.0024  0.2895
  183SOPE  H10120939   2.283   4.300   7.750 -1.5138  3.6273  1.5787
  183SOPE  C21120940   2.275   4.481   7.640  0.8974  0.6300  0.7341
  183SOPE  H11R20941   2.237   4.525   7.546 -4.3490 -1.4026  1.5725
  183SOPE  H11S20942   2.379   4.514   7.662  1.8211 -2.2323  1.0169
  183SOPE  C21220943   2.190   4.547   7.754 -0.2734  0.5402 -0.3504
  183SOPE  H12R20944   2.110   4.480   7.793 -1.8934  2.3357 -0.4572
  183SOPE  H12S20945   2.138   4.632   7.705  1.1305  2.0720  0.7452
  183SOPE  C21320946   2.269   4.592   7.873  0.3132  0.1264 -0.5696
  183SOPE  H13R20947   2.208   4.657   7.939  0.0762 -0.6569  0.0049
  183SOPE  H13S20948   2.365   4.641   7.846  0.9420 -0.4798  0.4802
  183SOPE  C21420949   2.297   4.473   7.970  0.5633  0.1403 -0.4914
  183SOPE  H14R20950   2.358   4.398   7.915 -1.1046 -1.2545 -0.5073
  183SOPE  H14S20951   2.204   4.423   8.005  1.6752 -0.5757  1.6020
  183SOPE  C21520952   2.380   4.507   8.093 -0.0600  0.6869 -0.1954
  183SOPE  H15R20953   2.331   4.593   8.142 -0.3959  0.6331 -0.4342
  183SOPE  H15S20954   2.479   4.553   8.070 -0.4094  1.7601  0.3913
  183SOPE  C21620955   2.382   4.389   8.196  0.2796  0.4859 -0.1399
  183SOPE  H16R20956   2.456   4.313   8.165 -1.1078 -1.4927  1.1146
  183SOPE  H16S20957   2.285   4.335   8.196  0.8261 -0.5492  1.5315
  183SOPE  C21720958   2.405   4.436   8.335  0.7023 -0.3073 -0.9692
  183SOPE  H17R20959   2.412   4.344   8.398  0.9875  0.1565 -0.3150
  183SOPE  H17S20960   2.317   4.493   8.371 -1.2244 -2.0366 -2.6461
  183SOPE  C21820961   2.535   4.521   8.345  0.5491  0.1196  0.1305
  183SOPE  H18R20962   2.558   4.523   8.454 -1.6498 -0.6810  0.6547
  183SOPE  H18S20963   2.527   4.626   8.309  1.8420 -0.1445 -1.0531
  183SOPE  H18T20964   2.622   4.467   8.301  0.3610 -0.4451  0.4405
  183SOPE   C3320965   1.913   3.956   7.221  0.3944  0.5539  0.4850
  183SOPE   H3X20966   2.019   3.934   7.244  0.5777 -0.5371 -1.2746
  183SOPE   H3Y20967   1.852   3.869   7.255  1.9880 -0.7001  0.2397
  183SOPE   C3420968   1.876   4.089   7.293  0.1403  0.1939 -0.0708
  183SOPE   H4X20969   1.767   4.105   7.276 -0.2869 -2.1441  0.1559
  183SOPE   H4Y20970   1.936   4.178   7.266  3.7512 -1.5118  1.6508
  183SOPE   C3520971   1.889   4.062   7.445 -0.4105 -0.1600  0.5639
  183SOPE   H5X20972   1.993   4.033   7.472 -0.8154 -2.8741 -0.4753
  183SOPE   H5Y20973   1.828   3.971   7.463 -2.3788  0.4077 -2.4879
  183SOPE   C3620974   1.840   4.176   7.532  0.2254 -0.2692  0.0227
  183SOPE   H6X20975   1.732   4.188   7.507  0.7277  1.1061 -1.6334
  183SOPE   H6Y20976   1.879   4.275   7.500 -1.3476  0.3170 -0.1952
  183SOPE   C3720977   1.860   4.163   7.684 -0.2347 -0.1445  0.8908
  183SOPE   H7X20978   1.968   4.176   7.703  0.0751 -1.1723 -0.0623
  183SOPE   H7Y20979   1.823   4.061   7.708 -0.5153 -1.0969 -2.8998
  183SOPE   C3820980   1.786   4.268   7.773  0.3353 -0.4085  0.1630
  183SOPE   H8X20981   1.676   4.257   7.776 -0.0057  2.3407  2.1242
  183SOPE   H8Y20982   1.817   4.365   7.728  1.0939 -0.8051 -0.1992
  183SOPE   C3920983   1.843   4.272   7.920  0.5735 -0.6384 -0.5854
  183SOPE   H9X20984   1.787   4.350   7.974 -0.8642 -0.5904 -2.0777
  183SOPE   H9Y20985   1.948   4.309   7.925  0.8467 -1.5030  0.4558
  183SOPE  C31020986   1.830   4.142   8.005  0.4597  0.2193 -0.0411
  183SOPE  H10X20987   1.865   4.054   7.947 -1.5807  0.3402 -1.5961
  183SOPE  H10Y20988   1.727   4.107   8.030  0.9926 -0.6024  1.0396
  183SOPE  C31120989   1.887   4.160   8.147  0.3787 -0.5195 -0.0972
  183SOPE  H11X20990   1.843   4.245   8.202  2.3135 -0.6547  1.8161
  183SOPE  H11Y20991   1.997   4.178   8.154 -0.1709  2.8809  1.8492
  183SOPE  C31220992   1.862   4.029   8.219 -0.2291  0.5751  0.0028
  183SOPE  H12X20993   1.924   3.956   8.163  1.5009  1.5191  0.6112
  183SOPE  H12Y20994   1.755   4.007   8.201 -0.1152  2.1519 -3.4687
  183SOPE  C31320995   1.895   4.030   8.369 -0.4777 -0.7666 -0.2106
  183SOPE  H13X20996   1.819   4.092   8.421 -2.1421 -2.7555 -0.1277
  183SOPE  H13Y20997   1.998   4.062   8.394 -1.0819 -0.2827  1.9065
  183SOPE  C31420998   1.877   3.885   8.426  0.5314 -0.7396  0.5823
  183SOPE  H14X20999   1.953   3.816   8.384  0.7390 -0.6089  0.7450
  183SOPE  H14Y21000   1.778   3.846   8.395  0.0750  0.5010  0.4126
  183SOPE  C31521001   1.879   3.884   8.577  0.4210  0.1364  0.0435
  183SOPE  H15X21002   1.807   3.955   8.624 -1.3242 -0.0290 -2.1738
  183SOPE  H15Y21003   1.981   3.910   8.612 -0.2135  4.6542 -0.8243
  183SOPE  C31621004   1.858   3.741   8.635  0.0780 -0.9416  0.8987
  183SOPE  H16X21005   1.940   3.684   8.587 -0.3190 -0.1533 -0.7865
  183SOPE  H16Y21006   1.762   3.691   8.609 -0.2736  0.2110 -0.1317
  183SOPE  C31721007   1.888   3.736   8.789 -0.3248  0.2758  0.6222
  183SOPE  H17X21008   1.967   3.810   8.815 -0.4337  0.7866 -0.4458
  183SOPE  H17Y21009   1.917   3.631   8.809 -0.0651 -0.3142 -2.3938
  183SOPE  C31821010   1.770   3.762   8.883  0.1518  0.0948  0.1563
  183SOPE  H18X21011   1.703   3.674   8.877  2.4223 -1.9303  2.2571
  183SOPE  H18Y21012   1.721   3.861   8.868 -0.6157  0.0331  2.0234
  183SOPE  H18Z21013   1.815   3.752   8.984 -2.6645 -0.5275  1.4527
  184SOPE     N21014   0.601   2.797   6.038  0.1203 -0.1856 -0.0845
  184SOPE   HN121015   0.664   2.715   6.049  2.0065  1.0325 -1.1193
  184SOPE   HN221016   0.507   2.771   6.003  0.1156 -0.9909  0.5079
  184SOPE   HN321017   0.647   2.850   5.961 -0.7686  1.4230  0.4450
  184SOPE   C1221018   0.608   2.891   6.157  0.2260  0.5875  0.0105
  184SOPE  H12A21019   0.710   2.936   6.162  0.2169  0.6285 -0.1538
  184SOPE  H12B21020   0.582   2.826   6.243  0.0313 -0.4454 -0.8063
  184SOPE   C1121021   0.514   3.011   6.140 -0.6917  0.1458 -0.2424
  184SOPE  H11A21022   0.546   3.075   6.054 -0.3883 -0.1444 -0.3451
  184SOPE  H11B21023   0.529   3.074   6.230  0.4597  2.0619 -1.6845
  184SOPE     P21024   0.256   3.034   6.207 -0.3399 -0.0042 -0.4804
  184SOPE   O1321025   0.147   2.930   6.204 -0.4946  0.4289 -0.1546
  184SOPE   O1421026   0.208   3.164   6.157  0.3035  0.3635 -0.2750
  184SOPE   O1221027   0.377   2.976   6.129  0.4115  0.1144  0.0839
  184SOPE   O1121028   0.304   3.052   6.356  0.4733  0.5556 -0.1337
  184SOPE    C121029   0.363   2.933   6.426  0.3036 -0.3617  0.0803
  184SOPE    HA21030   0.462   2.959   6.469  0.6577 -1.6400  0.0731
  184SOPE    HB21031   0.365   2.846   6.357 -4.3919 -1.3880  0.8527
  184SOPE    C221032   0.279   2.878   6.539  0.2129  0.2906 -0.1034
  184SOPE    HS21033   0.194   2.835   6.483  2.4295 -1.6935 -2.1946
  184SOPE   O2121034   0.248   2.989   6.624 -0.7746 -1.1142 -0.4119
  184SOPE   C2121035   0.137   3.055   6.599 -0.2460 -0.0595 -0.2899
  184SOPE   O2221036   0.042   3.010   6.536  0.2170 -0.0241 -0.7447
  184SOPE   C2221037   0.132   3.181   6.685  0.1996 -0.3455  0.2866
  184SOPE   H2R21038   0.048   3.248   6.656  0.5491 -0.6113 -1.3993
  184SOPE   H2S21039   0.229   3.233   6.671  1.0188 -1.7831  0.4172
  184SOPE    C321040   0.353   2.774   6.620  0.2231  0.3849 -0.3456
  184SOPE    HX21041   0.445   2.815   6.667  0.0094 -1.2606  1.6451
  184SOPE    HY21042   0.379   2.699   6.542 -2.5277  1.0760 -2.0878
  184SOPE   O3121043   0.269   2.704   6.718 -0.3536 -0.5777 -0.4125
  184SOPE   C3121044   0.291   2.732   6.847 -0.2199 -0.0090 -0.3570
  184SOPE   O3221045   0.340   2.833   6.892  0.3410  0.4967 -0.1642
  184SOPE   C3221046   0.252   2.612   6.927  0.0799 -0.3191 -0.1024
  184SOPE   H2X21047   0.294   2.516   6.891 -1.5486 -1.1983  0.2227
  184SOPE   H2Y21048   0.141   2.601   6.919  0.2462 -2.7404  0.1266
  184SOPE   C2321049   0.121   3.151   6.841  0.0084 -0.2356 -0.3265
  184SOPE   H3R21050   0.209   3.088   6.868 -1.1810 -0.5190  3.4539
  184SOPE   H3S21051   0.033   3.089   6.867  0.8689 -1.2039  0.3577
  184SOPE   C2421052   0.144   3.282   6.923  0.2443  0.0941  0.9838
  184SOPE   H4R21053   0.238   3.334   6.894  0.0902  0.0646  0.4206
  184SOPE   H4S21054   0.056   3.348   6.910  1.6727  1.8266 -0.5450
  184SOPE   C2521055   0.161   3.256   7.074 -0.6619  1.1357 -0.5040
  184SOPE   H5R21056   0.177   3.353   7.126 -0.1308 -0.3772  2.3278
  184SOPE   H5S21057   0.062   3.218   7.107  0.1599 -0.0337  0.6821
  184SOPE   C2621058   0.265   3.151   7.119 -0.0498 -0.0300  0.1406
  184SOPE   H6R21059   0.226   3.053   7.082  0.0051 -1.0931  2.7224
  184SOPE   H6S21060   0.362   3.183   7.075 -0.9936  1.5489 -0.9051
  184SOPE   C2721061   0.267   3.144   7.272  0.0788 -0.0607  0.0828
  184SOPE   H7R21062   0.290   3.244   7.316  1.6580 -1.1552  1.9369
  184SOPE   H7S21063   0.166   3.108   7.303  0.1649 -1.4157 -1.1369
  184SOPE   C2821064   0.377   3.053   7.333  0.3798 -0.0891 -0.6697
  184SOPE   H8R21065   0.384   2.957   7.279 -0.6219 -0.4411 -0.1961
  184SOPE   H8S21066   0.479   3.098   7.325  0.9936 -1.4371 -0.7984
  184SOPE   C2921067   0.341   3.039   7.482 -0.1874 -0.0963  0.4586
  184SOPE   H9121068   0.360   3.128   7.544  1.8406  0.3162 -0.6737
  184SOPE  C21021069   0.287   2.932   7.541  0.0863  0.1850  0.1766
  184SOPE  H10121070   0.273   2.928   7.650 -2.0078  2.9053  0.0988
  184SOPE  C21121071   0.270   2.799   7.464  0.4954 -0.1925 -0.5559
  184SOPE  H11R21072   0.362   2.772   7.409  0.8373 -2.0195  0.8315
  184SOPE  H11S21073   0.190   2.805   7.387  0.4004 -2.5337 -0.7067
  184SOPE  C21221074   0.242   2.685   7.565  0.3134  0.4251  0.0716
  184SOPE  H12R21075   0.227   2.592   7.506  0.0969 -0.8669  2.0562
  184SOPE  H12S21076   0.149   2.696   7.625 -0.8205 -0.8957 -1.3538
  184SOPE  C21321077   0.349   2.650   7.671 -0.2744  0.2153  0.0220
  184SOPE  H13R21078   0.422   2.734   7.669 -2.2140  2.0244 -2.6935
  184SOPE  H13S21079   0.403   2.558   7.638  1.1117 -0.0737  2.8094
  184SOPE  C21421080   0.276   2.627   7.805 -0.3048  0.0610  0.3336
  184SOPE  H14R21081   0.181   2.571   7.786  0.0691 -0.7011  0.6783
  184SOPE  H14S21082   0.248   2.722   7.856  0.1485 -0.3152  1.2959
  184SOPE  C21521083   0.368   2.542   7.892 -0.1545 -0.3409 -0.5438
  184SOPE  H15R21084   0.458   2.603   7.917 -0.2917  0.3270 -1.6194
  184SOPE  H15S21085   0.393   2.447   7.840  0.4409 -1.6006  1.8953
  184SOPE  C21621086   0.309   2.508   8.032  0.1954 -0.7164 -0.4399
  184SOPE  H16R21087   0.396   2.462   8.083 -0.2165 -2.7771 -1.4896
  184SOPE  H16S21088   0.228   2.432   8.025  0.4579 -1.0102 -0.3238
  184SOPE  C21721089   0.248   2.627   8.106  0.0286  0.5127  0.0445
  184SOPE  H17R21090   0.152   2.660   8.062  1.1056  2.5981 -0.8832
  184SOPE  H17S21091   0.315   2.717   8.108 -0.0712  0.5793  0.7350
  184SOPE  C21821092   0.229   2.581   8.249  0.8914  0.1896 -0.0779
  184SOPE  H18R21093   0.324   2.542   8.290  1.2913  1.2532  0.0349
  184SOPE  H18S21094   0.161   2.493   8.247  0.4135  0.5719 -0.6856
  184SOPE  H18T21095   0.189   2.656   8.321 -0.1119 -2.0687  1.8499
  184SOPE   C3321096   0.300   2.614   7.076 -0.4268  0.1106  0.2436
  184SOPE   H3X21097   0.282   2.712   7.126  0.8634  1.2751 -1.4152
  184SOPE   H3Y21098   0.411   2.610   7.065 -0.3967  3.6350 -3.4881
  184SOPE   C3421099   0.264   2.488   7.145 -0.0191  0.2222 -0.3491
  184SOPE   H4X21100   0.293   2.400   7.084  2.8519 -1.7169  3.3732
  184SOPE   H4Y21101   0.156   2.483   7.170  0.5848 -0.4845  2.3874
  184SOPE   C3521102   0.342   2.466   7.274  0.2128 -0.0095  0.0588
  184SOPE   H5X21103   0.338   2.561   7.332 -1.5507  0.9924 -1.5799
  184SOPE   H5Y21104   0.452   2.452   7.261  0.2941  1.6345 -1.3061
  184SOPE   C3621105   0.292   2.352   7.360  0.2731  0.3443  0.3377
  184SOPE   H6X21106   0.267   2.266   7.294 -0.8961 -0.4297  1.7277
  184SOPE   H6Y21107   0.200   2.395   7.406 -0.1441  1.9399 -1.8369
  184SOPE   C3721108   0.396   2.324   7.460 -0.1703  0.5261 -0.1746
  184SOPE   H7X21109   0.451   2.415   7.493 -0.0926  0.8796 -1.2380
  184SOPE   H7Y21110   0.475   2.252   7.429  0.5366  1.4694 -0.6398
  184SOPE   C3821111   0.336   2.256   7.585  0.0568 -0.1158  0.1198
  184SOPE   H8X21112   0.288   2.168   7.536  3.4330 -0.6301 -2.6353
  184SOPE   H8Y21113   0.262   2.321   7.637  2.3389  1.5987  1.4050
  184SOPE   C3921114   0.448   2.210   7.680 -0.4695  0.0348  0.3269
  184SOPE   H9X21115   0.487   2.302   7.728 -0.2578 -0.6366  1.4819
  184SOPE   H9Y21116   0.535   2.167   7.626 -1.5091 -0.4337 -1.0307
  184SOPE  C31021117   0.390   2.116   7.785  1.1240 -0.4357  0.0091
  184SOPE  H10X21118   0.408   2.013   7.749 -1.0692 -0.4222 -1.2674
  184SOPE  H10Y21119   0.280   2.129   7.778  1.1728 -0.3328 -0.6685
  184SOPE  C31121120   0.446   2.137   7.927  0.6214 -0.4392  0.3553
  184SOPE  H11X21121   0.416   2.237   7.965 -0.2260  0.1298 -1.6523
  184SOPE  H11Y21122   0.557   2.138   7.930  0.6863 -1.7905 -0.3348
  184SOPE  C31221123   0.385   2.041   8.028  0.5906 -0.2524  0.0224
  184SOPE  H12X21124   0.387   1.936   7.990  2.3470 -0.5436  0.8321
  184SOPE  H12Y21125   0.277   2.065   8.038  0.4642 -0.6747 -0.2879
  184SOPE  C31321126   0.457   2.054   8.160  0.0970 -0.8741 -0.3234
  184SOPE  H13X21127   0.500   2.156   8.171 -0.3309 -0.8294  1.2125
  184SOPE  H13Y21128   0.533   1.973   8.166  0.0205 -0.9720 -0.7005
  184SOPE  C31421129   0.358   2.044   8.275  0.0239 -0.5171 -0.2468
  184SOPE  H14X21130   0.340   1.939   8.304 -0.4368 -0.5471 -0.6235
  184SOPE  H14Y21131   0.255   2.078   8.247 -0.2766 -1.1054  0.1337
  184SOPE  C31521132   0.419   2.103   8.398 -0.2772 -0.1339 -0.4442
  184SOPE  H15X21133   0.456   2.205   8.373 -0.4000 -0.0227 -0.1787
  184SOPE  H15Y21134   0.505   2.045   8.439  0.0991 -0.6118 -1.8579
  184SOPE  C31621135   0.320   2.126   8.514  0.5797  0.1059 -0.3323
  184SOPE  H16X21136   0.225   2.170   8.476  1.3621  0.3839 -2.0314
  184SOPE  H16Y21137   0.349   2.202   8.591 -0.1695 -0.5612  0.6370
  184SOPE  C31721138   0.298   2.008   8.608 -0.6180 -0.0102 -0.6331
  184SOPE  H17X21139   0.375   2.008   8.688  1.1842 -0.1379 -2.2782
  184SOPE  H17Y21140   0.335   1.919   8.553  3.3573  1.2317 -0.3179
  184SOPE  C31821141   0.161   2.003   8.669  0.0072 -0.1070  0.1222
  184SOPE  H18X21142   0.140   2.100   8.720  1.1200  0.3711 -0.2910
  184SOPE  H18Y21143   0.154   1.922   8.745 -0.5892  0.6444  0.8807
  184SOPE  H18Z21144   0.082   1.992   8.592 -0.1779  0.0761  0.2833
  185SAPI   C1221145   3.792   6.671  11.221  0.2075  0.0751 -0.2947
  185SAPI    H221146   3.813   6.607  11.132  2.9141  0.7378 -0.2069
  185SAPI    O221147   3.661   6.724  11.223 -0.2996  0.5101  0.8041
  185SAPI   HO221148   3.656   6.781  11.146 -1.6136  0.9775  1.2086
  185SAPI   C1321149   3.817   6.579  11.349  0.2731  0.0484  0.5787
  185SAPI    H321150   3.921   6.544  11.333 -0.2751 -1.3650 -0.1180
  185SAPI    O321151   3.726   6.464  11.344  0.2749 -0.4006 -0.1093
  185SAPI   HO321152   3.644   6.487  11.301  0.0338  0.3883  0.7464
  185SAPI   C1421153   3.798   6.664  11.472 -0.0523 -0.3479 -0.1223
  185SAPI    H421154   3.701   6.717  11.462  0.9804  1.8859  0.9754
  185SAPI    O421155   3.809   6.590  11.591 -0.1490 -0.3402 -0.3162
  185SAPI   HO421156   3.894   6.570  11.631  0.3356 -0.2616 -1.2766
  185SAPI   C1521157   3.905   6.773  11.472 -0.3773 -0.0477  0.3149
  185SAPI    H521158   4.005   6.724  11.468 -0.4522 -0.4390  2.2938
  185SAPI    O521159   3.903   6.852  11.594 -0.5635 -0.3065 -0.1085
  185SAPI   HO521160   3.871   6.803  11.670  0.7946  0.4949  1.0328
  185SAPI   C1621161   3.887   6.859  11.350 -0.0216 -0.3462 -0.5093
  185SAPI    H621162   3.789   6.910  11.345 -0.4056 -1.0615 -0.3879
  185SAPI    O621163   3.979   6.966  11.346  0.1819 -0.2100 -0.2911
  185SAPI   HO621164   4.004   6.978  11.438  2.3701  2.9826 -1.1104
  185SAPI   C1121165   3.896   6.776  11.224  0.5003  0.5673 -0.3730
  185SAPI    H121166   3.990   6.716  11.218 -1.1510 -2.7885  3.0896
  185SAPI     P21167   3.951   6.825  10.970  0.0055  0.0819  0.8030
  185SAPI   O1321168   4.085   6.780  10.999  0.5855  0.0224  0.2985
  185SAPI   O1421169   3.942   6.935  10.866 -0.3857  0.7339 -0.4013
  185SAPI   O1221170   3.877   6.859  11.107 -0.0071 -0.5757 -0.7354
  185SAPI   O1121171   3.869   6.699  10.917  0.2815  0.2436  0.0764
  185SAPI    C121172   3.729   6.714  10.876 -0.1834 -0.1547 -0.1421
  185SAPI    HA21173   3.676   6.633  10.930 -0.4480  1.0939  1.5366
  185SAPI    HB21174   3.675   6.806  10.906  0.7030  0.1824  0.4694
  185SAPI    C221175   3.709   6.681  10.719 -0.0360 -0.2268  0.5227
  185SAPI    HS21176   3.603   6.700  10.691  0.2329 -0.4439 -0.7427
  185SAPI   O2121177   3.746   6.545  10.688  0.3990  0.5585  0.1948
  185SAPI   C2121178   3.655   6.464  10.723 -0.3277  0.5129  0.0485
  185SAPI   O2221179   3.547   6.486  10.778 -0.0472  0.4544  1.1571
  185SAPI   C2221180   3.704   6.325  10.701 -0.0639  0.1963 -0.0819
  185SAPI   H2R21181   3.807   6.330  10.741  0.0555 -0.6926 -0.2790
  185SAPI   H2S21182   3.645   6.271  10.778  0.4773  0.8765  0.8375
  185SAPI    C321183   3.776   6.784  10.627 -0.3934 -0.2511 -0.8065
  185SAPI    HX21184   3.884   6.782  10.652  0.0578  2.9813 -2.0109
  185SAPI    HY21185   3.732   6.883  10.652 -0.8792 -0.4125 -1.0120
  185SAPI   O3121186   3.757   6.768  10.479 -0.5804  0.1443  0.0431
  185SAPI   C3121187   3.637   6.815  10.432 -0.0548 -0.2819 -0.4145
  185SAPI   O3221188   3.554   6.869  10.503  0.4940 -0.1750 -0.3316
  185SAPI   C3221189   3.626   6.782  10.288 -0.4248  0.1966 -0.0361
  185SAPI   H2X21190   3.533   6.725  10.269 -1.3313  1.3507  0.8059
  185SAPI   H2Y21191   3.716   6.725  10.260  0.0211  0.5513  0.6378
  185SAPI   C2321192   3.718   6.263  10.564  0.1776  0.7365  0.3293
  185SAPI   H3R21193   3.759   6.162  10.586  1.1428  1.2321  0.8645
  185SAPI   H3S21194   3.789   6.318  10.499  0.0128 -0.6684 -1.1107
  185SAPI   C2421195   3.582   6.237  10.496  0.0986 -0.2363 -0.0116
  185SAPI   H4R21196   3.514   6.178  10.562  0.7677  0.8305  1.6914
  185SAPI   H4S21197   3.596   6.180  10.402  1.2781  1.8493 -1.1839
  185SAPI   C2521198   3.528   6.371  10.449 -0.3170 -0.2578  0.3445
  185SAPI   H5R21199   3.477   6.445  10.512 -0.1309  3.0883 -3.1067
  185SAPI   C2621200   3.547   6.408  10.320  0.0586  0.2308  0.2816
  185SAPI   H6R21201   3.510   6.509  10.298  0.0812  0.4607  1.2334
  185SAPI   C2721202   3.609   6.340  10.202 -0.0416 -0.1822  0.5786
  185SAPI   H7R21203   3.553   6.382  10.116 -1.0598 -2.4022  0.0734
  185SAPI   H7S21204   3.578   6.233  10.204 -2.0844  0.3866  2.8666
  185SAPI   C2821205   3.757   6.348  10.186  0.4406  0.0137 -0.3071
  185SAPI   H8R21206   3.815   6.338  10.279 -0.7020 -0.8635  0.3342
  185SAPI   C2921207   3.815   6.350  10.065 -0.2390 -0.1989 -0.5559
  185SAPI   H9R21208   3.924   6.362  10.065  0.2539 -3.5782 -2.2682
  185SAPI  C21021209   3.752   6.362   9.926 -0.0886 -0.1868 -0.2045
  185SAPI  H10R21210   3.674   6.286   9.902  0.4416 -0.1044 -2.4692
  185SAPI  H10S21211   3.825   6.328   9.850  0.2586 -1.5542  0.7038
  185SAPI  C21121212   3.699   6.500   9.892 -0.4541  0.0487 -0.8456
  185SAPI  H11R21213   3.670   6.561   9.979  0.9304  0.0800 -0.3888
  185SAPI  C21221214   3.705   6.556   9.774  0.4423  0.3068  0.4775
  185SAPI  H12R21215   3.669   6.657   9.752  3.3836  0.9311 -2.2567
  185SAPI  C21321216   3.751   6.486   9.645 -0.5235  0.2958 -0.2085
  185SAPI  H13R21217   3.860   6.464   9.653 -0.5079  0.7562  1.1029
  185SAPI  H13S21218   3.752   6.558   9.561 -1.5810 -1.1729 -1.5405
  185SAPI  C21421219   3.672   6.363   9.605  0.7452 -0.0523  0.3451
  185SAPI  H14R21220   3.655   6.294   9.689  0.9857 -0.0372  0.4074
  185SAPI  C21521221   3.644   6.319   9.485  0.1780 -0.0016 -0.1731
  185SAPI  H15R21222   3.580   6.231   9.469 -0.8660  0.7119 -0.0302
  185SAPI  C21621223   3.680   6.388   9.363 -0.2215 -0.4115  0.5038
  185SAPI  H16R21224   3.726   6.488   9.380  0.1153 -0.6077  0.7384
  185SAPI  H16S21225   3.596   6.415   9.295 -0.2161 -1.8488 -0.0995
  185SAPI  C21721226   3.768   6.299   9.283 -0.4390 -0.6770 -0.2452
  185SAPI  H17R21227   3.723   6.199   9.266 -0.0184 -0.6670 -1.5452
  185SAPI  H17S21228   3.863   6.271   9.333  0.2118 -0.0510 -1.0767
  185SAPI  C21821229   3.811   6.361   9.149 -0.3290  0.4679  0.7571
  185SAPI  H18R21230   3.912   6.333   9.112  0.8007  2.1832  2.3591
  185SAPI  H18S21231   3.822   6.470   9.171  0.0167  0.6861 -0.4018
  185SAPI  C21921232   3.704   6.340   9.039  0.0170 -0.1377 -0.2363
  185SAPI  H19R21233   3.613   6.388   9.080  0.9669  1.0935  0.5246
  185SAPI  H19S21234   3.686   6.232   9.021  0.6819 -0.1511 -0.8775
  185SAPI  C22021235   3.743   6.412   8.907 -0.1997 -0.3091  0.2465
  185SAPI  H20R21236   3.677   6.374   8.826 -1.9780  2.4560  0.2830
  185SAPI  H20S21237   3.852   6.397   8.889 -0.1320 -0.3372  0.6617
  185SAPI  H20T21238   3.723   6.520   8.917 -0.5208 -0.4266  0.9611
  185SAPI   C3321239   3.603   6.908  10.202  0.2934  0.2348 -0.6865
  185SAPI   H3X21240   3.684   6.984  10.212  0.5367  0.2200 -2.2213
  185SAPI   H3Y21241   3.504   6.952  10.229  0.2246 -1.3670  1.9715
  185SAPI   C3421242   3.596   6.885  10.050  0.4255  0.3437  0.1720
  185SAPI   H4X21243   3.516   6.813  10.023  1.3642 -0.4552 -0.6125
  185SAPI   H4Y21244   3.693   6.843  10.014  1.5239  2.8929 -0.0354
  185SAPI   C3521245   3.567   7.012   9.970  0.1697 -0.0537  0.4180
  185SAPI   H5X21246   3.649   7.083   9.992 -0.3739  1.1676 -1.3142
  185SAPI   H5Y21247   3.475   7.064  10.005 -0.8148 -1.0250 -0.6280
  185SAPI   C3621248   3.566   6.990   9.812 -0.1793  0.2289  0.3138
  185SAPI   H6X21249   3.496   6.910   9.782 -0.5037  0.9773 -1.0000
  185SAPI   H6Y21250   3.667   6.955   9.782 -0.6419 -1.6188  0.7813
  185SAPI   C3721251   3.534   7.124   9.744  0.1499  0.1547  0.5819
  185SAPI   H7X21252   3.594   7.197   9.803 -3.1216  2.3656  1.5142
  185SAPI   H7Y21253   3.428   7.153   9.763 -0.5188 -2.4828  1.2706
  185SAPI   C3821254   3.567   7.137   9.595 -0.0388 -0.1172  0.5346
  185SAPI   H8X21255   3.504   7.064   9.540  0.4119 -0.8640  0.9896
  185SAPI   H8Y21256   3.674   7.117   9.574 -0.1157  1.5401 -1.7525
  185SAPI   C3921257   3.540   7.276   9.549  0.2687 -0.6111 -0.2758
  185SAPI   H9X21258   3.602   7.348   9.607 -0.2834  0.2991 -0.7944
  185SAPI   H9Y21259   3.434   7.306   9.557  0.5502  0.3192  0.0839
  185SAPI  C31021260   3.577   7.293   9.401  0.4693  0.1454 -0.3413
  185SAPI  H10X21261   3.683   7.269   9.379  0.9584  2.3899 -0.7229
  185SAPI  H10Y21262   3.557   7.401   9.382 -0.2910 -0.0707 -0.8266
  185SAPI  C31121263   3.495   7.205   9.318  0.2051 -0.0498  0.0077
  185SAPI  H11X21264   3.389   7.224   9.345 -0.7061 -1.9570 -1.9084
  185SAPI  H11Y21265   3.506   7.096   9.336  0.7110  0.2821  1.9077
  185SAPI  C31221266   3.513   7.245   9.164  0.4063 -0.2110 -0.2701
  185SAPI  H12X21267   3.615   7.227   9.124  0.2445  1.4531 -1.5338
  185SAPI  H12Y21268   3.493   7.354   9.157  2.8656  0.4391  1.2922
  185SAPI  C31321269   3.418   7.170   9.073 -0.8561 -0.3456  0.8106
  185SAPI  H13X21270   3.314   7.207   9.088 -1.1312 -1.2274  1.0840
  185SAPI  H13Y21271   3.417   7.060   9.088  3.5699 -0.5942  0.5410
  185SAPI  C31421272   3.442   7.199   8.921 -0.3369  0.7286 -0.7146
  185SAPI  H14X21273   3.544   7.165   8.892 -0.1765  1.9423 -1.6650
  185SAPI  H14Y21274   3.444   7.309   8.906  1.0039  0.7831 -0.3292
  185SAPI  C31521275   3.345   7.124   8.840  0.1628  0.4270 -0.0997
  185SAPI  H15X21276   3.240   7.158   8.856 -0.5360 -1.3754 -0.6999
  185SAPI  H15Y21277   3.341   7.015   8.861 -1.0512  0.4789  0.0305
  185SAPI  C31621278   3.380   7.135   8.686 -0.4204  0.7070 -0.1890
  185SAPI  H16X21279   3.450   7.051   8.666 -0.6710  0.7997 -1.5708
  185SAPI  H16Y21280   3.418   7.238   8.668  0.1105  0.5988  0.3131
  185SAPI  C31721281   3.263   7.122   8.587 -0.0377  0.3796  0.4167
  185SAPI  H17X21282   3.174   7.179   8.620 -1.0296 -0.2974 -1.0115
  185SAPI  H17Y21283   3.238   7.015   8.575  0.4345  0.1424  1.4182
  185SAPI  C31821284   3.300   7.189   8.453  0.2506  0.1936  0.8886
  185SAPI  H18X21285   3.237   7.149   8.370  1.1455 -0.7792  0.6591
  185SAPI  H18Y21286   3.403   7.155   8.426  0.7001  3.0835 -1.5485
  185SAPI  H18Z21287   3.285   7.299   8.454  1.5756  0.4088 -0.2997
  186SAPI   C1221288   4.630   4.952  10.500  0.5630 -0.3221 -0.5161
  186SAPI    H221289   4.564   4.993  10.420 -0.4095  2.1718  1.4022
  186SAPI    O221290   4.693   4.834  10.447  0.5783 -0.0414  0.0330
  186SAPI   HO221291   4.624   4.767  10.454  0.5142  0.1522  1.7266
  186SAPI   C1321292   4.731   5.058  10.531 -0.3643 -0.5225 -0.0661
  186SAPI    H321293   4.670   5.142  10.571 -1.9222 -2.0424  0.8910
  186SAPI    O321294   4.811   5.091  10.415  0.0708  0.1945 -0.6030
  186SAPI   HO321295   4.863   5.014  10.391  0.3967 -0.0234  0.7362
  186SAPI   C1421296   4.824   5.008  10.643 -0.6490  0.2970  0.3890
  186SAPI    H421297   4.879   4.921  10.601 -1.0973  0.0653  0.2790
  186SAPI    O421298   4.927   5.102  10.672 -0.1879  0.3051  0.2521
  186SAPI   HO421299   4.887   5.186  10.696 -2.5359 -0.3982 -0.8627
  186SAPI   C1521300   4.744   4.967  10.769 -0.3770 -0.2338  0.2606
  186SAPI    H521301   4.689   5.050  10.818  0.2094  0.1973  0.2077
  186SAPI    O521302   4.829   4.917  10.868 -0.1526  0.6880  0.4623
  186SAPI   HO521303   4.909   4.881  10.831  0.0041  0.7599  0.7266
  186SAPI   C1621304   4.640   4.863  10.728  0.0187  0.1444  0.1208
  186SAPI    H621305   4.685   4.769  10.688 -1.8098 -0.7023 -0.0170
  186SAPI    O621306   4.566   4.828  10.844 -0.2955 -0.2611 -0.0441
  186SAPI   HO621307   4.473   4.826  10.821 -0.8840 -0.9109  2.1683
  186SAPI   C1121308   4.549   4.914  10.622  0.2487 -0.0367  0.0216
  186SAPI    H121309   4.505   5.003  10.670 -1.2915 -0.8131  0.1099
  186SAPI     P21310   4.289   4.839  10.637  0.3248  0.7120 -0.1694
  186SAPI   O1321311   4.296   4.908  10.762  0.2518 -0.4164 -0.5468
  186SAPI   O1421312   4.211   4.708  10.633  0.1391 -0.3753  0.2986
  186SAPI   O1221313   4.450   4.821  10.584  0.5046 -0.3833 -0.4286
  186SAPI   O1121314   4.217   4.929  10.531 -0.0161 -0.5238  0.3574
  186SAPI    C121315   4.184   5.069  10.533  0.9229  0.0919 -0.0290
  186SAPI    HA21316   4.246   5.126  10.606  0.6036  0.2202  0.1419
  186SAPI    HB21317   4.205   5.120  10.436  0.2873  0.2348 -0.0952
  186SAPI    C221318   4.032   5.083  10.577 -0.1530 -0.1284  0.1112
  186SAPI    HS21319   4.001   5.010  10.656 -2.2626 -0.3590 -0.8541
  186SAPI   O2121320   3.953   5.076  10.453  0.0262  0.3054 -0.1794
  186SAPI   C2121321   3.830   5.076  10.475 -0.0116 -0.4551 -0.0773
  186SAPI   O2221322   3.775   5.065  10.584  0.1890 -0.3702 -0.2882
  186SAPI   C2221323   3.756   5.069  10.341  0.5385 -0.1380 -0.2945
  186SAPI   H2R21324   3.773   5.156  10.274 -0.9211 -1.6287 -2.7559
  186SAPI   H2S21325   3.797   4.981  10.287  0.6720  0.0642 -0.5270
  186SAPI    C321326   4.019   5.222  10.642  0.6546  0.2041 -0.3055
  186SAPI    HX21327   4.074   5.225  10.739 -0.0773 -0.4179  0.1335
  186SAPI    HY21328   3.916   5.238  10.680  1.5035 -0.5182  2.5446
  186SAPI   O3121329   4.070   5.329  10.555 -0.1395 -0.3217  0.1988
  186SAPI   C3121330   3.973   5.417  10.506 -0.1354  0.0508  0.3117
  186SAPI   O3221331   3.852   5.406  10.505 -0.1298  0.6262 -0.0780
  186SAPI   C3221332   4.045   5.535  10.443  0.1605 -0.0633  0.4123
  186SAPI   H2X21333   4.141   5.555  10.495  0.5560  1.1760 -0.6987
  186SAPI   H2Y21334   3.973   5.619  10.457 -0.2406 -0.8596  3.7958
  186SAPI   C2321335   3.608   5.039  10.359  0.2573 -0.3441 -0.1193
  186SAPI   H3R21336   3.569   5.127  10.414  1.1069 -0.8466  1.3485
  186SAPI   H3S21337   3.583   4.955  10.428  0.8093 -0.8616 -0.5435
  186SAPI   C2421338   3.525   5.020  10.229 -0.1761 -0.2684  0.3036
  186SAPI   H4R21339   3.556   5.105  10.165 -2.1425 -0.1674 -0.5613
  186SAPI   H4S21340   3.421   5.039  10.263  0.4102  2.7538  0.6502
  186SAPI   C2521341   3.553   4.887  10.168  0.6347  1.1486 -0.0963
  186SAPI   H5R21342   3.529   4.809  10.241  2.0223  1.3135  0.5640
  186SAPI   C2621343   3.593   4.851  10.043 -0.6325 -0.1393 -0.1784
  186SAPI   H6R21344   3.601   4.742  10.027 -0.8294 -0.3848  1.2450
  186SAPI   C2721345   3.627   4.939   9.928  0.1309 -0.0767 -0.5348
  186SAPI   H7R21346   3.733   4.925   9.900  0.2329 -0.2425 -0.0613
  186SAPI   H7S21347   3.619   5.046   9.957 -0.4124 -0.6082  1.3818
  186SAPI   C2821348   3.540   4.926   9.799 -0.3983 -0.4350 -0.2843
  186SAPI   H8R21349   3.432   4.921   9.820 -0.5817  2.7038 -0.0294
  186SAPI   C2921350   3.574   4.928   9.669 -0.5508  0.0662 -0.0921
  186SAPI   H9R21351   3.493   4.942   9.597  1.2148  0.3539 -2.1271
  186SAPI  C21021352   3.716   4.952   9.610  0.5811 -0.4030 -0.2728
  186SAPI  H10R21353   3.768   5.016   9.684 -1.3369  0.0470  0.7706
  186SAPI  H10S21354   3.719   5.032   9.533 -0.5745  0.6935  0.7703
  186SAPI  C21121355   3.777   4.816   9.577 -0.7832 -0.6228 -0.2768
  186SAPI  H11R21356   3.826   4.769   9.664 -0.2460 -1.4758 -1.0247
  186SAPI  C21221357   3.775   4.757   9.451 -0.4018 -0.6427  0.0347
  186SAPI  H12R21358   3.814   4.655   9.440  1.8107  0.1307  0.3096
  186SAPI  C21321359   3.701   4.814   9.333  0.4365 -0.5039 -0.0208
  186SAPI  H13R21360   3.616   4.878   9.366 -0.6563 -0.6136 -2.4060
  186SAPI  H13S21361   3.669   4.730   9.268 -0.4072 -0.2347  0.0388
  186SAPI  C21421362   3.780   4.902   9.232 -0.3252  0.4567 -1.1243
  186SAPI  H14R21363   3.861   4.953   9.286  0.9700 -0.6028 -2.0050
  186SAPI  C21521364   3.750   4.922   9.106 -0.2791 -0.8205  0.5169
  186SAPI  H15R21365   3.811   4.997   9.053 -1.0927  1.1622  2.2236
  186SAPI  C21621366   3.638   4.870   9.023  0.7803 -0.1855  0.6306
  186SAPI  H16R21367   3.581   4.961   8.996  0.8591 -0.2431  0.2634
  186SAPI  H16S21368   3.577   4.797   9.081  0.7263  1.1167  2.2788
  186SAPI  C21721369   3.698   4.806   8.893 -0.0547 -0.0460  0.1023
  186SAPI  H17R21370   3.752   4.892   8.848 -2.2477  1.0448 -0.5965
  186SAPI  H17S21371   3.615   4.775   8.826  0.2013 -1.2828  0.3292
  186SAPI  C21821372   3.785   4.677   8.917  0.4529  0.0249  0.3064
  186SAPI  H18R21373   3.859   4.699   8.997 -1.0623 -3.0876  2.7976
  186SAPI  H18S21374   3.837   4.641   8.825  1.6479 -1.1506  1.3888
  186SAPI  C21921375   3.708   4.554   8.967 -0.0209 -0.1354 -0.7338
  186SAPI  H19R21376   3.654   4.591   9.056  0.8909  1.1505 -0.6881
  186SAPI  H19S21377   3.782   4.473   8.985 -0.9897 -1.1493 -1.1705
  186SAPI  C22021378   3.621   4.501   8.861 -0.0258 -0.2644  0.5955
  186SAPI  H20R21379   3.668   4.468   8.766  0.6467 -1.0350  1.1763
  186SAPI  H20S21380   3.550   4.583   8.834  0.3581 -0.2810 -0.5215
  186SAPI  H20T21381   3.554   4.421   8.899 -2.8137  1.6263 -0.0497
  186SAPI   C3321382   4.067   5.498  10.293 -0.0652 -0.5266 -0.1168
  186SAPI   H3X21383   3.979   5.449  10.246 -1.9357  1.5281  1.0193
  186SAPI   H3Y21384   4.149   5.424  10.292 -1.1260 -1.7450  0.4905
  186SAPI   C3421385   4.110   5.612  10.199  0.2666  0.6528  0.9912
  186SAPI   H4X21386   4.199   5.666  10.239  1.5019  1.7151 -2.8240
  186SAPI   H4Y21387   4.030   5.690  10.192 -0.4979 -0.1233  0.8851
  186SAPI   C3521388   4.158   5.562  10.061 -0.0931 -0.2821  0.1206
  186SAPI   H5X21389   4.091   5.487  10.014 -0.7671  0.4946 -0.1732
  186SAPI   H5Y21390   4.260   5.522  10.081  0.0692 -0.3953 -0.8895
  186SAPI   C3621391   4.168   5.683   9.963  0.4683  0.6640  0.4993
  186SAPI   H6X21392   4.209   5.777  10.006  0.5828  2.0784 -2.4297
  186SAPI   H6Y21393   4.062   5.700   9.935  0.4040 -1.1536 -0.5661
  186SAPI   C3721394   4.249   5.655   9.834  0.8465 -0.0062  0.6780
  186SAPI   H7X21395   4.348   5.611   9.859 -0.3431 -2.3565  1.5880
  186SAPI   H7Y21396   4.276   5.754   9.791  1.4796  0.7034  2.6057
  186SAPI   C3821397   4.172   5.575   9.734 -0.7172 -0.2406 -0.0018
  186SAPI   H8X21398   4.076   5.629   9.715 -0.8818 -0.4885  0.1174
  186SAPI   H8Y21399   4.158   5.467   9.756 -3.3832 -0.0138 -0.2118
  186SAPI   C3921400   4.242   5.569   9.595 -0.1012  0.3493  0.2580
  186SAPI   H9X21401   4.323   5.493   9.605  0.2405  0.4617 -1.3855
  186SAPI   H9Y21402   4.278   5.673   9.581 -2.1721  0.7648 -2.6037
  186SAPI  C31021403   4.150   5.536   9.480 -0.7786  0.0984  0.1783
  186SAPI  H10X21404   4.095   5.627   9.447  0.7735  1.6862  1.7111
  186SAPI  H10Y21405   4.079   5.456   9.511  1.0255 -0.6155  2.8818
  186SAPI  C31121406   4.232   5.490   9.360  0.3321  0.1950  0.0482
  186SAPI  H11X21407   4.241   5.379   9.354  0.8705  0.2588 -0.3235
  186SAPI  H11Y21408   4.331   5.540   9.363  0.1241  0.5712  1.1342
  186SAPI  C31221409   4.164   5.534   9.219 -0.5601  0.0453 -0.1556
  186SAPI  H12X21410   4.055   5.515   9.218 -0.5002 -0.4018  0.7409
  186SAPI  H12Y21411   4.205   5.474   9.135 -0.2369 -1.4204  0.9996
  186SAPI  C31321412   4.176   5.680   9.185 -0.2584 -0.0543 -0.2035
  186SAPI  H13X21413   4.275   5.724   9.209 -0.9655  2.3063 -1.3464
  186SAPI  H13Y21414   4.102   5.731   9.249 -0.4677  0.8260 -1.1225
  186SAPI  C31421415   4.131   5.702   9.036  0.1431 -0.4011 -0.1290
  186SAPI  H14X21416   4.029   5.665   9.015 -0.0862 -0.4603  1.0609
  186SAPI  H14Y21417   4.204   5.649   8.971 -1.4470 -1.2637 -1.2934
  186SAPI  C31521418   4.125   5.851   8.994  0.0647  0.0767 -0.6710
  186SAPI  H15X21419   4.228   5.890   9.013  0.0472  1.4437 -2.9284
  186SAPI  H15Y21420   4.052   5.904   9.058 -0.2519  0.1716 -1.1048
  186SAPI  C31621421   4.086   5.874   8.849  0.1261  0.0003  0.4448
  186SAPI  H16X21422   4.084   5.983   8.831  0.6647 -0.2066 -1.0184
  186SAPI  H16Y21423   3.985   5.832   8.830  0.2997 -1.0350  1.6458
  186SAPI  C31721424   4.176   5.809   8.744  0.0922  0.2978  0.5498
  186SAPI  H17X21425   4.107   5.797   8.658  0.1427 -0.7817  0.6541
  186SAPI  H17Y21426   4.203   5.704   8.769  0.6924  0.4644  0.6183
  186SAPI  C31821427   4.301   5.895   8.711  0.1764 -0.8943  0.3925
  186SAPI  H18X21428   4.368   5.855   8.632  1.5425  1.4679  0.2576
  186SAPI  H18Y21429   4.371   5.888   8.798  0.8078 -2.1699 -0.1896
  186SAPI  H18Z21430   4.283   6.001   8.685 -1.2245 -1.1545  0.2448
  187SAPI   C1221431   1.830   0.319   6.349 -0.2598 -0.2538  0.6481
  187SAPI    H221432   1.787   0.240   6.414 -0.3032 -0.2743  0.5944
  187SAPI    O221433   1.969   0.337   6.381  1.0096  0.2207 -0.6018
  187SAPI   HO221434   1.969   0.298   6.469 -1.7561  1.8854  0.2537
  187SAPI   C1321435   1.815   0.277   6.202  0.4671 -0.0871 -0.5054
  187SAPI    H321436   1.706   0.264   6.185  0.4121 -0.6932  0.2880
  187SAPI    O321437   1.878   0.152   6.188 -0.2535 -0.1059  0.5564
  187SAPI   HO321438   1.972   0.169   6.200 -0.0009 -1.1596  0.1571
  187SAPI   C1421439   1.869   0.382   6.106  0.1412  0.1511  0.0173
  187SAPI    H421440   1.975   0.386   6.140  0.0775 -3.2204  0.9871
  187SAPI    O421441   1.857   0.343   5.970 -0.0492  0.3042 -0.5194
  187SAPI   HO421442   1.764   0.325   5.956 -0.4381  0.1004  1.9176
  187SAPI   C1521443   1.804   0.514   6.121 -0.6385 -0.1273  0.1877
  187SAPI    H521444   1.697   0.504   6.090 -0.9488 -2.6732  1.7869
  187SAPI    O521445   1.866   0.609   6.033  0.0002 -0.1181  0.4417
  187SAPI   HO521446   1.818   0.589   5.952  3.8961 -1.3758 -1.8573
  187SAPI   C1621447   1.812   0.553   6.263 -0.3677  0.0496  0.2340
  187SAPI    H621448   1.915   0.583   6.290 -0.1053 -0.4633 -0.1801
  187SAPI    O621449   1.727   0.666   6.286  0.6165 -0.0948  0.5618
  187SAPI   HO621450   1.725   0.680   6.381  0.4339 -4.7748  1.4696
  187SAPI   C1121451   1.750   0.444   6.355 -0.2567  0.4398  0.4384
  187SAPI    H121452   1.649   0.427   6.312  0.4543  0.3681 -1.2769
  187SAPI     P21453   1.586   0.490   6.563  0.5155  0.3193 -0.1392
  187SAPI   O1321454   1.493   0.403   6.480  0.4170 -0.3759 -0.4902
  187SAPI   O1421455   1.548   0.629   6.591 -0.3224 -0.6792 -0.0590
  187SAPI   O1221456   1.737   0.487   6.495 -0.6139 -0.2461 -0.3084
  187SAPI   O1121457   1.614   0.417   6.700 -0.4756 -0.0857 -0.2646
  187SAPI    C121458   1.506   0.368   6.785 -0.9242  0.3646 -0.1879
  187SAPI    HA21459   1.534   0.356   6.892 -1.6158  0.7645  0.0440
  187SAPI    HB21460   1.418   0.436   6.783 -0.7441  0.6252  0.5856
  187SAPI    C221461   1.461   0.224   6.735  0.3010 -0.3037  0.4343
  187SAPI    HS21462   1.426   0.237   6.630  0.2722  0.7233  0.5648
  187SAPI   O2121463   1.356   0.163   6.817 -0.1729  0.1511  0.5969
  187SAPI   C2121464   1.242   0.220   6.799 -0.1947  0.0872 -0.5496
  187SAPI   O2221465   1.214   0.313   6.725 -0.4483  0.3332  0.2417
  187SAPI   C2221466   1.150   0.166   6.907  0.7640  0.1702 -0.3489
  187SAPI   H2R21467   1.075   0.101   6.858 -0.0570  1.0303 -0.2511
  187SAPI   H2S21468   1.208   0.108   6.982 -0.4108  1.9029  2.0252
  187SAPI    C321469   1.586   0.129   6.733  0.5569 -0.1874  0.2328
  187SAPI    HX21470   1.648   0.140   6.825  0.9492 -0.0043 -0.0490
  187SAPI    HY21471   1.647   0.169   6.649  0.4718 -0.9631 -0.2047
  187SAPI   O3121472   1.549  -0.009   6.707  0.4816 -0.3234  1.0756
  187SAPI   C3121473   1.539  -0.080   6.817 -0.3688  0.1696  0.4347
  187SAPI   O3221474   1.606  -0.063   6.915 -0.3597 -0.2517 -0.7434
  187SAPI   C3221475   1.450  -0.201   6.796  0.7755 -0.6124 -1.1503
  187SAPI   H2X21476   1.507  -0.296   6.802  1.8843 -0.0522 -2.4801
  187SAPI   H2Y21477   1.410  -0.186   6.694 -1.7689  0.1692 -0.1210
  187SAPI   C2321478   1.081   0.285   6.991  0.4215  0.1704  0.4106
  187SAPI   H3R21479   1.020   0.238   7.072  1.1697 -0.4795  0.6074
  187SAPI   H3S21480   1.027   0.346   6.916 -0.8506  0.2998  1.3892
  187SAPI   C2421481   1.178   0.371   7.073 -0.3480 -0.6731 -0.4635
  187SAPI   H4R21482   1.247   0.417   7.000 -0.2673  0.8469  0.5196
  187SAPI   H4S21483   1.232   0.302   7.141 -1.1615 -0.8672 -0.0002
  187SAPI   C2521484   1.107   0.486   7.139  0.3356  0.0919  0.2775
  187SAPI   H5R21485   1.129   0.575   7.077  1.9179 -0.9185 -0.6835
  187SAPI   C2621486   1.046   0.489   7.263  0.3629 -0.8646 -0.3640
  187SAPI   H6R21487   0.992   0.581   7.291 -0.6952 -1.2389 -1.1066
  187SAPI   C2721488   1.033   0.380   7.357  0.0507  0.2173  0.3539
  187SAPI   H7R21489   0.990   0.292   7.305 -0.3956 -1.8777  3.9253
  187SAPI   H7S21490   0.949   0.410   7.423 -0.2119 -0.6416  0.4235
  187SAPI   C2821491   1.154   0.353   7.443  0.2555 -0.3139  0.4007
  187SAPI   H8R21492   1.248   0.373   7.389 -0.9717 -0.7845 -2.0844
  187SAPI   C2921493   1.159   0.315   7.573 -0.5782 -0.5272 -0.1774
  187SAPI   H9R21494   1.251   0.308   7.634 -0.0595  1.1607 -0.7119
  187SAPI  C21021495   1.043   0.297   7.663  0.4722 -0.1794 -0.3589
  187SAPI  H10R21496   0.955   0.289   7.596 -0.7530  0.3257  1.1445
  187SAPI  H10S21497   1.031   0.386   7.729 -1.6136 -1.3904  0.9914
  187SAPI  C21121498   1.044   0.178   7.750 -0.0440  0.3501 -0.2136
  187SAPI  H11R21499   1.089   0.095   7.694 -0.6291  0.9430 -1.6163
  187SAPI  C21221500   1.016   0.183   7.876  0.3337 -0.0135 -0.2678
  187SAPI  H12R21501   1.020   0.091   7.936 -0.0183 -0.7296 -1.3389
  187SAPI  C21321502   0.971   0.301   7.958 -0.1180  0.0351 -0.2895
  187SAPI  H13R21503   0.934   0.384   7.894 -1.1740 -0.4742 -0.3744
  187SAPI  H13S21504   1.066   0.330   8.007 -0.5026 -0.5488  0.8379
  187SAPI  C21421505   0.866   0.278   8.075  0.2641  0.1513  0.2264
  187SAPI  H14R21506   0.761   0.273   8.045  0.4508 -1.8309 -0.2522
  187SAPI  C21521507   0.882   0.257   8.208  0.5371 -0.0696  0.3249
  187SAPI  H15R21508   0.794   0.230   8.267 -0.1931  2.6153  0.5953
  187SAPI  C21621509   1.010   0.262   8.288 -0.0668  0.0604 -0.4725
  187SAPI  H16R21510   1.091   0.315   8.235  0.1722  0.2704  0.0934
  187SAPI  H16S21511   1.050   0.160   8.306 -2.2020 -0.6001  1.0186
  187SAPI  C21721512   0.995   0.322   8.432 -0.2425  0.0640  0.0724
  187SAPI  H17R21513   0.987   0.430   8.406  2.2006 -0.0104 -1.2825
  187SAPI  H17S21514   1.096   0.319   8.479 -0.1758 -0.7494 -0.1195
  187SAPI  C21821515   0.883   0.269   8.528  0.5092 -0.9610  0.3858
  187SAPI  H18R21516   0.893   0.161   8.552  1.0794 -1.9280 -3.4765
  187SAPI  H18S21517   0.787   0.279   8.471  0.3088  1.9071  1.1031
  187SAPI  C21921518   0.859   0.363   8.638  0.0450  0.2292  0.1523
  187SAPI  H19R21519   0.788   0.444   8.612  1.8013  1.8115  0.0969
  187SAPI  H19S21520   0.949   0.427   8.644 -0.4348  1.1698 -1.9026
  187SAPI  C22021521   0.817   0.276   8.756 -1.2257 -0.4155  0.1880
  187SAPI  H20R21522   0.902   0.217   8.797 -0.7140 -0.4546 -0.8967
  187SAPI  H20S21523   0.733   0.206   8.736 -2.2956  1.1201 -0.9559
  187SAPI  H20T21524   0.797   0.351   8.835 -3.3452 -1.4654  0.7456
  187SAPI   C3321525   1.332  -0.194   6.899  0.5868 -0.0954  0.4415
  187SAPI   H3X21526   1.242  -0.251   6.866  2.0028 -0.4824 -3.2174
  187SAPI   H3Y21527   1.296  -0.090   6.915 -1.6012 -0.4611 -1.4478
  187SAPI   C3421528   1.361  -0.257   7.042  0.5806  0.0534 -0.4634
  187SAPI   H4X21529   1.450  -0.206   7.085  0.3100  0.7202 -0.6812
  187SAPI   H4Y21530   1.385  -0.364   7.025 -0.7940 -0.5135  0.8563
  187SAPI   C3521531   1.246  -0.238   7.137  0.3667  0.2442 -0.4370
  187SAPI   H5X21532   1.152  -0.295   7.122  0.2678 -0.1678  1.5478
  187SAPI   H5Y21533   1.207  -0.134   7.132  0.3627  0.4446  2.3105
  187SAPI   C3621534   1.298  -0.262   7.285  0.0320 -0.0802  1.2854
  187SAPI   H6X21535   1.403  -0.233   7.308  0.3318 -0.2438  0.1920
  187SAPI   H6Y21536   1.295  -0.372   7.298 -3.2912 -0.3519 -0.7407
  187SAPI   C3721537   1.201  -0.207   7.391 -0.2387  0.0042 -0.5936
  187SAPI   H7X21538   1.098  -0.241   7.365 -0.7707  1.0864  0.0365
  187SAPI   H7Y21539   1.203  -0.096   7.387 -2.1760  0.0526 -1.1764
  187SAPI   C3821540   1.231  -0.253   7.533  0.2606 -0.2223 -0.1619
  187SAPI   H8X21541   1.325  -0.205   7.567  0.2285  0.6410 -1.2241
  187SAPI   H8Y21542   1.255  -0.362   7.528  0.2109 -0.2066 -0.9891
  187SAPI   C3921543   1.113  -0.221   7.626  0.1068 -0.3106 -0.2867
  187SAPI   H9X21544   1.033  -0.297   7.615 -1.2923  0.7402  1.8320
  187SAPI   H9Y21545   1.079  -0.119   7.597 -0.2256 -0.9598 -2.3169
  187SAPI  C31021546   1.152  -0.219   7.775  0.6025  0.2748  0.0489
  187SAPI  H10X21547   1.196  -0.119   7.795  1.4250  0.4751 -2.4233
  187SAPI  H10Y21548   1.214  -0.308   7.800 -2.0019 -1.0880  2.3371
  187SAPI  C31121549   1.040  -0.234   7.882  0.3877 -0.4636 -0.2692
  187SAPI  H11X21550   1.004  -0.339   7.876  2.0494 -1.0212 -1.0445
  187SAPI  H11Y21551   0.961  -0.167   7.841 -0.6737 -2.0615 -0.9396
  187SAPI  C31221552   1.074  -0.205   8.030  0.5277 -0.3387  0.7173
  187SAPI  H12X21553   1.095  -0.096   8.036  3.5478 -0.8849  2.0760
  187SAPI  H12Y21554   1.162  -0.265   8.061  1.4126  0.6110  0.1051
  187SAPI  C31321555   0.956  -0.258   8.110 -0.1968  0.2487 -0.4980
  187SAPI  H13X21556   0.948  -0.369   8.106  0.2119  0.0927  1.8592
  187SAPI  H13Y21557   0.858  -0.215   8.078 -0.5777  0.1455  0.5156
  187SAPI  C31421558   0.971  -0.218   8.260 -0.7199  0.2403 -0.0667
  187SAPI  H14X21559   0.977  -0.111   8.288  0.6627  1.0069 -2.9213
  187SAPI  H14Y21560   1.071  -0.255   8.292 -2.1682 -0.7545  3.9297
  187SAPI  C31521561   0.864  -0.275   8.345 -0.1097  0.0204 -0.5151
  187SAPI  H15X21562   0.846  -0.383   8.330 -1.8170  0.3307 -1.0365
  187SAPI  H15Y21563   0.778  -0.212   8.311 -0.0424  0.8039  0.7102
  187SAPI  C31621564   0.887  -0.249   8.498 -0.0153 -0.3664 -0.4144
  187SAPI  H16X21565   0.803  -0.291   8.557 -1.5105  0.5206 -1.8415
  187SAPI  H16Y21566   0.878  -0.139   8.506 -3.3577 -0.4456 -1.6206
  187SAPI  C31721567   1.017  -0.306   8.557  0.1088 -0.8533 -0.8631
  187SAPI  H17X21568   1.092  -0.239   8.510  0.2549 -2.2461 -2.7226
  187SAPI  H17Y21569   1.027  -0.409   8.515  0.6109 -0.5851 -1.4129
  187SAPI  C31821570   1.006  -0.317   8.715 -0.1081 -0.1148  0.0293
  187SAPI  H18X21571   0.933  -0.392   8.753 -0.1693 -0.4253 -0.6797
  187SAPI  H18Y21572   0.974  -0.216   8.749 -1.2695  0.1421 -1.6841
  187SAPI  H18Z21573   1.106  -0.352   8.749 -0.2663 -0.3189  0.2826
  188SAPI   C1221574   3.399   6.258   5.944 -0.8272 -0.5300 -0.3864
  188SAPI    H221575   3.412   6.149   5.959  2.7951 -0.3807 -1.4499
  188SAPI    O221576   3.494   6.300   5.843  0.3000  0.2038 -0.4444
  188SAPI   HO221577   3.537   6.220   5.812  0.6363  0.0378  0.4365
  188SAPI   C1321578   3.260   6.273   5.893  0.2176  0.1694  0.3031
  188SAPI    H321579   3.197   6.239   5.977  0.0174 -0.2086  0.0014
  188SAPI    O321580   3.236   6.190   5.777  0.3804  0.0983  0.2241
  188SAPI   HO321581   3.291   6.216   5.703 -0.5057  1.5913  0.0608
  188SAPI   C1421582   3.223   6.414   5.860 -0.0567  0.0148  0.6819
  188SAPI    H421583   3.299   6.461   5.794 -1.3871  2.4775  0.7719
  188SAPI    O421584   3.091   6.420   5.805 -0.2534 -0.8004  0.4873
  188SAPI   HO421585   3.086   6.363   5.728 -1.4973  0.2495 -0.2640
  188SAPI   C1521586   3.248   6.500   5.996 -0.1717  0.0386  0.9083
  188SAPI    H521587   3.177   6.451   6.065  0.7925 -2.5178  0.1935
  188SAPI    O521588   3.219   6.637   5.977 -0.1014 -0.1814  0.5760
  188SAPI   HO521589   3.196   6.679   6.060  0.5602  1.5195 -0.0477
  188SAPI   C1621590   3.391   6.473   6.057  0.2789 -0.4335  0.0083
  188SAPI    H621591   3.469   6.520   5.993  0.0003  2.1197  1.4352
  188SAPI    O621592   3.397   6.550   6.180  0.6291  1.0324 -0.3506
  188SAPI   HO621593   3.412   6.487   6.251 -3.8396 -2.4738 -1.9910
  188SAPI   C1121594   3.417   6.332   6.082  0.2850 -0.3861  0.3680
  188SAPI    H121595   3.343   6.279   6.146  0.5089  0.2406  1.1586
  188SAPI     P21596   3.594   6.281   6.282  0.0895 -0.3071  0.4936
  188SAPI   O1321597   3.728   6.339   6.307  0.3512  0.2823 -0.3914
  188SAPI   O1421598   3.577   6.137   6.290 -0.4435 -0.0740  0.4685
  188SAPI   O1221599   3.552   6.315   6.122  0.0015  0.3615 -0.3677
  188SAPI   O1121600   3.474   6.354   6.358  0.2744  0.1180  0.4296
  188SAPI    C121601   3.505   6.463   6.446 -0.6456 -0.4251 -0.4700
  188SAPI    HA21602   3.598   6.520   6.426 -1.0806  0.1078 -1.0050
  188SAPI    HB21603   3.427   6.541   6.436  0.9613  1.5224  1.3946
  188SAPI    C221604   3.505   6.426   6.601 -0.4035 -0.1011  0.3684
  188SAPI    HS21605   3.527   6.521   6.655  2.6482  0.6472 -1.9337
  188SAPI   O2121606   3.615   6.331   6.624  0.0056  0.5149  0.1556
  188SAPI   C2121607   3.733   6.388   6.625  0.6800  0.1884  0.1804
  188SAPI   O2221608   3.754   6.507   6.619 -0.3478  0.7127  0.1627
  188SAPI   C2221609   3.839   6.279   6.627 -0.5436  0.4878  0.9119
  188SAPI   H2R21610   3.804   6.175   6.612  2.2138 -0.5391  0.9654
  188SAPI   H2S21611   3.893   6.300   6.532 -0.2805 -2.5764  0.2832
  188SAPI    C321612   3.375   6.378   6.657 -0.2434  0.1638  0.9514
  188SAPI    HX21613   3.319   6.319   6.580 -2.3767  2.1135  0.9133
  188SAPI    HY21614   3.303   6.461   6.671  1.2129  1.0481  4.2101
  188SAPI   O3121615   3.373   6.318   6.784 -0.2320 -0.5605 -0.2908
  188SAPI   C3121616   3.414   6.193   6.781 -1.0192  0.0843  0.3219
  188SAPI   O3221617   3.400   6.110   6.687 -0.0723  0.1394 -0.1721
  188SAPI   C3221618   3.467   6.161   6.920 -0.1152 -0.1930  0.1965
  188SAPI   H2X21619   3.381   6.172   6.989 -0.6192  1.3240 -0.6263
  188SAPI   H2Y21620   3.545   6.235   6.946  0.7332 -0.3455 -1.6783
  188SAPI   C2321621   3.928   6.277   6.753 -0.0282 -0.2448 -0.2240
  188SAPI   H3R21622   3.869   6.301   6.844  1.5593 -0.1466  0.8338
  188SAPI   H3S21623   4.007   6.354   6.741  0.9198 -1.2641 -0.7123
  188SAPI   C2421624   4.002   6.143   6.764 -0.4247  0.5990 -0.1800
  188SAPI   H4R21625   4.073   6.160   6.848 -1.4138  0.6967  0.6631
  188SAPI   H4S21626   4.053   6.107   6.672 -2.2448 -1.0003 -0.6466
  188SAPI   C2521627   3.920   6.015   6.806 -0.2548 -1.0370 -0.5327
  188SAPI   H5R21628   3.845   5.982   6.733 -1.1082 -0.7271  0.1873
  188SAPI   C2621629   3.933   5.936   6.912  0.3986 -0.2694  0.3784
  188SAPI   H6R21630   3.854   5.860   6.923 -1.4648  1.2232 -1.8301
  188SAPI   C2721631   4.025   5.964   7.024  0.4340 -0.1800 -0.0522
  188SAPI   H7R21632   3.947   5.980   7.102  0.1223  1.1124 -0.5899
  188SAPI   H7S21633   4.082   6.059   7.028  0.2758 -0.1266  2.7078
  188SAPI   C2821634   4.113   5.846   7.075  0.4112 -0.4209 -0.1362
  188SAPI   H8R21635   4.220   5.872   7.069  0.0614  0.7800 -2.3402
  188SAPI   C2921636   4.075   5.726   7.133  0.2587 -0.3166  0.0705
  188SAPI   H9R21637   4.151   5.652   7.160  0.6591 -0.2035 -0.7019
  188SAPI  C21021638   3.925   5.686   7.148 -0.2817  0.1569  0.2025
  188SAPI  H10R21639   3.916   5.575   7.142 -1.5308  0.1942  1.0578
  188SAPI  H10S21640   3.869   5.725   7.061 -0.6356 -0.5681  0.0980
  188SAPI  C21121641   3.884   5.737   7.282  0.8667 -0.5827 -0.5812
  188SAPI  H11R21642   3.867   5.846   7.276  0.8355 -0.6240 -1.4188
  188SAPI  C21221643   3.850   5.671   7.394 -0.3008 -0.0809  0.3361
  188SAPI  H12R21644   3.818   5.727   7.483 -0.6955  1.7692 -0.9292
  188SAPI  C21321645   3.848   5.522   7.409 -0.3474 -0.8862  0.0458
  188SAPI  H13R21646   3.849   5.460   7.317  1.5188 -0.4499 -0.2640
  188SAPI  H13S21647   3.746   5.498   7.446  0.1807 -1.7559  0.9809
  188SAPI  C21421648   3.936   5.462   7.506  0.5209  0.3383 -0.1299
  188SAPI  H14R21649   4.032   5.424   7.470  0.3642  0.1343 -0.3287
  188SAPI  C21521650   3.908   5.450   7.642 -0.6510  0.3064  0.5926
  188SAPI  H15R21651   3.985   5.403   7.705  0.5123 -2.8270 -2.7871
  188SAPI  C21621652   3.790   5.483   7.727 -0.4465 -0.2319  0.5482
  188SAPI  H16R21653   3.739   5.391   7.760  1.1195 -1.8639 -1.2831
  188SAPI  H16S21654   3.719   5.542   7.665  0.2322 -0.9965 -1.0159
  188SAPI  C21721655   3.829   5.569   7.855 -0.0800 -0.5658 -0.2161
  188SAPI  H17R21656   3.734   5.613   7.893 -0.8615 -1.4094 -1.1082
  188SAPI  H17S21657   3.901   5.649   7.829 -2.0947  0.8656 -1.7776
  188SAPI  C21821658   3.876   5.476   7.965  0.4587 -0.1308 -1.1800
  188SAPI  H18R21659   3.960   5.416   7.923  0.1758 -0.5790 -1.1165
  188SAPI  H18S21660   3.794   5.402   7.983  0.1258  0.9014  2.4783
  188SAPI  C21921661   3.912   5.559   8.088  0.3479  0.3707 -0.0507
  188SAPI  H19R21662   3.901   5.490   8.174 -0.8342 -1.5669 -1.6711
  188SAPI  H19S21663   3.847   5.648   8.105  0.1758  0.0975  0.7651
  188SAPI  C22021664   4.060   5.614   8.077  0.8138  0.1185 -0.7456
  188SAPI  H20R21665   4.070   5.700   8.007  0.3810  0.5534 -0.2835
  188SAPI  H20S21666   4.129   5.539   8.033  0.5034  0.4310 -1.8069
  188SAPI  H20T21667   4.094   5.658   8.173 -1.7010  0.2724  0.1547
  188SAPI   C3321668   3.522   6.017   6.935 -1.3864  0.8162 -0.4371
  188SAPI   H3X21669   3.591   5.995   6.850 -0.3988 -0.2985  0.6149
  188SAPI   H3Y21670   3.445   5.937   6.940 -0.8539  0.3746  2.4328
  188SAPI   C3421671   3.608   6.009   7.058  0.8130  0.0645 -0.5696
  188SAPI   H4X21672   3.700   6.071   7.057  0.4612  0.5848 -0.6263
  188SAPI   H4Y21673   3.635   5.901   7.055 -0.3308 -0.2272 -0.7822
  188SAPI   C3521674   3.541   6.032   7.195 -0.1151  0.0293  0.4715
  188SAPI   H5X21675   3.451   5.968   7.208 -0.4405 -0.2633 -2.5353
  188SAPI   H5Y21676   3.508   6.138   7.194  0.1777  0.1261 -0.8978
  188SAPI   C3621677   3.630   6.005   7.319 -0.2904  0.1943  0.3329
  188SAPI   H6X21678   3.730   6.053   7.326  0.2873 -1.1658  2.1237
  188SAPI   H6Y21679   3.655   5.896   7.320 -1.5848 -0.1146  1.5113
  188SAPI   C3721680   3.545   6.039   7.442 -0.4329  0.2758  0.6540
  188SAPI   H7X21681   3.448   5.985   7.444 -0.5471  0.3295 -1.5252
  188SAPI   H7Y21682   3.516   6.146   7.440  0.9356  0.6641  0.4456
  188SAPI   C3821683   3.615   6.022   7.577 -0.5164 -0.2753 -0.2560
  188SAPI   H8X21684   3.721   6.054   7.564 -0.3036 -0.4817  0.9049
  188SAPI   H8Y21685   3.624   5.914   7.604  0.9054 -0.3191 -0.7804
  188SAPI   C3921686   3.555   6.095   7.691  1.4123  0.0525  0.3638
  188SAPI   H9X21687   3.466   6.038   7.726  1.1316  0.1338 -0.2054
  188SAPI   H9Y21688   3.512   6.193   7.662  0.0315 -1.0817 -1.7174
  188SAPI  C31021689   3.631   6.103   7.823  0.3925 -0.3022  1.1508
  188SAPI  H10X21690   3.696   6.192   7.835  0.0907  0.0702  0.1144
  188SAPI  H10Y21691   3.700   6.016   7.825  0.4330 -0.3110 -0.1151
  188SAPI  C31121692   3.550   6.101   7.943  0.0916  0.0260  0.5032
  188SAPI  H11X21693   3.618   6.070   8.025 -1.2245  0.4372  1.7861
  188SAPI  H11Y21694   3.465   6.028   7.941  1.3960 -1.6123  2.1167
  188SAPI  C31221695   3.507   6.240   7.981 -0.3107  0.2156  0.3659
  188SAPI  H12X21696   3.467   6.281   7.886  0.5196 -0.9568 -0.5135
  188SAPI  H12Y21697   3.598   6.292   8.017  0.6972  0.3423 -2.1593
  188SAPI  C31321698   3.400   6.244   8.096  0.5782 -0.3342  0.4349
  188SAPI  H13X21699   3.307   6.228   8.037 -0.5863  1.0586  1.7868
  188SAPI  H13Y21700   3.388   6.348   8.132  0.4716 -0.3695  0.5033
  188SAPI  C31421701   3.413   6.150   8.210  1.3657 -0.9194  0.4882
  188SAPI  H14X21702   3.434   6.045   8.181 -0.1266 -1.1972  0.3094
  188SAPI  H14Y21703   3.330   6.147   8.284 -0.4369  1.1492 -1.2595
  188SAPI  C31521704   3.532   6.193   8.297  0.4669  0.0322 -0.4932
  188SAPI  H15X21705   3.503   6.291   8.340 -0.2056  0.3028 -1.5141
  188SAPI  H15Y21706   3.616   6.223   8.231  0.4448 -0.0963 -0.5824
  188SAPI  C31621707   3.581   6.073   8.378  0.2624  0.3821  0.3297
  188SAPI  H16X21708   3.597   5.993   8.303 -0.0348  0.1852  0.4746
  188SAPI  H16Y21709   3.507   6.023   8.444  1.6173 -2.2102 -0.0078
  188SAPI  C31721710   3.709   6.087   8.459 -0.2478 -0.2486  0.5302
  188SAPI  H17X21711   3.700   6.160   8.542 -0.3493 -0.7807  0.9966
  188SAPI  H17Y21712   3.786   6.125   8.389 -2.5728 -0.3491 -2.2786
  188SAPI  C31821713   3.773   5.960   8.513  0.3361 -0.2131  0.0650
  188SAPI  H18X21714   3.694   5.910   8.574 -0.6847  0.4131 -0.6989
  188SAPI  H18Y21715   3.871   5.986   8.556  1.4162  0.1605 -2.4457
  188SAPI  H18Z21716   3.797   5.891   8.429 -1.0592  1.8490 -2.1731
  189POPC     N21717   0.986   2.951  11.213 -0.4661 -0.4829 -0.5979
  189POPC   C1221718   1.022   2.811  11.183  0.0878  0.1387 -0.3991
  189POPC  H12A21719   0.991   2.788  11.082  1.4316  0.8586 -1.0082
  189POPC  H12B21720   0.971   2.737  11.242  1.8019 -1.6480 -1.0475
  189POPC   C1321721   1.068   3.045  11.137  0.3013 -0.2750 -0.2567
  189POPC  H13A21722   1.051   3.151  11.153  0.4256 -0.3509  0.4163
  189POPC  H13B21723   1.171   3.021  11.159  0.9110  0.3657 -2.2160
  189POPC  H13C21724   1.059   3.024  11.032 -0.2134 -0.6916 -0.1317
  189POPC   C1421725   0.843   2.989  11.178  0.0077 -0.3378  0.6590
  189POPC  H14A21726   0.773   2.956  11.252  0.1014 -3.1191 -0.3862
  189POPC  H14B21727   0.831   3.096  11.167  2.6034  0.0668  1.1586
  189POPC  H14C21728   0.819   2.945  11.082  1.2257 -1.5948  0.9055
  189POPC   C1521729   1.019   2.974  11.354  0.8631 -0.1406 -0.6159
  189POPC  H15A21730   1.002   3.077  11.381  1.1212  0.6535 -3.2472
  189POPC  H15B21731   1.124   2.960  11.375  0.3317 -0.6165  2.1723
  189POPC  H15C21732   0.966   2.902  11.414 -0.0191 -1.9446 -3.3790
  189POPC   C1121733   1.170   2.774  11.194 -0.2529  0.2963 -0.3165
  189POPC  H11A21734   1.177   2.666  11.170 -1.8112  0.6434 -2.7650
  189POPC  H11B21735   1.210   2.788  11.297  0.3351  0.4454 -0.5583
  189POPC     P21736   1.299   2.784  10.971 -0.3164  0.3551 -0.3166
  189POPC   O1321737   1.197   2.694  10.904  0.1413 -0.1444 -0.0738
  189POPC   O1421738   1.423   2.711  11.008  0.4396 -0.4868  0.3606
  189POPC   O1221739   1.238   2.848  11.093  0.0584 -0.1841 -0.1986
  189POPC   O1121740   1.331   2.902  10.874  0.6926  0.0990 -0.4347
  189POPC    C121741   1.399   2.885  10.753 -0.8225 -0.3544  0.0723
  189POPC    HA21742   1.460   2.793  10.739 -0.2162  0.3030 -1.9665
  189POPC    HB21743   1.461   2.975  10.731  2.2319 -2.3535 -0.1970
  189POPC    C221744   1.293   2.870  10.636 -0.1314  0.4983  0.7217
  189POPC    HS21745   1.247   2.769  10.644  0.7534  0.1961  2.3927
  189POPC   O2121746   1.364   2.877  10.512 -0.8202 -0.3235 -0.1934
  189POPC   C2121747   1.420   2.776  10.457 -0.0053  0.2365 -0.0092
  189POPC   O2221748   1.432   2.664  10.507  0.1207 -0.2539  0.0457
  189POPC   C2221749   1.452   2.802  10.308  0.0863  0.4444 -0.0080
  189POPC   H2R21750   1.502   2.902  10.310  0.4577  0.2611 -0.0370
  189POPC   H2S21751   1.356   2.798  10.252 -0.8602 -2.8818  1.6056
  189POPC    C321752   1.175   2.972  10.655 -0.2084  0.3729  0.1145
  189POPC    HX21753   1.231   3.067  10.668  0.4154 -0.3802  3.9275
  189POPC    HY21754   1.117   2.943  10.745  1.8210 -1.4454  0.9114
  189POPC   O3121755   1.099   2.989  10.531  0.3733  0.5469 -0.4682
  189POPC   C3121756   1.000   2.902  10.511  0.4714 -0.5917 -0.4775
  189POPC   O3221757   0.966   2.817  10.590  0.3975 -0.8619 -0.3575
  189POPC   C3221758   0.941   2.926  10.369  0.5124  0.3857  0.5222
  189POPC   H2X21759   0.908   3.032  10.363  2.3717  0.9766  0.2264
  189POPC   H2Y21760   0.844   2.872  10.362  1.3680 -1.3431  1.4550
  189POPC   C2321761   1.547   2.693  10.253  0.6378 -0.0929  0.4308
  189POPC   H3R21762   1.503   2.592  10.268  2.4312 -0.6488  2.4559
  189POPC   H3S21763   1.643   2.705  10.307 -0.1587  2.1094  1.4551
  189POPC   C2421764   1.565   2.715  10.101  1.1549  0.0773 -0.9543
  189POPC   H4R21765   1.652   2.655  10.067  2.1538 -0.2686  1.9418
  189POPC   H4S21766   1.591   2.821  10.080  1.6774  0.0706 -0.3553
  189POPC   C2521767   1.444   2.674  10.020  0.0421 -0.0221 -0.1986
  189POPC   H5R21768   1.380   2.764  10.013  1.0681  0.8460  1.1162
  189POPC   H5S21769   1.390   2.598  10.080  0.7885 -0.8143 -0.4996
  189POPC   C2621770   1.480   2.621   9.879 -0.2487 -0.4121  0.5900
  189POPC   H6R21771   1.555   2.540   9.891 -0.2954 -0.4864  0.3950
  189POPC   H6S21772   1.514   2.706   9.816  1.9938  1.1584  3.7098
  189POPC   C2721773   1.349   2.551   9.820 -0.0293  0.4326 -0.8465
  189POPC   H7R21774   1.261   2.618   9.829  0.2072  0.4624  2.2255
  189POPC   H7S21775   1.332   2.473   9.897  0.5734  0.6997 -0.4291
  189POPC   C2821776   1.376   2.492   9.679 -0.2853  0.3073  0.1114
  189POPC   H8R21777   1.280   2.450   9.642  0.1415  0.7502 -1.5827
  189POPC   H8S21778   1.449   2.410   9.700 -0.3750  0.0367 -0.6073
  189POPC   C2921779   1.421   2.596   9.581 -0.5059 -0.8314 -0.3799
  189POPC   H9121780   1.383   2.698   9.597 -0.7389 -1.2100  1.6907
  189POPC  C21021781   1.496   2.575   9.474  0.4473  0.2786  0.2849
  189POPC  H10121782   1.536   2.659   9.415 -0.6833  0.5569 -0.1021
  189POPC  C21121783   1.542   2.440   9.435 -0.2432 -0.5877  0.1021
  189POPC  H11R21784   1.467   2.371   9.478 -1.3899  1.3944  1.4129
  189POPC  H11S21785   1.641   2.431   9.485  0.2492  0.1848 -0.6929
  189POPC  C21221786   1.578   2.414   9.283  0.6312  0.8256  0.6399
  189POPC  H12R21787   1.593   2.304   9.280  0.1208  0.7418  1.0880
  189POPC  H12S21788   1.679   2.456   9.265  1.3087  0.4910  3.1999
  189POPC  C21321789   1.478   2.468   9.179 -0.1828 -0.3321 -0.1297
  189POPC  H13R21790   1.509   2.573   9.157 -1.1103  0.2432  1.1575
  189POPC  H13S21791   1.377   2.466   9.225 -0.1172 -0.9814 -0.0138
  189POPC  C21421792   1.479   2.390   9.049 -0.2122  0.0933  0.2014
  189POPC  H14R21793   1.466   2.281   9.067 -1.4381 -0.0091 -1.1009
  189POPC  H14S21794   1.586   2.396   9.017 -0.7766 -0.2610 -1.9073
  189POPC  C21521795   1.376   2.435   8.944  0.5244 -0.3822 -0.3308
  189POPC  H15R21796   1.381   2.540   8.909 -1.3306 -1.0240 -2.8344
  189POPC  H15S21797   1.283   2.439   9.003  0.1709 -1.1235 -0.8264
  189POPC  C21621798   1.355   2.339   8.829  1.1186 -0.8914 -0.6796
  189POPC  H16R21799   1.321   2.240   8.865 -0.6654  0.5070  1.8716
  189POPC  H16S21800   1.451   2.326   8.775  0.9981 -0.2588 -1.0540
  189POPC  C21721801   1.228   2.386   8.750 -0.3106  0.0264  0.0133
  189POPC  H17R21802   1.250   2.485   8.706 -0.7070 -1.0660 -2.8990
  189POPC  H17S21803   1.133   2.367   8.804 -1.2330 -0.0369 -1.5563
  189POPC  C21821804   1.202   2.298   8.627 -0.6594  0.2512  0.7407
  189POPC  H18R21805   1.115   2.340   8.573 -0.0054  0.6266 -0.0605
  189POPC  H18S21806   1.186   2.192   8.653 -0.3685 -0.1970 -0.7863
  189POPC  H18T21807   1.286   2.305   8.554 -1.8580 -3.4277 -1.2549
  189POPC   C3321808   1.037   2.902  10.256 -0.1207  0.2781 -0.1682
  189POPC   H3X21809   1.062   2.794  10.262 -0.7357  0.1410 -0.0022
  189POPC   H3Y21810   1.129   2.963  10.264 -0.2503  0.4733 -0.1493
  189POPC   C3421811   0.962   2.921  10.129  0.0518  0.5822  0.7813
  189POPC   H4X21812   0.933   3.028  10.118 -2.4716 -0.0685  0.4324
  189POPC   H4Y21813   0.867   2.865  10.120  0.8608 -0.6818 -0.1763
  189POPC   C3521814   1.041   2.871  10.012 -1.0142 -0.0767  0.8100
  189POPC   H5X21815   1.087   2.771  10.031 -0.1882 -0.5465 -2.8911
  189POPC   H5Y21816   1.125   2.942   9.996 -2.3428  1.9301  2.3297
  189POPC   C3621817   0.960   2.860   9.886  0.4878  0.0071 -0.3937
  189POPC   H6X21818   0.958   2.953   9.825 -0.2628  0.5267  0.3900
  189POPC   H6Y21819   0.856   2.826   9.906 -0.1055  2.2562  0.7443
  189POPC   C3721820   1.027   2.773   9.775  0.2844  0.6893 -0.3524
  189POPC   H7X21821   1.030   2.667   9.808  2.2033  0.0071 -2.4697
  189POPC   H7Y21822   1.134   2.795   9.754  0.5607 -0.6155 -0.4276
  189POPC   C3821823   0.942   2.780   9.653 -0.5737  0.7386  0.3276
  189POPC   H8X21824   0.929   2.884   9.617 -0.9944  0.5755  0.0020
  189POPC   H8Y21825   0.841   2.736   9.664 -0.7761  1.4284  1.3106
  189POPC   C3921826   1.011   2.708   9.536 -0.1022 -0.7383 -0.1209
  189POPC   H9X21827   1.032   2.602   9.562  0.4611 -0.4361  0.6766
  189POPC   H9Y21828   1.114   2.746   9.522 -0.4526  0.0968 -0.5097
  189POPC  C31021829   0.938   2.711   9.397 -0.1259  0.1345  0.7450
  189POPC  H10X21830   0.924   2.818   9.370 -0.5194 -0.3221 -1.0405
  189POPC  H10Y21831   0.837   2.665   9.401 -0.5421  0.9285 -0.1576
  189POPC  C31121832   1.026   2.644   9.292  0.5470  0.6059  0.4266
  189POPC  H11X21833   1.025   2.537   9.322 -0.0579  0.8020  1.1552
  189POPC  H11Y21834   1.125   2.693   9.295 -0.1661  2.1551 -0.0877
  189POPC  C31221835   0.957   2.663   9.154 -0.3554  0.0536 -0.4481
  189POPC  H12X21836   0.978   2.767   9.121 -0.5806 -0.0526 -0.9402
  189POPC  H12Y21837   0.852   2.641   9.183  0.2365  0.5594  2.3689
  189POPC  C31321838   1.009   2.568   9.046 -0.0070  0.4570 -0.0887
  189POPC  H13X21839   1.034   2.464   9.075  0.3735  0.8933  1.1989
  189POPC  H13Y21840   1.106   2.614   9.014  0.4100 -0.0921  0.3765
  189POPC  C31421841   0.916   2.542   8.925  0.1376  0.4271 -0.5405
  189POPC  H14X21842   0.826   2.484   8.955 -0.8537  1.3711 -1.5941
  189POPC  H14Y21843   0.975   2.479   8.855  2.5511  0.7511  1.1028
  189POPC  C31521844   0.866   2.667   8.849 -0.2041 -0.1993 -0.2065
  189POPC  H15X21845   0.799   2.739   8.902  0.7253  0.6079 -0.0923
  189POPC  H15Y21846   0.804   2.624   8.768 -1.3721 -2.3960  1.7201
  189POPC  C31621847   0.970   2.756   8.787 -0.1540 -0.2633 -0.1161
  189POPC  H16X21848   1.042   2.800   8.858 -0.7187 -1.7401  1.4404
  189POPC  H16Y21849   0.915   2.832   8.727  0.8808 -0.0458 -0.8164
  189POPC  H16Z21850   1.033   2.705   8.710 -0.1485  1.0121 -0.9863
  190POPC     N21851   4.894   1.177  10.954  0.7617  0.3100 -0.1658
  190POPC   C1221852   5.040   1.216  10.932  0.1553  0.0154  0.0260
  190POPC  H12A21853   5.082   1.179  10.839  0.5408  1.5757 -0.4374
  190POPC  H12B21854   5.104   1.167  11.004 -0.1757  0.2286  0.4627
  190POPC   C1321855   4.859   1.206  11.099  0.5540 -0.5700 -0.2485
  190POPC  H13A21856   4.901   1.130  11.164 -1.9347 -1.5107  0.3868
  190POPC  H13B21857   4.896   1.304  11.122 -1.2249 -0.0806  0.6810
  190POPC  H13C21858   4.753   1.205  11.118  0.4198  1.6564 -0.6129
  190POPC   C1421859   4.809   1.262  10.861 -0.1377  0.1137 -0.0354
  190POPC  H14A21860   4.789   1.362  10.897  0.8256  0.3114 -0.0126
  190POPC  H14B21861   4.864   1.276  10.770  2.4937 -0.0473  1.4163
  190POPC  H14C21862   4.711   1.219  10.850 -0.3465  0.1076  1.6077
  190POPC   C1521863   4.882   1.037  10.919 -0.6787 -0.6174  0.2550
  190POPC  H15A21864   4.942   0.969  10.979 -0.7028 -2.6182 -1.8379
  190POPC  H15B21865   4.902   1.019  10.814  1.1374  2.5229 -0.0463
  190POPC  H15C21866   4.778   1.011  10.933 -1.6140  2.1200 -1.0135
  190POPC   C1121867   5.081   1.370  10.923 -0.1740 -0.6827  0.7901
  190POPC  H11A21868   5.045   1.421  10.831  1.1580  2.4734  1.8829
  190POPC  H11B21869   5.192   1.368  10.926 -0.1681  0.1266  2.2721
  190POPC     P21870   4.984   1.587  11.034 -0.0126  0.4075 -0.4884
  190POPC   O1321871   5.056   1.680  10.941  0.0849  0.0214 -0.4752
  190POPC   O1421872   4.954   1.619  11.174 -0.5349 -0.3229 -0.1219
  190POPC   O1221873   5.050   1.447  11.034 -0.6187 -0.6339  0.4490
  190POPC   O1121874   4.845   1.561  10.966  0.1010  0.8601 -0.0422
  190POPC    C121875   4.762   1.671  10.921  0.0615 -0.0892  0.2029
  190POPC    HA21876   4.820   1.766  10.924  0.0037  0.0874 -2.1550
  190POPC    HB21877   4.681   1.691  10.994  2.2129 -0.3447  2.8270
  190POPC    C221878   4.687   1.655  10.785  0.1330 -0.3491  0.2168
  190POPC    HS21879   4.632   1.751  10.770  0.4117 -0.3548 -0.9568
  190POPC   O2121880   4.611   1.533  10.777  0.3005 -0.0090 -0.0368
  190POPC   C2121881   4.491   1.541  10.820 -0.3763 -0.0605 -0.5395
  190POPC   O2221882   4.428   1.645  10.846  0.3511 -0.3840 -0.5326
  190POPC   C2221883   4.442   1.398  10.833 -0.5513  0.5141 -0.3486
  190POPC   H2R21884   4.332   1.392  10.848 -0.6996  4.5030  1.3300
  190POPC   H2S21885   4.498   1.355  10.919  0.4316 -1.8554 -2.0495
  190POPC    C321886   4.787   1.642  10.669  0.2627 -0.3836  0.2092
  190POPC    HX21887   4.860   1.558  10.669 -0.4950 -1.0986 -1.6773
  190POPC    HY21888   4.847   1.735  10.672 -0.4034  0.0611 -0.0048
  190POPC   O3121889   4.721   1.646  10.538  0.5248 -0.8801 -0.3633
  190POPC   C3121890   4.713   1.538  10.460 -0.0677  0.4452  0.0983
  190POPC   O3221891   4.764   1.432  10.493 -0.1151 -0.0382  0.2232
  190POPC   C3221892   4.626   1.564  10.342 -0.1049 -0.3249 -0.3163
  190POPC   H2X21893   4.632   1.669  10.307 -0.2631 -0.2622 -0.1558
  190POPC   H2Y21894   4.521   1.557  10.378 -0.5632  3.3023 -0.5753
  190POPC   C2321895   4.478   1.311  10.706 -0.6660  0.5234  0.1522
  190POPC   H3R21896   4.447   1.206  10.727 -0.2358  0.6732  1.6809
  190POPC   H3S21897   4.586   1.315  10.682 -0.9667 -0.9663 -1.6718
  190POPC   C2421898   4.401   1.343  10.587  0.8806  0.5115 -0.1450
  190POPC   H4R21899   4.422   1.444  10.545  0.8139  0.6729  0.2122
  190POPC   H4S21900   4.292   1.342  10.609  0.7199  2.8222 -0.6268
  190POPC   C2521901   4.429   1.233  10.477  0.1407 -0.1614 -0.7386
  190POPC   H5R21902   4.402   1.137  10.526  1.0749 -0.7222 -1.2936
  190POPC   H5S21903   4.540   1.228  10.467  0.6035  0.6500  2.7007
  190POPC   C2621904   4.352   1.258  10.352 -0.5992 -0.2283  0.2700
  190POPC   H6R21905   4.385   1.362  10.329  1.1259 -0.8705 -0.2928
  190POPC   H6S21906   4.241   1.255  10.367 -1.0649  2.2428 -1.9903
  190POPC   C2721907   4.389   1.164  10.237  0.5027  0.4043  0.3989
  190POPC   H7R21908   4.359   1.063  10.272  0.6613  0.3278  0.3130
  190POPC   H7S21909   4.500   1.164  10.230  0.4123  1.0132 -1.9083
  190POPC   C2821910   4.317   1.199  10.112  0.0832 -0.0417  0.0541
  190POPC   H8R21911   4.365   1.148  10.026 -1.2860 -0.5659 -0.4277
  190POPC   H8S21912   4.325   1.307  10.089  0.3134 -0.7697 -3.9497
  190POPC   C2921913   4.166   1.167  10.112 -0.6157 -0.0196  0.9948
  190POPC   H9121914   4.099   1.254  10.124  1.2351  1.3554  1.9300
  190POPC  C21021915   4.106   1.063  10.047  0.6394 -0.2983  0.6177
  190POPC  H10121916   3.997   1.055  10.059  0.2875  0.4420 -1.6951
  190POPC  C21121917   4.181   0.942   9.995 -0.2128  0.4647  0.5805
  190POPC  H11R21918   4.143   0.865  10.065 -2.9509  1.7529  0.6452
  190POPC  H11S21919   4.291   0.941  10.010 -0.1417  0.5210  0.0679
  190POPC  C21221920   4.167   0.909   9.847 -0.4690  0.4094  0.3480
  190POPC  H12R21921   4.063   0.900   9.810 -0.0993  1.9156 -1.1628
  190POPC  H12S21922   4.208   0.807   9.829 -0.3487  0.7179 -1.3199
  190POPC  C21321923   4.255   1.009   9.764 -0.3079  0.3967  0.1351
  190POPC  H13R21924   4.359   0.981   9.789 -0.2054 -0.8192 -1.4266
  190POPC  H13S21925   4.233   1.114   9.791  0.9473  0.6604  0.1800
  190POPC  C21421926   4.228   0.997   9.611 -0.7010 -0.3603  0.0499
  190POPC  H14R21927   4.121   1.020   9.594 -0.2851  0.6765 -1.2947
  190POPC  H14S21928   4.251   0.893   9.580  0.5942 -0.0227 -0.1862
  190POPC  C21521929   4.317   1.086   9.526 -0.0717 -0.0754 -0.0063
  190POPC  H15R21930   4.422   1.063   9.552  0.2012 -0.6091 -1.4867
  190POPC  H15S21931   4.294   1.195   9.526 -0.3407 -0.1189 -1.0956
  190POPC  C21621932   4.316   1.045   9.373  0.7720  0.5759  0.2551
  190POPC  H16R21933   4.370   1.116   9.308  0.8130  0.6869  0.4095
  190POPC  H16S21934   4.208   1.050   9.347  0.9884 -2.7629 -2.0158
  190POPC  C21721935   4.370   0.902   9.362  0.1771 -0.4738  0.9701
  190POPC  H17R21936   4.292   0.824   9.375  1.5840 -1.8209  1.7796
  190POPC  H17S21937   4.435   0.884   9.450 -0.0851 -1.9343  0.8988
  190POPC  C21821938   4.436   0.885   9.229  0.3822 -0.4822 -0.1767
  190POPC  H18R21939   4.373   0.933   9.151 -1.3539  0.7353  1.8460
  190POPC  H18S21940   4.434   0.779   9.194  0.3248 -1.0082  1.3179
  190POPC  H18T21941   4.539   0.924   9.215 -0.4179  1.1684 -1.8879
  190POPC   C3321942   4.635   1.456  10.236  0.2363  0.5567 -0.6477
  190POPC   H3X21943   4.583   1.365  10.273 -0.5335  0.6356 -1.4810
  190POPC   H3Y21944   4.738   1.430  10.204  0.4399 -0.8421  1.0110
  190POPC   C3421945   4.567   1.497  10.108  0.1739  0.6952 -0.2007
  190POPC   H4X21946   4.599   1.597  10.070  2.2071 -1.0151 -3.4147
  190POPC   H4Y21947   4.460   1.521  10.126  0.2702 -0.2244  1.9550
  190POPC   C3521948   4.605   1.387  10.006  0.1957 -0.6756 -0.4240
  190POPC   H5X21949   4.570   1.286  10.035  1.1522 -1.0005 -0.3637
  190POPC   H5Y21950   4.715   1.378   9.994  0.1561  0.4756 -1.8286
  190POPC   C3621951   4.527   1.421   9.881  0.2581 -0.2497  0.6877
  190POPC   H6X21952   4.577   1.500   9.820 -0.9579 -0.8392 -1.1674
  190POPC   H6Y21953   4.428   1.461   9.913  1.4327  0.9598  3.0916
  190POPC   C3721954   4.508   1.297   9.791  0.6366 -0.2641  0.2816
  190POPC   H7X21955   4.403   1.308   9.755  0.4196 -2.9655 -0.1093
  190POPC   H7Y21956   4.502   1.199   9.843 -1.2600 -0.5699 -0.4097
  190POPC   C3821957   4.597   1.297   9.664  0.2184 -0.7747  0.2724
  190POPC   H8X21958   4.592   1.201   9.609  3.4511 -0.2797 -1.0732
  190POPC   H8Y21959   4.698   1.322   9.702 -0.2226 -1.8923  2.3469
  190POPC   C3921960   4.566   1.415   9.559 -0.0864  0.4138 -0.0639
  190POPC   H9X21961   4.599   1.513   9.600 -0.1916  0.5074 -0.1997
  190POPC   H9Y21962   4.457   1.428   9.542 -0.0963 -1.3370 -1.6731
  190POPC  C31021963   4.639   1.401   9.426  0.5274  0.1621 -0.2518
  190POPC  H10X21964   4.744   1.369   9.444  0.5156  0.6078  0.6710
  190POPC  H10Y21965   4.636   1.496   9.369 -2.2283  0.3454  0.0876
  190POPC  C31121966   4.580   1.291   9.334  0.2943 -0.8043 -0.4993
  190POPC  H11X21967   4.470   1.281   9.335  0.3935 -2.1861 -0.9598
  190POPC  H11Y21968   4.622   1.190   9.357  0.2734 -0.6753  0.1158
  190POPC  C31221969   4.630   1.319   9.190  0.6551 -0.4317 -0.4272
  190POPC  H12X21970   4.719   1.386   9.196  0.0320  0.2503  1.7368
  190POPC  H12Y21971   4.555   1.378   9.133  1.3605  0.7380 -0.1862
  190POPC  C31321972   4.660   1.191   9.109  0.0690  0.3811  0.1198
  190POPC  H13X21973   4.570   1.132   9.081  0.1587  0.4899 -0.4069
  190POPC  H13Y21974   4.716   1.126   9.180 -0.4314  1.0932  1.1865
  190POPC  C31421975   4.755   1.225   8.990  0.0818  0.7605 -0.8417
  190POPC  H14X21976   4.847   1.275   9.027  0.0159  0.2950  0.0079
  190POPC  H14Y21977   4.699   1.292   8.922 -1.7104 -0.0796 -0.2762
  190POPC  C31521978   4.796   1.098   8.917 -0.7292  0.6836  0.8300
  190POPC  H15X21979   4.707   1.059   8.863  0.1385  1.0423 -0.9315
  190POPC  H15Y21980   4.827   1.026   8.995  0.9707  1.4969  0.9403
  190POPC  C31621981   4.907   1.111   8.809  0.0485  0.2303 -0.3067
  190POPC  H16X21982   4.904   1.022   8.743 -1.7934  0.2151 -0.2484
  190POPC  H16Y21983   5.006   1.129   8.856 -0.0627 -0.5822  0.2467
  190POPC  H16Z21984   4.879   1.197   8.744 -0.6643 -0.3160 -0.7376
  191POPC     N21985   4.715   5.194   6.283 -0.2057 -0.1681  0.1562
  191POPC   C1221986   4.697   5.068   6.368 -0.1455  0.2307  0.4511
  191POPC  H12A21987   4.710   4.978   6.311 -0.4069  0.0086  0.7432
  191POPC  H12B21988   4.601   5.059   6.415  0.5693 -0.3866  1.8490
  191POPC   C1321989   4.590   5.209   6.202 -0.2026 -0.5108  0.6089
  191POPC  H13A21990   4.507   5.195   6.269  0.1326 -2.0489  0.7351
  191POPC  H13B21991   4.591   5.307   6.155 -3.0441 -0.9191 -0.5266
  191POPC  H13C21992   4.591   5.135   6.123  2.3613  0.4715 -0.3991
  191POPC   C1421993   4.727   5.316   6.364 -0.3005 -0.1113 -0.3413
  191POPC  H14A21994   4.630   5.330   6.410  0.1887 -1.4448  1.2073
  191POPC  H14B21995   4.802   5.292   6.438  0.8049 -2.7007 -2.1506
  191POPC  H14C21996   4.751   5.403   6.304 -0.0789  0.0125 -0.0815
  191POPC   C1521997   4.834   5.186   6.204  0.4406 -0.3165  0.1748
  191POPC  H15A21998   4.869   5.271   6.147  1.3267 -1.0700 -0.4494
  191POPC  H15B21999   4.834   5.101   6.139 -1.5273 -0.1195 -0.1365
  191POPC  H15C22000   4.909   5.178   6.282  1.3944 -0.6901 -0.7612
  191POPC   C1122001   4.802   5.043   6.476  0.7142 -0.1878  0.3642
  191POPC  H11A22002   4.773   4.969   6.554 -0.9533  0.9595  0.8835
  191POPC  H11B22003   4.817   5.138   6.532 -1.0958 -0.4748  1.4243
  191POPC     P22004   4.934   4.864   6.337 -0.0088 -0.6749 -0.0804
  191POPC   O1322005   5.034   4.883   6.232 -0.0941  0.5867  0.4477
  191POPC   O1422006   4.801   4.807   6.302  0.7411 -0.0846  0.1812
  191POPC   O1222007   4.923   5.001   6.416  0.1654  0.5381  0.0579
  191POPC   O1122008   4.997   4.772   6.448  0.1734 -0.9578  0.4526
  191POPC    C122009   5.064   4.838   6.554  0.6893 -0.8870 -0.0329
  191POPC    HA22010   5.001   4.884   6.632  0.9458  0.5695 -0.6567
  191POPC    HB22011   5.117   4.929   6.521  0.3802 -1.1128 -1.1837
  191POPC    C222012   5.168   4.740   6.627  0.4239 -0.4779 -0.2394
  191POPC    HS22013   5.221   4.688   6.545 -1.2694 -1.7334 -0.6100
  191POPC   O2122014   5.096   4.636   6.694  0.3399  0.1593 -0.7459
  191POPC   C2122015   5.172   4.525   6.719 -0.5580 -0.1084 -0.4508
  191POPC   O2222016   5.292   4.520   6.704  0.4689  0.1377  0.1725
  191POPC   C2222017   5.073   4.409   6.766  0.4415 -0.0514  0.2770
  191POPC   H2R22018   5.009   4.382   6.680 -1.3678  1.9579  0.9006
  191POPC   H2S22019   5.003   4.456   6.838  1.7056  1.0945  0.7969
  191POPC    C322020   5.255   4.820   6.726  0.4966 -0.1845  0.4979
  191POPC    HX22021   5.308   4.894   6.663  1.1212 -1.5081 -0.5622
  191POPC    HY22022   5.340   4.763   6.769 -0.3962  0.2401  3.0008
  191POPC   O3122023   5.184   4.899   6.826  0.0508 -0.5905 -0.0765
  191POPC   C3122024   5.133   4.832   6.928  0.5952  0.5225 -0.3513
  191POPC   O3222025   5.164   4.717   6.954  0.2877  0.0504  0.2189
  191POPC   C3222026   5.035   4.922   7.004  0.5120  0.6504 -0.3039
  191POPC   H2X22027   4.943   4.934   6.943 -1.4194 -0.3552  2.2500
  191POPC   H2Y22028   5.084   5.020   7.025  1.9709 -0.3222  1.0228
  191POPC   C2322029   5.158   4.290   6.823 -0.5195  0.2471 -0.1408
  191POPC   H3R22030   5.251   4.272   6.765  0.7989  0.1967  1.8998
  191POPC   H3S22031   5.093   4.202   6.838 -0.9855  0.5892 -0.1201
  191POPC   C2422032   5.203   4.304   6.972 -0.5734 -0.7617 -0.4715
  191POPC   H4R22033   5.114   4.342   7.026  0.0561 -0.1537  0.1494
  191POPC   H4S22034   5.280   4.384   6.978 -0.2671 -1.1576  1.2959
  191POPC   C2522035   5.247   4.174   7.044 -0.1800 -0.0446 -0.3451
  191POPC   H5R22036   5.328   4.121   6.991  0.2571  0.8225 -0.5667
  191POPC   H5S22037   5.154   4.114   7.053 -0.4667  0.4345 -0.0721
  191POPC   C2622038   5.313   4.198   7.184 -0.6704  0.1558  0.0848
  191POPC   H6R22039   5.412   4.246   7.168 -1.3232  1.4503 -0.2348
  191POPC   H6S22040   5.338   4.098   7.225  2.4946  0.7655 -0.1265
  191POPC   C2722041   5.219   4.279   7.287 -0.1782  0.1401 -0.1463
  191POPC   H7R22042   5.130   4.215   7.301  0.1848  0.1497  2.8149
  191POPC   H7S22043   5.193   4.380   7.249 -1.0079  1.0243  2.5989
  191POPC   C2822044   5.281   4.289   7.426 -0.2178 -0.1058  0.0811
  191POPC   H8R22045   5.217   4.362   7.481 -0.7067 -0.9004  0.5880
  191POPC   H8S22046   5.381   4.335   7.414  0.9275 -2.2712  0.9525
  191POPC   C2922047   5.284   4.159   7.499 -0.7332  0.0713 -1.2470
  191POPC   H9122048   5.309   4.078   7.429 -0.6224  1.5416 -2.9947
  191POPC  C21022049   5.269   4.137   7.631  0.0911  0.1286 -0.2585
  191POPC  H10122050   5.287   4.033   7.662 -0.4442  0.3730  0.9511
  191POPC  C21122051   5.254   4.230   7.747  0.0735  0.0709  0.3481
  191POPC  H11R22052   5.177   4.301   7.708  1.0727  0.5987 -0.7454
  191POPC  H11S22053   5.355   4.274   7.761  0.7278 -0.3767 -2.3322
  191POPC  C21222054   5.195   4.170   7.877 -0.6211 -0.2635  0.5511
  191POPC  H12R22055   5.266   4.095   7.917 -0.8732 -0.3494  0.8390
  191POPC  H12S22056   5.103   4.115   7.846 -0.4374 -0.0135 -0.4724
  191POPC  C21322057   5.173   4.270   7.994  0.2276 -0.4712  0.3010
  191POPC  H13R22058   5.132   4.367   7.957 -0.6475 -1.3304 -1.0431
  191POPC  H13S22059   5.273   4.294   8.037  0.4570 -1.5652  0.4140
  191POPC  C21422060   5.085   4.208   8.105  0.4376 -0.1534  0.8725
  191POPC  H14R22061   4.981   4.201   8.066  1.3628 -4.2470 -1.3965
  191POPC  H14S22062   5.081   4.274   8.194  0.3132 -0.1833  0.8897
  191POPC  C21522063   5.098   4.061   8.153  0.5666  0.5119 -0.1730
  191POPC  H15R22064   5.203   4.035   8.177  0.7065 -1.2691 -2.3478
  191POPC  H15S22065   5.065   4.002   8.065 -0.8384  1.0711 -0.0560
  191POPC  C21622066   5.000   4.032   8.271 -0.3363 -0.2420  0.0207
  191POPC  H16R22067   5.007   3.923   8.292 -1.1033 -0.5277 -1.0963
  191POPC  H16S22068   4.896   4.052   8.239 -0.3978 -0.4865  0.0707
  191POPC  C21722069   5.036   4.120   8.393 -0.1124 -0.6304  0.7179
  191POPC  H17R22070   5.029   4.228   8.366  1.9284 -0.7068 -0.3726
  191POPC  H17S22071   5.143   4.101   8.418  0.3563  0.7960 -0.0716
  191POPC  C21822072   4.960   4.091   8.523 -0.4741  0.0577 -0.5211
  191POPC  H18R22073   4.987   3.988   8.553 -0.6605 -0.1995 -1.2058
  191POPC  H18S22074   4.850   4.103   8.509  0.0382  2.8759 -3.5016
  191POPC  H18T22075   4.986   4.164   8.603 -0.4784 -0.7522  0.2359
  191POPC   C3322076   4.990   4.854   7.135  0.4478 -0.3805 -0.6113
  191POPC   H3X22077   4.939   4.755   7.135  0.6372 -0.5058  0.6029
  191POPC   H3Y22078   4.915   4.916   7.188  2.1241  1.3796 -0.1864
  191POPC   C3422079   5.109   4.849   7.226 -0.4358 -0.1031  0.0851
  191POPC   H4X22080   5.151   4.952   7.233  1.2646 -0.6326 -1.7806
  191POPC   H4Y22081   5.190   4.783   7.192 -0.1236  1.0839 -1.5985
  191POPC   C3522082   5.076   4.804   7.366 -0.4085 -0.2109  0.0861
  191POPC   H5X22083   4.995   4.872   7.402 -0.9997 -0.5815 -0.5186
  191POPC   H5Y22084   5.165   4.822   7.429  0.4622 -2.0898 -0.5410
  191POPC   C3622085   5.048   4.654   7.395 -0.4739 -0.0731 -0.0285
  191POPC   H6X22086   5.104   4.591   7.323  0.3508  0.9012 -0.2552
  191POPC   H6Y22087   4.945   4.638   7.356 -0.1795 -1.5200 -0.2482
  191POPC   C3722088   5.067   4.618   7.540 -0.4178  0.0144  0.2609
  191POPC   H7X22089   5.174   4.629   7.569 -0.6977 -1.7719  2.1739
  191POPC   H7Y22090   5.055   4.509   7.555  1.9248 -0.3621 -0.1739
  191POPC   C3822091   4.985   4.698   7.643  0.1470  0.6677  0.7135
  191POPC   H8X22092   4.874   4.689   7.636  0.3288 -1.2708 -0.7613
  191POPC   H8Y22093   4.996   4.807   7.632 -1.1936  0.6585 -1.3282
  191POPC   C3922094   5.023   4.653   7.786 -0.3102  0.0579  0.1744
  191POPC   H9X22095   5.131   4.674   7.799  0.2081 -1.6506 -1.0472
  191POPC   H9Y22096   5.019   4.542   7.783 -0.2347  0.0715 -1.1181
  191POPC  C31022097   4.924   4.708   7.888 -0.2799 -0.6619  0.2985
  191POPC  H10X22098   4.819   4.694   7.855 -1.1632 -2.4793  3.4368
  191POPC  H10Y22099   4.931   4.818   7.904  1.8933 -0.8855  1.1284
  191POPC  C31122100   4.957   4.653   8.033  0.3118 -0.7832 -0.4286
  191POPC  H11X22101   4.959   4.542   8.023 -0.2478 -0.7882 -0.4737
  191POPC  H11Y22102   4.869   4.687   8.091  0.8601  2.2372 -1.1899
  191POPC  C31222103   5.085   4.722   8.082  1.0707 -0.5231  0.1238
  191POPC  H12X22104   5.079   4.831   8.062 -2.2724 -0.9021 -1.6767
  191POPC  H12Y22105   5.174   4.686   8.026  1.5913  1.8450 -0.6997
  191POPC  C31322106   5.109   4.670   8.228  0.2235  0.2705 -0.9599
  191POPC  H13X22107   5.120   4.560   8.218 -0.2614  0.3128 -2.1650
  191POPC  H13Y22108   5.015   4.692   8.283  1.5938  2.3270  0.6988
  191POPC  C31422109   5.230   4.736   8.297 -0.4757 -0.5776 -0.6002
  191POPC  H14X22110   5.218   4.847   8.299 -0.5767 -0.5808 -0.9347
  191POPC  H14Y22111   5.316   4.719   8.229 -0.4325 -1.1701 -0.4057
  191POPC  C31522112   5.255   4.679   8.438  0.3058 -0.0828  0.4378
  191POPC  H15X22113   5.306   4.581   8.432 -3.6662 -2.3847  0.7831
  191POPC  H15Y22114   5.155   4.652   8.479  1.1994 -2.2554  1.3589
  191POPC  C31622115   5.337   4.765   8.534  0.0775  0.1044  0.4139
  191POPC  H16X22116   5.360   4.707   8.626 -2.0425  0.6283  1.3409
  191POPC  H16Y22117   5.279   4.853   8.571  1.6661  0.8759  1.1967
  191POPC  H16Z22118   5.421   4.801   8.471  1.0746 -2.3148  0.2863
  192POPC     N22119   2.999   0.874   5.945  0.0343 -0.0954 -0.6753
  192POPC   C1222120   2.948   0.820   6.080  0.2201  0.2241 -0.1559
  192POPC  H12A22121   2.911   0.900   6.143  0.9221 -0.3189  1.0005
  192POPC  H12B22122   3.030   0.778   6.137  1.1370 -0.5202 -1.9460
  192POPC   C1322123   3.091   0.993   5.972 -0.8506 -0.1817 -0.2753
  192POPC  H13A22124   3.169   0.968   6.042 -1.1220  2.5882  1.1500
  192POPC  H13B22125   3.146   1.014   5.881  0.5162 -0.4514  0.4695
  192POPC  H13C22126   3.040   1.083   6.003 -0.9631  0.5694 -2.4163
  192POPC   C1422127   3.062   0.769   5.863 -0.1321 -0.7549  0.8293
  192POPC  H14A22128   3.147   0.724   5.912  1.4661  2.5078  1.3247
  192POPC  H14B22129   3.004   0.680   5.848 -0.1825 -0.5951  0.0244
  192POPC  H14C22130   3.093   0.807   5.767  0.4784 -1.0839  0.8895
  192POPC   C1522131   2.882   0.923   5.868 -0.3676  0.1738 -0.6616
  192POPC  H15A22132   2.816   0.974   5.937 -1.9897  0.0674 -2.0584
  192POPC  H15B22133   2.816   0.841   5.840 -0.2611 -0.1508  0.0004
  192POPC  H15C22134   2.908   0.975   5.778  0.3320  2.1431  0.6261
  192POPC   C1122135   2.844   0.711   6.073 -0.1976 -0.3515  0.6390
  192POPC  H11A22136   2.873   0.634   5.999 -0.3371  0.4210 -0.2465
  192POPC  H11B22137   2.749   0.756   6.037 -1.4593 -1.7424  2.1011
  192POPC     P22138   2.933   0.549   6.240 -0.1259 -0.1759  0.0028
  192POPC   O1322139   3.067   0.596   6.208  0.1220 -0.3860 -0.1766
  192POPC   O1422140   2.904   0.410   6.190  0.2251  0.0038 -0.2374
  192POPC   O1222141   2.821   0.651   6.200 -0.0144 -0.0957 -0.3572
  192POPC   O1122142   2.915   0.539   6.395 -0.0997  0.1811  0.2613
  192POPC    C122143   2.789   0.491   6.445 -0.1205 -0.3663 -0.7408
  192POPC    HA22144   2.805   0.408   6.517 -1.5605  0.3718  0.4899
  192POPC    HB22145   2.722   0.446   6.369  0.2935 -1.7164 -0.3365
  192POPC    C222146   2.712   0.606   6.510  0.7875 -0.8669 -0.1092
  192POPC    HS22147   2.713   0.691   6.439  0.6619 -0.2972  0.5567
  192POPC   O2122148   2.781   0.645   6.632  0.0801  0.4986 -0.4081
  192POPC   C2122149   2.742   0.751   6.698 -0.1979 -0.2147  0.3232
  192POPC   O2222150   2.661   0.833   6.649 -0.3601  0.1113 -0.1995
  192POPC   C2222151   2.803   0.761   6.832 -0.1492  0.9487 -0.1470
  192POPC   H2R22152   2.892   0.825   6.812  3.1935 -3.0255  0.6735
  192POPC   H2S22153   2.824   0.661   6.875  0.4774  0.9466 -0.4486
  192POPC    C322154   2.563   0.567   6.537 -0.1229  0.6611 -0.0944
  192POPC    HX22155   2.517   0.530   6.443 -1.4187 -1.1307  1.1743
  192POPC    HY22156   2.507   0.660   6.561  1.1581  0.8185  2.7050
  192POPC   O3122157   2.555   0.461   6.634 -0.3328 -0.5278  0.0859
  192POPC   C3122158   2.482   0.472   6.743 -0.5564  0.0720 -0.1580
  192POPC   O3222159   2.423   0.572   6.782  0.3265  0.4690  0.4883
  192POPC   C3222160   2.493   0.336   6.811 -0.0466 -0.9201  0.1984
  192POPC   H2X22161   2.602   0.314   6.819 -0.0645 -0.6696  1.2523
  192POPC   H2Y22162   2.436   0.267   6.746 -1.6815 -0.0226  0.6093
  192POPC   C2322163   2.726   0.843   6.934  0.7612  0.3049  0.4524
  192POPC   H3R22164   2.636   0.780   6.949 -0.3996  1.8955  0.4425
  192POPC   H3S22165   2.682   0.937   6.895 -1.4027 -0.8458 -0.0034
  192POPC   C2422166   2.800   0.857   7.071  0.2825 -0.6447 -0.3254
  192POPC   H4R22167   2.867   0.945   7.060 -0.8767  0.1555 -1.1195
  192POPC   H4S22168   2.861   0.770   7.105 -1.6521 -1.7096  0.5895
  192POPC   C2522169   2.703   0.904   7.179  0.1878  0.3973  0.2974
  192POPC   H5R22170   2.615   0.837   7.185  0.7082 -0.2699  0.6242
  192POPC   H5S22171   2.652   0.997   7.145  0.3288  1.1905  2.1426
  192POPC   C2622172   2.760   0.925   7.315 -0.5242  1.1266 -0.5053
  192POPC   H6R22173   2.850   0.990   7.317  0.2329  0.1107  1.2919
  192POPC   H6S22174   2.784   0.824   7.356 -0.3383  1.3734  0.0100
  192POPC   C2722175   2.650   0.967   7.409 -0.0170 -0.1201 -0.3239
  192POPC   H7R22176   2.569   0.892   7.394 -1.4191  1.3451 -0.4157
  192POPC   H7S22177   2.588   1.056   7.385 -1.3180 -0.9680 -0.2597
  192POPC   C2822178   2.708   0.974   7.556  0.1771 -0.5866 -0.4373
  192POPC   H8R22179   2.803   1.028   7.536 -1.0524  1.2999 -1.4576
  192POPC   H8S22180   2.738   0.878   7.603  1.3808  0.5170  1.1457
  192POPC   C2922181   2.613   1.039   7.647 -0.5640 -0.5741 -0.0717
  192POPC   H9122182   2.519   1.077   7.604  0.4228  1.7636 -0.3403
  192POPC  C21022183   2.647   1.074   7.778  0.2226 -0.3356  0.6755
  192POPC  H10122184   2.571   1.126   7.838  1.6011  2.2508  0.3397
  192POPC  C21122185   2.779   1.036   7.849  0.5400 -0.1450  0.6958
  192POPC  H11R22186   2.872   1.065   7.795  0.1888 -0.8226 -0.3038
  192POPC  H11S22187   2.766   0.927   7.862 -0.7626 -0.3967 -2.0184
  192POPC  C21222188   2.781   1.091   7.995 -0.5284  0.0009 -0.2272
  192POPC  H12R22189   2.754   1.199   7.996 -3.6029 -0.6857  1.0599
  192POPC  H12S22190   2.886   1.092   8.034 -0.9603  2.6158  1.1221
  192POPC  C21322191   2.675   1.040   8.085  0.8793  0.2324  0.0238
  192POPC  H13R22192   2.700   0.932   8.101 -0.5998 -0.3282 -1.2370
  192POPC  H13S22193   2.568   1.043   8.056  0.4579  1.7810  1.5787
  192POPC  C21422194   2.643   1.120   8.211  0.3717 -0.5087 -0.5365
  192POPC  H14R22195   2.552   1.092   8.268  1.2142  0.0518  1.1504
  192POPC  H14S22196   2.636   1.226   8.177  0.5412 -0.0130  0.9133
  192POPC  C21522197   2.757   1.132   8.316  0.3849  0.3509  0.5558
  192POPC  H15R22198   2.723   1.215   8.382 -1.4014  2.4549 -2.6911
  192POPC  H15S22199   2.857   1.151   8.272  0.6913 -1.3980  0.4115
  192POPC  C21622200   2.767   1.007   8.406  0.4863 -0.2794  0.0803
  192POPC  H16R22201   2.824   0.932   8.347  0.7747 -0.1391  0.1808
  192POPC  H16S22202   2.669   0.960   8.432  0.5320  0.5378  1.8563
  192POPC  C21722203   2.832   1.047   8.541  0.6354  0.3445 -0.3206
  192POPC  H17R22204   2.755   1.117   8.581  0.5890  0.5546 -0.7733
  192POPC  H17S22205   2.924   1.107   8.528  0.4742  1.7224  3.6392
  192POPC  C21822206   2.848   0.932   8.645 -0.6507 -0.1383 -0.4734
  192POPC  H18R22207   2.924   0.863   8.603  0.3825  0.1265  0.8799
  192POPC  H18S22208   2.766   0.858   8.660 -1.0872  0.5934  0.8879
  192POPC  H18T22209   2.881   0.966   8.745  2.2052 -1.3821 -0.8924
  192POPC   C3322210   2.406   0.318   6.941 -0.0157 -0.3026  0.0959
  192POPC   H3X22211   2.357   0.218   6.951 -1.2205  0.4175  1.9466
  192POPC   H3Y22212   2.326   0.395   6.930 -0.0363 -0.0217  1.8744
  192POPC   C3422213   2.490   0.339   7.068  0.2044  0.4477 -0.4446
  192POPC   H4X22214   2.548   0.245   7.078 -1.5420 -0.5852  0.3631
  192POPC   H4Y22215   2.415   0.341   7.150 -1.3442  2.0076 -1.8228
  192POPC   C3522216   2.577   0.459   7.081  0.3143 -0.2866 -0.0427
  192POPC   H5X22217   2.515   0.547   7.056 -1.4359 -1.0793  1.2829
  192POPC   H5Y22218   2.660   0.437   7.011 -0.1931 -0.6670 -0.5346
  192POPC   C3622219   2.652   0.474   7.214  0.2372  0.4849  0.6303
  192POPC   H6X22220   2.715   0.565   7.205  0.2325  0.4523  0.2792
  192POPC   H6Y22221   2.716   0.385   7.232  0.9962  0.8167 -0.3991
  192POPC   C3722222   2.560   0.480   7.330 -0.2255 -0.3420 -0.4862
  192POPC   H7X22223   2.488   0.395   7.336 -0.7287  0.1482  1.7369
  192POPC   H7Y22224   2.493   0.569   7.325 -0.1983 -0.3546 -1.1423
  192POPC   C3822225   2.639   0.491   7.465 -0.2129  0.6583  0.4568
  192POPC   H8X22226   2.689   0.590   7.468  1.2792 -0.0063 -0.8802
  192POPC   H8Y22227   2.734   0.435   7.455 -0.7568 -0.5215  1.5894
  192POPC   C3922228   2.567   0.463   7.596 -0.7345 -0.1850  0.2526
  192POPC   H9X22229   2.519   0.363   7.594  1.6030 -1.3685 -0.9594
  192POPC   H9Y22230   2.495   0.544   7.622  0.5220  0.2941  2.4696
  192POPC  C31022231   2.667   0.455   7.719  0.2384  0.2332  0.9540
  192POPC  H10X22232   2.748   0.381   7.700 -0.6559 -0.6051  0.3435
  192POPC  H10Y22233   2.614   0.415   7.807 -2.4505  1.4996  0.0175
  192POPC  C31122234   2.719   0.587   7.761  0.3194  0.1227 -0.7404
  192POPC  H11X22235   2.630   0.654   7.768 -0.6129 -1.1955  0.9600
  192POPC  H11Y22236   2.778   0.636   7.681  1.0926 -0.7087 -0.6902
  192POPC  C31222237   2.799   0.591   7.892  0.7117  0.5604 -0.6028
  192POPC  H12X22238   2.808   0.698   7.921  2.5304  0.5942 -1.1340
  192POPC  H12Y22239   2.902   0.563   7.861  1.0465  2.1554 -1.0369
  192POPC  C31322240   2.750   0.518   8.024  0.2400  0.5373  0.0734
  192POPC  H13X22241   2.770   0.410   8.012  2.2163  0.9937 -1.3118
  192POPC  H13Y22242   2.642   0.540   8.039  0.7374  2.2001  1.6162
  192POPC  C31422243   2.821   0.583   8.143 -0.2612 -0.2962  0.5223
  192POPC  H14X22244   2.777   0.532   8.232 -1.5875 -0.6372 -0.2968
  192POPC  H14Y22245   2.794   0.690   8.145 -1.9235 -0.6074 -1.8636
  192POPC  C31522246   2.977   0.572   8.151 -0.3374 -0.4140 -0.2992
  192POPC  H15X22247   3.026   0.617   8.062 -0.7285 -0.0015 -0.3085
  192POPC  H15Y22248   3.009   0.466   8.147 -3.3274 -1.4184 -0.4453
  192POPC  C31622249   3.020   0.639   8.281 -1.0454 -0.4807 -0.0576
  192POPC  H16X22250   2.969   0.580   8.361  0.2647 -2.9016 -0.9148
  192POPC  H16Y22251   2.986   0.745   8.284 -1.0170 -0.4607 -0.4778
  192POPC  H16Z22252   3.130   0.634   8.288 -0.7681  2.0357 -1.5639
  193SOD    SOD22253   1.888   4.342  11.704 -0.0166 -0.2496 -0.1306
  194SOD    SOD22254   5.458   3.902  12.518 -0.2197 -0.0804 -0.3722
  195SOD    SOD22255   6.443   2.439  13.260  0.2102 -0.0376 -0.3046
  196SOD    SOD22256   2.977   3.230   4.813 -0.6332  0.6138  0.2165
  197SOD    SOD22257   6.039   5.703   6.484 -0.1258 -0.1132 -0.2115
  198SOD    SOD22258   2.798   3.494  15.957  0.0990 -0.0771  0.0018
  199SOD    SOD22259   1.054   5.212  11.983  0.2259  0.0626 -0.1551
  200SOD    SOD22260   0.870   1.789  11.482  0.0243 -0.5680  0.4387
  201SOD    SOD22261   3.215   0.484  11.036 -0.0469 -0.2541 -0.4284
  202SOD    SOD22262   2.392   4.014   5.570  0.1161 -0.1588  0.0544
  203SOD    SOD22263   3.190   6.312   1.059  0.0476  0.2197 -0.0145
  204SOD    SOD22264   5.843   1.286   2.498  0.0634 -0.6056  0.3319
  205SOD    SOD22265   5.025   2.446   4.013  0.5792  0.0698 -0.3256
  206SOD    SOD22266   0.296   1.018  15.327 -0.4233 -0.0288  0.2251
  207SOD    SOD22267   0.211   5.554  12.112  0.1874 -0.3570  0.0104
  208SOD    SOD22268   2.170   3.260  17.218 -0.3019  0.1319  0.4301
  209SOD    SOD22269   5.711   0.923  15.877  0.2270  0.1755 -0.4934
  210SOD    SOD22270   3.307   3.250   5.850 -0.0823 -0.0286  0.3321
  211SOD    SOD22271   0.758   6.235   6.248 -0.5014 -0.0139  0.3821
  212SOD    SOD22272   1.142   3.537  11.658 -0.1840 -0.5061 -0.1029
  213SOD    SOD22273   0.803   4.498   6.017 -0.2331  0.0662 -0.1959
  214SOD    SOD22274   0.671   4.017  13.015 -0.1250  0.1073  0.2304
  215SOD    SOD22275   5.195   1.117   0.506 -0.3723 -0.1983 -0.4881
  216SOD    SOD22276   0.020   6.349  16.344 -0.3208  0.0409 -0.3854
  217SOD    SOD22277   5.274   4.442   0.047  0.0333 -0.1030  0.2223
  218SOD    SOD22278   0.073   2.287  16.863  0.6720 -0.0138 -0.4098
  219SOD    SOD22279   0.415   5.663  14.606  0.5095  0.0520  0.3158
  220SOD    SOD22280   3.093   4.734   6.648 -0.4183  0.0847  0.3218
  221SOD    SOD22281   0.850   1.269   5.151 -0.0784  0.1033 -0.0978
  222SOD    SOD22282   6.504   1.135   4.460  0.0105 -0.0985 -0.4964
  223SOD    SOD22283   4.252   5.826  16.466 -0.4181 -0.8103 -0.2112
  224SOD    SOD22284   4.859   2.187   2.586 -0.1258  0.4072 -0.1036
  225SOD    SOD22285   1.890   2.907   2.825  0.0408  0.0388 -0.2490
  226SOD    SOD22286   4.985   3.541   5.777 -0.5287 -0.3635 -0.3723
  227SOD    SOD22287   5.972   4.678  12.512  0.4896 -0.1696 -0.3695
  228SOD    SOD22288   0.608   5.099   6.372 -0.2145 -0.0374  0.0676
  229SOD    SOD22289   2.288   4.606  13.650  0.1012  0.3505  0.5734
  230SOD    SOD22290   3.286   4.229   2.146 -0.0472 -0.3148 -0.2678
  231SOD    SOD22291   2.171   2.896   5.845 -0.3075 -0.1657  0.2612
  232SOD    SOD22292   3.450   5.421   0.652  0.3815  0.4613  0.5643
  233SOD    SOD22293   0.903   2.154   1.690  0.2241  0.1850 -0.2098
  234SOD    SOD22294   3.038   5.721  11.407 -0.0133  0.1735  0.1536
  235SOD    SOD22295   2.749   5.379  11.943 -0.2852 -0.1012 -0.5037
  236SOD    SOD22296   2.016   1.284  14.118  0.1549 -0.4527 -0.1464
  237SOD    SOD22297   0.828   5.982   4.488  0.0988  0.2059 -0.1137
  238SOD    SOD22298   5.022   5.355   3.645 -0.7008 -0.2193  0.2282
  239SOD    SOD22299   2.957   0.999   6.501  0.7987 -0.3901  0.1499
  240SOD    SOD22300   5.409   6.077   3.008  0.3891  0.3212 -0.6957
  241SOD    SOD22301   0.944   0.641  11.676 -0.3241  0.5730  0.2839
  242SOD    SOD22302   2.695   2.744   6.617  0.1191  0.7120 -0.1684
  243SOD    SOD22303   1.100   6.562   0.967  0.1671  0.7672 -0.0245
  244SOD    SOD22304   1.826   1.171   5.745 -0.0800  0.3240  0.2009
  245SOD    SOD22305   4.366   4.908   5.741 -0.0545 -0.6433  0.2179
  246SOD    SOD22306   3.537   2.287  12.049  0.0620  0.2510  0.1725
  247SOD    SOD22307   2.436   0.777   0.945 -0.0580 -0.1162  0.2173
  248SOD    SOD22308   5.087   5.489  10.973  0.0735  0.4677 -0.2122
  249SOD    SOD22309   3.925   0.919   1.043 -0.3461  0.1180  0.1180
  250SOD    SOD22310   0.391   6.179  15.585  0.2422 -0.0856 -0.2859
  251SOD    SOD22311   0.470   5.255   5.032  0.4947  0.3488 -0.3825
  252SOD    SOD22312   6.627   1.665   1.854  0.0084  0.0394 -0.0122
  253SOD    SOD22313   0.841   3.811  10.561 -0.3187 -0.3456 -0.1899
  254SOD    SOD22314   5.274   5.222  16.614 -0.6021 -0.2567  0.4321
  255SOD    SOD22315   5.132   3.666   2.128  0.3085  0.1660  0.0621
  256SOD    SOD22316   5.000   4.171  11.255 -0.6086 -0.8632 -0.0727
  257SOD    SOD22317   2.880   0.061   3.769 -0.3332 -0.6936 -0.3508
  258SOD    SOD22318   4.496   6.610  10.949 -1.0184 -0.2560 -0.3056
  259SOD    SOD22319   5.384   4.138   0.724 -0.2420 -0.4623  0.1772
  260SOD    SOD22320   0.200   4.113   5.464  0.0085 -0.1610 -0.2370
  261SOD    SOD22321   4.352   6.068  14.737 -0.2882  0.0378  0.3151
  262SOD    SOD22322   4.109   1.376  15.144 -0.1547  0.2745 -0.2308
  263SOD    SOD22323   2.843   4.007  11.913 -0.0072  0.4953  0.1840
  264SOD    SOD22324   3.238   6.758  13.508  0.1036  0.6946  0.3227
  265SOD    SOD22325   2.780   1.100  17.295 -0.0516  0.1511 -0.1032
  266SOD    SOD22326   3.015   5.805  15.479 -0.0936  0.4639  0.5113
  267SOD    SOD22327   3.495   2.245  15.312  0.1854 -0.1729 -0.3670
  268SOD    SOD22328   5.766   1.554   5.093 -0.5441  0.4495 -0.2468
  269SOD    SOD22329   5.472   1.544  11.082  0.6535  0.3378 -0.0999
  270CLA    CLA22330   5.510   0.238   2.184  0.1746 -0.0286 -0.0014
  271CLA    CLA22331   2.515   5.230  13.897  0.0541 -0.1505  0.2391
  272CLA    CLA22332   6.461   1.897   3.812  0.6588  0.2210  0.0169
  273CLA    CLA22333   1.936   3.926  14.548 -0.1425 -0.0697  0.1681
  274CLA    CLA22334   6.545   5.286  15.282  0.0878  0.0527  0.1653
  275CLA    CLA22335   0.341   4.578   5.733 -0.1621 -0.0171 -0.0903
  276CLA    CLA22336   5.337   3.109  16.756 -0.3385 -0.4460 -0.2151
  277CLA    CLA22337   2.710   2.552   6.038 -0.1243  0.4601 -0.0578
  278CLA    CLA22338   0.358   1.673   0.204 -0.3369 -0.1948  0.0775
  279CLA    CLA22339   2.410   4.167   2.812  0.2433  0.0020 -0.1618
  280CLA    CLA22340   5.311   3.098   4.006  0.0375 -0.2176  0.1954
  281CLA    CLA22341   3.580   1.531   0.581 -0.5153  0.0919 -0.2616
  282CLA    CLA22342   1.631   2.222   0.842 -0.0347 -0.0649 -0.1622
  283CLA    CLA22343   4.127   4.809   3.116  0.0548  0.3113 -0.0386
  284CLA    CLA22344   4.249   3.007   4.901  0.1094  0.0762  0.0798
  285CLA    CLA22345   0.392   1.302  14.464 -0.2696  0.2503  0.0646
  286CLA    CLA22346   3.894   4.441   0.727 -0.1154 -0.2732 -0.0538
  287CLA    CLA22347   2.783   3.619  15.708  0.1384 -0.2573 -0.0848
  288CLA    CLA22348   0.507   4.458  12.829  0.3183  0.3278  0.7153
  289CLA    CLA22349   4.964   4.081  16.880 -0.2454  0.0220  0.2462
  290CLA    CLA22350   2.283   5.432   3.917  0.1340 -0.0066  0.5004
  291CLA    CLA22351   2.404   0.332  11.388  0.7539  0.2286  0.4043
  292CLA    CLA22352   5.782   1.958   0.478 -0.4098 -0.3023 -0.2461
  293CLA    CLA22353   0.659   5.471  16.188 -0.1198  0.0840 -0.1940
  294CLA    CLA22354   0.766   2.231  13.876 -0.0474 -0.0246  0.3833
  295CLA    CLA22355   1.278   3.095   4.331  0.0049  0.1042  0.2875
  296CLA    CLA22356   1.272   4.805  11.903  0.0160 -0.1120 -0.3536
  297CLA    CLA22357   0.583   3.373  17.143  0.1799 -0.1565 -0.1388
  298CLA    CLA22358   5.859   4.928   0.083 -0.0352  0.0221 -0.3434
  299CLA    CLA22359   5.844   5.059   5.410 -0.0372 -0.0242 -0.1581
  300CLA    CLA22360   4.881   3.100   0.380 -0.1881 -0.1795  0.3171
  301CLA    CLA22361   2.739   2.870   4.505  0.0079  0.0010  0.1499
  302CLA    CLA22362   4.944   0.392   2.607  0.2777  0.0317 -0.4326
  303CLA    CLA22363   6.526   0.051   0.742 -0.3121 -0.1322 -0.1931
  304CLA    CLA22364   1.201   0.849   2.404  0.4928 -0.5818 -0.2749
  305CLA    CLA22365   5.614   0.471  16.992 -0.0558 -0.2536  0.0264
  306CLA    CLA22366   1.661   3.753  13.176 -0.1585 -0.3237  0.0826
  307CLA    CLA22367   5.274   4.568  12.165 -0.3542 -0.1373  0.2432
  308CLA    CLA22368   4.621   0.110   4.949 -0.1417  0.1808  0.0511
  309CLA    CLA22369   4.755   3.853  15.658  0.3867  0.2463  0.0092
  310CLA    CLA22370   6.138   3.785  14.262  0.0204  0.2338 -0.0188
  311CLA    CLA22371   4.791   5.236  16.669  0.0745 -0.2959  0.0256
  312CLA    CLA22372   3.474   3.910   1.427  0.0931  0.5478 -0.0628
  313CLA    CLA22373   1.790   4.893  13.931  0.2714  0.1855 -0.0380
  314CLA    CLA22374   0.806   1.468   5.605 -0.0139 -0.2595  0.3224
  315CLA    CLA22375   1.055   5.433   4.144 -0.1978 -0.1357  0.2477
  316CLA    CLA22376   3.629   5.652  13.172 -0.0391 -0.1281  0.0152
  317CLA    CLA22377   0.128   0.678   1.011  0.3450 -0.1563 -0.2098
  318CLA    CLA22378   2.912   2.771  12.602  0.1754 -0.1522 -0.0065
  319CLA    CLA22379   0.964   2.066  13.414  0.1651 -0.5617 -0.2791
  320CLA    CLA22380   1.244   2.988   2.860  0.0861 -0.0360 -0.2832
  321CLA    CLA22381   1.989   4.328   5.374  0.3026  0.2135 -0.0827
  322CLA    CLA22382   2.733   2.173  16.776  0.7666  0.0036 -0.7559
  323TIP3   OH222383   1.318   3.338  11.994 -0.0688  0.5372 -0.8560
  323TIP3    H122384   1.287   3.339  12.085  2.1652  0.5781 -0.0423
  323TIP3    H222385   1.317   3.245  11.970  0.5799  0.3794 -0.3135
  324TIP3   OH222386   2.781   2.577   5.555  0.2196  0.1712  0.3498
  324TIP3    H122387   2.840   2.576   5.631 -2.3872  2.3093  2.6559
  324TIP3    H222388   2.703   2.529   5.584 -0.0148 -0.9365 -1.8862
  325TIP3   OH222389   1.464   3.700  13.745  0.0921  0.0074  0.5331
  325TIP3    H122390   1.554   3.681  13.718 -0.1108 -0.5517  0.2205
  325TIP3    H222391   1.463   3.794  13.763  0.0997  0.5994 -2.0886
  326TIP3   OH222392   4.506   5.887   0.882 -0.9740 -0.0210  0.2269
  326TIP3    H122393   4.485   5.828   0.809  1.6206 -0.6501 -0.1321
  326TIP3    H222394   4.504   5.831   0.959  0.7013 -0.4643 -0.0104
  327TIP3   OH222395   1.426   2.942  17.140 -0.2650 -0.2280  0.4203
  327TIP3    H122396   1.440   3.013  17.203 -0.1710  0.1243  0.0012
  327TIP3    H222397   1.469   2.866  17.181  0.6679  0.2332  0.3305
  328TIP3   OH222398   6.069   1.438  12.758  0.0080 -0.5436 -0.2531
  328TIP3    H122399   5.985   1.467  12.723 -0.2778  0.2180  1.0024
  328TIP3    H222400   6.056   1.346  12.781 -0.3396 -0.5512 -0.4886
  329TIP3   OH222401   6.396   4.864   4.452  0.2493 -0.0228 -0.8375
  329TIP3    H122402   6.479   4.824   4.477  0.5697  0.0869 -1.6791
  329TIP3    H222403   6.381   4.833   4.362 -0.3804  0.3354 -0.8599
  330TIP3   OH222404   4.402   3.474   5.793  0.0814 -0.1171 -0.1235
  330TIP3    H122405   4.455   3.551   5.816 -0.4293  0.7910 -1.8180
  330TIP3    H222406   4.312   3.506   5.796 -0.0979 -0.4313 -1.5585
  331TIP3   OH222407   1.932   2.352  13.714 -0.0139  0.6361  0.0616
  331TIP3    H122408   1.983   2.433  13.707  2.3350 -0.9014 -2.3554
  331TIP3    H222409   1.864   2.361  13.647  1.6760 -0.2297 -1.8724
  332TIP3   OH222410   3.985   3.368   5.079  0.1619  0.0596 -0.3669
  332TIP3    H122411   3.928   3.436   5.116 -0.7124 -1.1936  0.6517
  332TIP3    H222412   3.926   3.298   5.053  1.0393 -0.2562 -1.5851
  333TIP3   OH222413   6.056   4.898   5.611 -0.0349 -0.2846  0.1571
  333TIP3    H122414   6.000   4.836   5.658  0.3069 -1.5991 -1.1121
  333TIP3    H222415   6.003   4.925   5.536  0.5958 -0.6646 -0.4332
  334TIP3   OH222416   1.870   3.893   3.490  0.4607  0.1155  0.1039
  334TIP3    H122417   1.908   3.981   3.487 -0.6721  0.5947 -1.3486
  334TIP3    H222418   1.876   3.862   3.399 -0.7412 -0.6015  0.2492
  335TIP3   OH222419   6.087   2.354  15.000  0.3481 -0.5223 -0.4331
  335TIP3    H122420   5.996   2.360  15.028  0.8536  2.2087  0.9408
  335TIP3    H222421   6.128   2.299  15.068 -0.0917 -1.1252 -0.6418
  336TIP3   OH222422   3.784   2.481   4.316  0.3466  0.1763 -0.2981
  336TIP3    H122423   3.696   2.516   4.309  0.2566  0.4783  1.6972
  336TIP3    H222424   3.837   2.553   4.350  0.9641 -0.5065  0.2419
  337TIP3   OH222425   3.302   4.938  13.100  0.2599 -0.3577 -0.0663
  337TIP3    H122426   3.301   4.926  13.195 -1.4974 -2.7806 -0.2818
  337TIP3    H222427   3.347   4.861  13.067  0.6027  0.3177 -1.2153
  338TIP3   OH222428   1.950   0.642   6.613 -0.1197  0.2015  0.1756
  338TIP3    H122429   2.044   0.636   6.600  0.4642  0.4439  3.3190
  338TIP3    H222430   1.916   0.556   6.588  0.8784  0.1904 -1.2052
  339TIP3   OH222431   2.630   2.188  13.622 -0.1396  0.7810 -0.2182
  339TIP3    H122432   2.577   2.224  13.694  0.4267 -0.7619  1.0112
  339TIP3    H222433   2.711   2.160  13.664 -0.2892 -1.3085 -1.2256
  340TIP3   OH222434   1.697   5.179  17.211  0.2362  0.1416 -0.0027
  340TIP3    H122435   1.791   5.170  17.200 -0.0193 -2.4841 -0.6609
  340TIP3    H222436   1.661   5.173  17.123 -0.7034 -2.7074  0.4674
  341TIP3   OH222437   6.296   3.868  13.683 -0.0862  0.2153  0.1977
  341TIP3    H122438   6.304   3.875  13.778  1.6473  0.1847  0.0713
  341TIP3    H222439   6.233   3.797  13.670 -0.3740  0.2422  1.3167
  342TIP3   OH222440   2.684   0.860  16.630 -0.2800 -0.2391 -0.8782
  342TIP3    H122441   2.604   0.903  16.599  0.4130  0.7106 -1.3852
  342TIP3    H222442   2.754   0.923  16.613  0.3134 -0.1743  1.4694
  343TIP3   OH222443   6.478   0.851   4.055  0.0803  0.4510  0.4302
  343TIP3    H122444   6.514   0.876   3.970 -1.1968  1.5029  0.1591
  343TIP3    H222445   6.452   0.760   4.044 -0.8570  0.8197 -0.6133
  344TIP3   OH222446   6.148   6.389   4.757 -0.3639  0.3326 -0.3804
  344TIP3    H122447   6.158   6.446   4.833  1.4025 -0.4024 -0.0143
  344TIP3    H222448   6.083   6.324   4.783 -0.2889  0.5043  0.2346
  345TIP3   OH222449   1.754   3.636  11.456  0.0943 -0.1316  0.0858
  345TIP3    H122450   1.757   3.662  11.364  0.6789  1.5437  0.5473
  345TIP3    H222451   1.837   3.589  11.470  0.7828  1.0580  0.1380
  346TIP3   OH222452   3.983   3.799   3.270  0.3215  0.5516 -0.6801
  346TIP3    H122453   4.032   3.856   3.210 -1.4687  1.2457 -1.5670
  346TIP3    H222454   3.943   3.733   3.214 -0.1631  0.3027 -0.0619
  347TIP3   OH222455   6.282   0.089  16.273  0.4628 -0.0384  0.5812
  347TIP3    H122456   6.279   0.005  16.318  0.1518 -0.5337 -0.3362
  347TIP3    H222457   6.190   0.109  16.254  0.5303  0.5370  0.8328
  348TIP3   OH222458   1.557   4.204  13.099  0.7022  0.0864 -0.5047
  348TIP3    H122459   1.561   4.297  13.077 -0.1522  0.6029  1.3892
  348TIP3    H222460   1.470   4.176  13.070  0.4949  0.1811  0.0192
  349TIP3   OH222461   1.663   2.216  13.166  0.0221  0.6108 -0.0935
  349TIP3    H122462   1.599   2.211  13.236 -1.3694 -0.7415 -1.4090
  349TIP3    H222463   1.635   2.151  13.101 -0.5105  3.7451 -3.3431
  350TIP3   OH222464   5.802   1.639   2.128 -0.4317  0.2939  0.8222
  350TIP3    H122465   5.856   1.583   2.072 -1.9009  1.1269 -1.5667
  350TIP3    H222466   5.864   1.688   2.181  1.0510 -0.2964 -0.3198
  351TIP3   OH222467   4.501   4.312  16.775  0.1917  0.6498 -0.7228
  351TIP3    H122468   4.546   4.229  16.786 -0.2507  0.6390  1.4356
  351TIP3    H222469   4.433   4.295  16.710 -0.2989 -0.8527  0.1578
  352TIP3   OH222470   4.906   0.490   3.696  0.7230 -0.2441 -0.3077
  352TIP3    H122471   4.898   0.579   3.728  1.7897  0.3200 -1.5304
  352TIP3    H222472   4.998   0.466   3.711  0.2170 -1.5677  1.0091
  353TIP3   OH222473   5.716   2.229  12.557 -0.0081 -0.6123 -0.4169
  353TIP3    H122474   5.675   2.144  12.540  1.6232 -1.4750 -0.3032
  353TIP3    H222475   5.791   2.208  12.613 -1.0680  1.2579  1.8351
  354TIP3   OH222476   2.578   4.986  15.800 -0.2167  0.3093  0.1626
  354TIP3    H122477   2.633   5.044  15.746  0.3425  1.0364  1.4565
  354TIP3    H222478   2.639   4.923  15.838 -0.4608  0.3551  0.6397
  355TIP3   OH222479   0.322   2.338   1.848 -0.1654 -0.0306  0.3499
  355TIP3    H122480   0.309   2.422   1.892 -0.1013  0.5659 -0.7202
  355TIP3    H222481   0.399   2.352   1.793 -0.8495 -0.3915 -0.7443
  356TIP3   OH222482   4.403   0.064   3.753 -0.0243 -0.1178 -0.2918
  356TIP3    H122483   4.408   0.054   3.658 -0.6439 -0.2795 -0.3155
  356TIP3    H222484   4.494   0.069   3.781  0.1556  1.0941 -1.0032
  357TIP3   OH222485   4.886   5.835  10.765 -0.1578 -0.3340 -0.3301
  357TIP3    H122486   4.923   5.827  10.677  1.3178  2.4804 -0.0613
  357TIP3    H222487   4.885   5.745  10.799  4.5586 -0.9574 -1.2034
  358TIP3   OH222488   0.201   3.189  11.158  0.0307 -0.2570 -0.1566
  358TIP3    H122489   0.280   3.239  11.181  0.5736 -0.2127 -1.9094
  358TIP3    H222490   0.129   3.243  11.190  0.5936  1.7731 -2.0479
  359TIP3   OH222491   4.139   0.334   1.874 -0.3943 -0.4134  0.3688
  359TIP3    H122492   4.082   0.278   1.928  0.3453 -2.4144 -0.7923
  359TIP3    H222493   4.095   0.338   1.789 -0.0148  0.0865  0.1895
  360TIP3   OH222494   5.275   3.687   1.383 -0.5763 -0.5553 -0.2442
  360TIP3    H122495   5.197   3.742   1.372  0.9154  1.6450 -0.5462
  360TIP3    H222496   5.323   3.729   1.454  1.4409 -0.4284 -1.6158
  361TIP3   OH222497   1.861   3.351  12.024  0.2251  0.3051 -0.3939
  361TIP3    H122498   1.773   3.336  11.992  0.7241 -1.0519 -1.1838
  361TIP3    H222499   1.866   3.302  12.107 -0.1319  1.3983  0.2960
  362TIP3   OH222500   6.712   5.885   1.305 -0.1726 -0.1260  0.2912
  362TIP3    H122501   6.794   5.930   1.323  0.0176  0.3532 -1.5238
  362TIP3    H222502   6.736   5.811   1.250 -1.1812  2.1042 -3.5207
  363TIP3   OH222503   1.212   4.404   1.582 -0.7313  0.3162  0.1037
  363TIP3    H122504   1.297   4.445   1.595  0.2938 -1.2572 -1.2581
  363TIP3    H222505   1.231   4.310   1.574 -2.7493 -0.2359  1.0857
  364TIP3   OH222506   2.049   2.866   6.307  0.1157 -0.0850 -0.0200
  364TIP3    H122507   2.107   2.813   6.253 -0.2536  0.0248 -0.5306
  364TIP3    H222508   2.079   2.850   6.397  1.0712  0.1439 -0.2858
  365TIP3   OH222509   3.680   6.523  12.302 -0.1219  0.2326  0.0501
  365TIP3    H122510   3.639   6.514  12.216 -0.4796  0.5375  0.1831
  365TIP3    H222511   3.639   6.455  12.356  0.6479 -0.4589 -0.2124
  366TIP3   OH222512   4.953   5.157   5.534  0.0340  0.0761 -0.6240
  366TIP3    H122513   4.902   5.220   5.483  0.5500  1.3039  0.3064
  366TIP3    H222514   4.909   5.074   5.521  0.9372  0.0140 -4.1673
  367TIP3   OH222515   2.512   0.997   2.497  0.2907 -0.2436  0.2478
  367TIP3    H122516   2.488   1.081   2.457  0.9491  0.3732  1.0966
  367TIP3    H222517   2.465   0.997   2.580  0.6574 -0.5047  0.4543
  368TIP3   OH222518   4.276   4.332   1.747 -0.1041  0.1660  0.0953
  368TIP3    H122519   4.243   4.275   1.817  0.9250 -0.5298  0.0423
  368TIP3    H222520   4.241   4.419   1.768 -2.5518 -0.6313 -0.3908
  369TIP3   OH222521   2.516   2.787   2.787  0.5143  0.0595  1.0287
  369TIP3    H122522   2.426   2.817   2.794  0.6763  0.7542  0.3080
  369TIP3    H222523   2.556   2.814   2.870  0.6496  1.9344  0.4185
  370TIP3   OH222524   6.487   3.596   4.301  0.5187 -0.6030  0.1273
  370TIP3    H122525   6.436   3.677   4.296  0.3110 -0.7325  0.1076
  370TIP3    H222526   6.421   3.527   4.311  0.7737 -0.5731  2.6468
  371TIP3   OH222527   1.295   2.139   2.322  0.5388  0.0732 -0.0418
  371TIP3    H122528   1.331   2.055   2.351 -0.9046 -1.0276 -1.3034
  371TIP3    H222529   1.359   2.172   2.259  0.5188 -0.7159 -0.4888
  372TIP3   OH222530   2.499   1.505   5.080 -0.2837 -0.0246  0.0671
  372TIP3    H122531   2.425   1.546   5.037  1.5539  0.5725 -2.8029
  372TIP3    H222532   2.556   1.578   5.105  0.4776 -0.5577 -0.0571
  373TIP3   OH222533   1.869   1.927  14.097  0.3441  0.3025 -0.5191
  373TIP3    H122534   1.951   1.893  14.133  0.8524  1.5343 -0.4497
  373TIP3    H222535   1.881   1.922  14.002  1.1378  1.8471 -0.5325
  374TIP3   OH222536   3.582   4.715   2.180  0.1442 -0.7187 -0.6790
  374TIP3    H122537   3.609   4.692   2.269  0.9140 -2.2125 -1.2690
  374TIP3    H222538   3.533   4.797   2.190 -2.2286 -2.2534  1.5072
  375TIP3   OH222539   5.508   5.471  10.528 -0.1812 -0.2908 -0.4621
  375TIP3    H122540   5.499   5.380  10.502  0.0276 -0.3616 -0.2855
  375TIP3    H222541   5.534   5.517  10.448 -2.3271 -0.0352 -1.0552
  376TIP3   OH222542   0.527   6.511  14.999  0.1306 -0.7020  0.6185
  376TIP3    H122543   0.457   6.576  15.009 -0.0034 -0.7272 -0.0870
  376TIP3    H222544   0.492   6.432  15.041 -0.0821 -0.5855  0.6623
  377TIP3   OH222545   2.396   0.036   1.695  0.1111  0.3974 -0.5356
  377TIP3    H122546   2.302   0.026   1.679 -0.6874  1.6593  2.6443
  377TIP3    H222547   2.414   0.128   1.674  1.0422 -0.1895 -2.5358
  378TIP3   OH222548   4.304   2.799   2.377  0.0357 -0.2859 -0.1724
  378TIP3    H122549   4.261   2.818   2.294  0.3369  0.1413 -0.2371
  378TIP3    H222550   4.232   2.785   2.439 -0.1844 -0.9626 -0.5826
  379TIP3   OH222551   4.554   2.458  14.660  0.4114 -0.5190 -0.2853
  379TIP3    H122552   4.637   2.498  14.682 -0.2477  0.3581  0.7007
  379TIP3    H222553   4.509   2.447  14.744  0.0022 -2.0698 -0.6640
  380TIP3   OH222554   1.767   6.368  16.171 -0.1022 -0.2100 -0.1421
  380TIP3    H122555   1.691   6.388  16.116 -0.0360 -1.0895 -0.5694
  380TIP3    H222556   1.761   6.273  16.186  0.7062 -0.2217  0.1313
  381TIP3   OH222557   4.931   1.385   2.831 -0.3896 -0.7087 -0.1661
  381TIP3    H122558   4.980   1.461   2.863 -0.9711  0.4087 -1.7584
  381TIP3    H222559   4.856   1.378   2.891  0.0360 -0.4690  0.4031
  382TIP3   OH222560   1.274   3.472   0.509 -0.3564  0.1231 -0.3512
  382TIP3    H122561   1.266   3.408   0.580 -0.6733  0.0510 -0.4511
  382TIP3    H222562   1.317   3.424   0.438  0.0391  0.2199 -0.1764
  383TIP3   OH222563   4.440   1.182  15.676 -0.2533  0.6267  0.2511
  383TIP3    H122564   4.357   1.228  15.687 -0.3360  0.3140  0.9877
  383TIP3    H222565   4.506   1.245  15.703 -0.2066  1.0009 -0.6717
  384TIP3   OH222566   4.813   0.694  16.656  0.2808 -0.2925 -0.6309
  384TIP3    H122567   4.785   0.631  16.589  1.1208 -0.7960 -0.5216
  384TIP3    H222568   4.887   0.741  16.616  0.4196 -0.2010 -0.2743
  385TIP3   OH222569   5.041   6.583  14.931  0.0739  0.1936 -0.5997
  385TIP3    H122570   5.013   6.491  14.930 -1.2891  0.5736  0.0632
  385TIP3    H222571   5.081   6.596  15.017 -0.1694  0.3379 -0.5071
  386TIP3   OH222572   2.408   0.474  14.761 -0.4022 -0.3629  0.6129
  386TIP3    H122573   2.446   0.537  14.701 -0.8327  0.8840  1.5942
  386TIP3    H222574   2.341   0.428  14.710  1.9071 -2.2039 -0.9706
  387TIP3   OH222575   4.388   5.432  15.441 -0.1609  0.1357  0.2556
  387TIP3    H122576   4.433   5.463  15.519 -1.4860  3.5668 -0.1962
  387TIP3    H222577   4.459   5.414  15.378  0.9061 -2.5385  2.0530
  388TIP3   OH222578   3.960   4.862  14.373 -0.3085 -0.4264  0.1027
  388TIP3    H122579   4.011   4.916  14.433 -1.8816  2.4030 -0.9118
  388TIP3    H222580   3.912   4.801  14.429 -0.0975  0.6587  1.5161
  389TIP3   OH222581   5.975   4.307   4.317  0.0379  0.3367 -0.0098
  389TIP3    H122582   6.010   4.394   4.335 -2.6354  1.6712 -0.6661
  389TIP3    H222583   5.923   4.286   4.394  0.3852 -0.5592 -0.0049
  390TIP3   OH222584   2.320   6.397   6.004 -0.4829  0.2444  0.2029
  390TIP3    H122585   2.298   6.357   6.088  0.3612  0.0570  0.3415
  390TIP3    H222586   2.251   6.463   5.991 -1.5029 -0.7669  0.2885
  391TIP3   OH222587   4.798   2.849  12.747  0.5184  0.1402 -0.2887
  391TIP3    H122588   4.773   2.822  12.835  2.4230 -0.2193  0.1863
  391TIP3    H222589   4.716   2.849  12.697 -0.7313  1.1875  1.6688
  392TIP3   OH222590   5.258   6.328   5.812 -0.2863 -0.1338 -0.3039
  392TIP3    H122591   5.198   6.320   5.887 -0.5587  1.3989 -0.3153
  392TIP3    H222592   5.345   6.336   5.852 -0.0883 -1.9754 -0.2748
  393TIP3   OH222593   2.987   0.240   3.382 -0.5228  0.4344 -0.1376
  393TIP3    H122594   2.938   0.230   3.464 -1.2498  0.6423 -0.5382
  393TIP3    H222595   3.058   0.300   3.404 -0.3159 -0.0272  0.4996
  394TIP3   OH222596   5.373   1.269  14.900 -0.7492  0.1925  0.0669
  394TIP3    H122597   5.366   1.361  14.927 -0.2517  0.2555 -0.0131
  394TIP3    H222598   5.441   1.268  14.833 -1.4226 -0.0933 -0.6292
  395TIP3   OH222599   3.885   5.456   0.858 -0.2923 -0.0964 -0.0786
  395TIP3    H122600   3.905   5.519   0.789 -0.3091 -1.7481 -1.6747
  395TIP3    H222601   3.792   5.436   0.847 -0.0515 -1.1696 -0.2877
  396TIP3   OH222602   2.901   1.320  14.360 -0.7272 -0.3551 -0.1704
  396TIP3    H122603   2.972   1.384  14.363 -1.4425  0.4657 -0.3727
  396TIP3    H222604   2.939   1.244  14.317  0.3350 -0.3240  0.6809
  397TIP3   OH222605   6.483   2.887  14.645  0.1757 -0.9409  0.3791
  397TIP3    H122606   6.542   2.957  14.674  0.1642 -1.7696  2.6844
  397TIP3    H222607   6.532   2.807  14.664 -1.5083 -1.6465  2.0931
  398TIP3   OH222608   1.453   4.337   2.813  0.6397  0.0999 -0.3683
  398TIP3    H122609   1.398   4.401   2.767  0.5149  0.1955 -0.0898
  398TIP3    H222610   1.451   4.366   2.904 -0.1929 -0.8352 -0.0703
  399TIP3   OH222611   0.600   0.000   1.308  0.3648 -0.5714  0.0395
  399TIP3    H122612   0.635   0.016   1.221 -1.3218  1.4782 -0.3504
  399TIP3    H222613   0.667   0.033   1.368  0.3269  0.7377 -0.6034
  400TIP3   OH222614   5.444   6.371   4.007 -0.8007  0.5145  0.2479
  400TIP3    H122615   5.498   6.307   3.960 -1.0771  1.3358 -1.2622
  400TIP3    H222616   5.414   6.324   4.085 -1.2897 -1.3264 -0.9724
  401TIP3   OH222617   0.723   0.429  12.120 -0.2034  0.1894  0.2241
  401TIP3    H122618   0.751   0.360  12.060 -1.8826  0.1322 -0.5512
  401TIP3    H222619   0.777   0.417  12.198  0.6261 -0.9975 -0.5105
  402TIP3   OH222620   3.482   1.696   2.098 -0.2058 -0.3345  0.0407
  402TIP3    H122621   3.395   1.734   2.088 -0.0868  0.7177  2.4021
  402TIP3    H222622   3.482   1.656   2.184  0.8321 -2.7595 -0.9753
  403TIP3   OH222623   1.815   2.289  15.541 -0.4556  0.0455 -0.1036
  403TIP3    H122624   1.867   2.351  15.592  0.1246 -2.1986  2.2188
  403TIP3    H222625   1.748   2.257  15.602 -3.6491  1.5737 -2.5198
  404TIP3   OH222626   2.151   2.986  12.835  0.2464 -0.2303 -0.1056
  404TIP3    H122627   2.077   2.929  12.815  0.2405 -0.6577  1.0833
  404TIP3    H222628   2.123   3.036  12.911  0.2662  1.3693 -1.0873
  405TIP3   OH222629   4.210   1.502   3.643  0.3862  0.9270 -0.2194
  405TIP3    H122630   4.296   1.543   3.657  1.0683 -0.4045 -0.4156
  405TIP3    H222631   4.206   1.431   3.707  0.2710 -0.2726 -1.5127
  406TIP3   OH222632   4.356   2.296   4.433  0.2062 -0.5603  0.1022
  406TIP3    H122633   4.352   2.204   4.458  2.1519 -0.5105  0.7435
  406TIP3    H222634   4.335   2.296   4.339  1.3006 -1.8213 -0.1769
  407TIP3   OH222635   2.531   1.657  14.967 -0.2812 -0.3953  0.2865
  407TIP3    H122636   2.616   1.677  14.927  0.4598 -1.1720  1.4036
  407TIP3    H222637   2.496   1.585  14.915  0.5590 -1.2267  0.8441
  408TIP3   OH222638   4.919   1.213   3.664  0.3441 -0.3245  0.2548
  408TIP3    H122639   5.002   1.193   3.621  0.8756 -0.5914  1.3633
  408TIP3    H222640   4.854   1.211   3.594  1.2043 -0.5862 -0.5476
  409TIP3   OH222641   6.732   0.779   3.894 -0.0649 -0.0773  0.0736
  409TIP3    H122642   6.822   0.806   3.875 -0.6602  1.7593 -0.3542
  409TIP3    H222643   6.711   0.824   3.976 -1.4516  1.7986 -1.2135
  410TIP3   OH222644   6.242   1.294  12.204 -0.5733 -0.0969  0.3983
  410TIP3    H122645   6.328   1.283  12.163  0.1352  0.5473  1.6651
  410TIP3    H222646   6.245   1.381  12.245 -2.1915  0.3666 -0.3507
  411TIP3   OH222647   3.148   4.262  17.125  0.1919 -0.1930 -0.3635
  411TIP3    H122648   3.149   4.344  17.176  0.4545 -0.2012 -0.3564
  411TIP3    H222649   3.062   4.262  17.083 -0.8989 -1.2251  1.7537
  412TIP3   OH222650   1.953   2.259  11.381 -0.5016  0.4768  0.3701
  412TIP3    H122651   2.022   2.235  11.319  0.3612  2.0312  0.6919
  412TIP3    H222652   1.989   2.331  11.431 -1.9085  0.4961  1.4178
  413TIP3   OH222653   4.855   1.218   1.863  0.3080 -0.3166  0.1002
  413TIP3    H122654   4.760   1.223   1.862  0.2863 -0.3982  0.8238
  413TIP3    H222655   4.875   1.124   1.866  0.4119 -0.3047 -0.2336
  414TIP3   OH222656   4.630   1.726  15.198  0.4011  0.0640 -0.9589
  414TIP3    H122657   4.698   1.661  15.217 -0.7177 -1.2847 -1.3718
  414TIP3    H222658   4.627   1.781  15.276 -0.5730 -2.1897  0.7171
  415TIP3   OH222659   0.475   4.286  15.053  0.0656  0.2590  0.0979
  415TIP3    H122660   0.389   4.328  15.049 -0.3765 -0.6965 -1.0073
  415TIP3    H222661   0.468   4.226  15.128  0.1795  1.0031  0.7224
  416TIP3   OH222662   0.723   2.517  11.680 -0.0094  0.4338 -0.4029
  416TIP3    H122663   0.694   2.516  11.771 -1.5870 -0.4640 -0.8784
  416TIP3    H222664   0.654   2.564  11.634  0.7742  0.8706 -1.1472
  417TIP3   OH222665   5.385   1.200  15.583  0.1893  0.2198  0.6124
  417TIP3    H122666   5.363   1.154  15.664  0.0746  0.0381  0.4805
  417TIP3    H222667   5.413   1.287  15.611  1.4314 -0.2574  0.9587
  418TIP3   OH222668   0.591   4.508   0.130 -0.1933  0.4227  0.3366
  418TIP3    H122669   0.534   4.572   0.174  0.5383  1.5127 -0.2401
  418TIP3    H222670   0.608   4.547   0.044  0.3478 -0.5221  0.0036
  419TIP3   OH222671   0.417   2.102  14.111 -0.0399  0.5901 -0.2188
  419TIP3    H122672   0.508   2.108  14.141  0.8771 -1.0714 -2.3631
  419TIP3    H222673   0.407   2.175  14.049  0.7991 -0.7429 -2.0405
  420TIP3   OH222674   0.293   1.636  11.181  0.0152  0.1526  0.0121
  420TIP3    H122675   0.288   1.731  11.171  0.3667  0.0972 -0.7761
  420TIP3    H222676   0.228   1.602  11.120  2.0456 -0.1937 -2.0898
  421TIP3   OH222677   3.227   1.255  17.220 -0.2642 -0.1552  0.7850
  421TIP3    H122678   3.180   1.241  17.138 -0.2262  0.5165  0.6463
  421TIP3    H222679   3.313   1.287  17.194 -0.1265 -0.2852  1.0758
  422TIP3   OH222680   0.705   3.439   4.121 -0.3257 -0.2133  0.0535
  422TIP3    H122681   0.716   3.393   4.204 -1.4924 -1.0088 -0.2162
  422TIP3    H222682   0.625   3.490   4.132  0.0683  0.4711 -0.2311
  423TIP3   OH222683   2.862   4.697   2.172 -0.4247 -0.1846 -0.9369
  423TIP3    H122684   2.904   4.743   2.244 -1.0466 -1.8229  0.5467
  423TIP3    H222685   2.844   4.765   2.107  0.7495  1.2255  0.1614
  424TIP3   OH222686   5.640   4.007  12.611  0.0465 -1.0678 -0.2159
  424TIP3    H122687   5.720   3.956  12.609  0.2442 -0.9092  1.8007
  424TIP3    H222688   5.670   4.098  12.622 -0.3898 -0.8731 -0.5888
  425TIP3   OH222689   2.467   4.046   4.012  0.7778  0.2309  0.0678
  425TIP3    H122690   2.508   3.968   4.051  0.9429 -1.2439 -2.7689
  425TIP3    H222691   2.404   4.075   4.077 -0.3156 -3.1843  0.7674
  426TIP3   OH222692   1.131   6.661   5.435 -0.3909  0.1723  0.1485
  426TIP3    H122693   1.171   6.718   5.369 -0.3814  0.7993  0.6942
  426TIP3    H222694   1.139   6.709   5.517 -0.5643 -0.5290  0.5847
  427TIP3   OH222695   1.864   3.539  12.601 -0.0545  0.0254  0.0553
  427TIP3    H122696   1.831   3.450  12.588 -2.3329  0.7818  0.3621
  427TIP3    H222697   1.808   3.577  12.668  1.3207  1.5030  0.4459
  428TIP3   OH222698   3.747   6.569  14.175 -0.2725  0.3537 -0.5158
  428TIP3    H122699   3.652   6.580  14.178 -0.3863 -0.4753 -0.6886
  428TIP3    H222700   3.770   6.533  14.260  0.1509  2.2735  0.2220
  429TIP3   OH222701   2.936   4.620   4.922 -0.1085 -0.4049 -0.1178
  429TIP3    H122702   2.913   4.646   4.833  1.0927 -0.2239 -0.3851
  429TIP3    H222703   2.921   4.698   4.975 -2.0389 -0.8549  0.0986
  430TIP3   OH222704   2.451   3.283   3.168 -0.6647  0.1539 -0.1446
  430TIP3    H122705   2.395   3.360   3.159 -4.6443 -1.8124  3.9196
  430TIP3    H222706   2.493   3.294   3.253 -0.0489 -1.4222 -0.2163
  431TIP3   OH222707   2.246   5.773   1.160 -0.4209 -0.1139  0.1286
  431TIP3    H122708   2.241   5.704   1.226 -0.0609 -0.6475 -0.3951
  431TIP3    H222709   2.178   5.836   1.186 -0.0411 -0.1302  1.2089
  432TIP3   OH222710   5.536   6.576   6.138 -0.3937 -0.1451 -0.0910
  432TIP3    H122711   5.532   6.671   6.142  1.0885  0.0331 -1.8246
  432TIP3    H222712   5.522   6.548   6.228  0.4428  1.7698  0.6870
  433TIP3   OH222713   3.358   0.251  13.901  0.0578  0.4678 -0.0280
  433TIP3    H122714   3.386   0.223  13.814  0.0506  1.8297 -0.4924
  433TIP3    H222715   3.270   0.215  13.911 -0.6307  1.7342 -1.3045
  434TIP3   OH222716   3.810   5.790   1.715  0.3099 -0.1506 -0.0365
  434TIP3    H122717   3.719   5.795   1.685  0.6619  0.3485 -1.0747
  434TIP3    H222718   3.836   5.700   1.697  0.1209 -0.2015 -0.0574
  435TIP3   OH222719   4.163   5.750   3.443  0.0847  0.3098  0.1461
  435TIP3    H122720   4.178   5.661   3.411  1.4606 -0.1019  1.7867
  435TIP3    H222721   4.107   5.790   3.378  0.3153 -1.4275 -1.1803
  436TIP3   OH222722   4.008   3.798   3.537 -0.3584  0.2480  0.7843
  436TIP3    H122723   3.968   3.776   3.453  1.6597  0.7525 -0.3719
  436TIP3    H222724   3.948   3.862   3.576 -0.2408  1.7535 -1.3384
  437TIP3   OH222725   3.927   0.736   1.181 -0.5449 -0.4355  0.1552
  437TIP3    H122726   3.894   0.679   1.250  1.0257 -0.8927  0.5652
  437TIP3    H222727   3.993   0.684   1.136 -3.3385 -1.1811 -3.5270
  438TIP3   OH222728   6.014   0.256   5.684 -0.1790 -0.0091  0.2514
  438TIP3    H122729   5.975   0.257   5.597 -1.0775 -1.3557  0.6041
  438TIP3    H222730   6.019   0.348   5.709 -2.1910  0.2834 -0.2483
  439TIP3   OH222731   0.910   4.569   2.142 -0.4385 -0.3830 -0.0818
  439TIP3    H122732   0.824   4.527   2.149 -0.4700 -0.0533  2.0856
  439TIP3    H222733   0.894   4.661   2.162  0.3033 -0.1734 -0.4054
  440TIP3   OH222734   3.377   6.504  10.996  0.3305 -0.0836 -0.2736
  440TIP3    H122735   3.314   6.572  10.974  1.8205  1.4112 -0.1418
  440TIP3    H222736   3.449   6.518  10.934  0.6912 -1.5251 -0.2092
  441TIP3   OH222737   5.971   2.774   5.930 -0.0958  0.3487 -0.4210
  441TIP3    H122738   5.960   2.847   5.992  0.4335  0.7173 -0.7560
  441TIP3    H222739   6.063   2.777   5.905  0.0972 -0.8638  0.0763
  442TIP3   OH222740   4.341   0.413   5.910  0.4294 -0.1390 -0.4530
  442TIP3    H122741   4.349   0.329   5.956 -2.6532 -0.2007  0.1612
  442TIP3    H222742   4.289   0.392   5.832  1.7735  0.7891 -1.6409
  443TIP3   OH222743   0.864   2.637   0.185 -0.8301 -0.8299 -0.0000
  443TIP3    H122744   0.902   2.603   0.104 -0.4891 -0.5802  0.0508
  443TIP3    H222745   0.872   2.566   0.248  0.2029 -0.5470  0.2071
  444TIP3   OH222746   0.123   6.058  13.983  0.3760  0.0353 -0.9695
  444TIP3    H122747   0.046   6.104  14.016  1.1709  0.0357  1.0021
  444TIP3    H222748   0.190   6.126  13.975  1.4859 -0.6053  1.7257
  445TIP3   OH222749   6.751   6.616  11.379  0.0081  0.5524 -0.2285
  445TIP3    H122750   6.687   6.672  11.334 -2.5377 -1.9675 -0.0101
  445TIP3    H222751   6.779   6.554  11.311  1.5650  1.0061 -0.0489
  446TIP3   OH222752   2.080   0.491   5.837 -0.1967  0.3504  0.0855
  446TIP3    H122753   2.132   0.502   5.917 -0.5311 -0.9354  0.5115
  446TIP3    H222754   2.014   0.425   5.861 -1.3151  1.1138 -0.7768
  447TIP3   OH222755   6.370   2.600  14.344 -0.3377  0.3565 -0.1444
  447TIP3    H122756   6.455   2.556  14.351 -0.3124  0.3084 -0.6583
  447TIP3    H222757   6.308   2.540  14.385 -0.0173  0.7255  0.8942
  448TIP3   OH222758   1.067   3.656  15.860  0.3435 -0.1045  0.1803
  448TIP3    H122759   1.079   3.703  15.778 -1.5831 -1.9618 -1.2724
  448TIP3    H222760   1.001   3.707  15.907  2.6365  1.8918  1.4537
  449TIP3   OH222761   2.471   1.933  15.759 -0.2883 -0.1216 -0.2417
  449TIP3    H122762   2.542   1.876  15.731 -0.1237  0.2190 -0.5298
  449TIP3    H222763   2.439   1.895  15.841 -0.5816 -0.9691 -0.7459
  450TIP3   OH222764   2.923   3.586  13.591  0.2648 -0.0065  0.0149
  450TIP3    H122765   3.018   3.577  13.591  0.3378  0.7020  0.1941
  450TIP3    H222766   2.906   3.660  13.648 -0.5022 -1.0709  1.2187
  451TIP3   OH222767   1.094   3.463   0.903  0.3163  0.1579  0.1214
  451TIP3    H122768   1.104   3.368   0.893  0.2129  0.2971 -1.5726
  451TIP3    H222769   1.130   3.500   0.823 -0.9995  1.4655  0.0915
  452TIP3   OH222770   6.107   0.855  15.954  0.4411  0.6225 -0.0285
  452TIP3    H122771   6.044   0.909  16.003  0.7252  0.1800  0.8578
  452TIP3    H222772   6.085   0.870  15.862 -1.0213  0.4122  0.2559
  453TIP3   OH222773   0.611   3.583  14.748  0.1842 -0.4391 -0.0856
  453TIP3    H122774   0.671   3.514  14.776  1.4781  0.9834  0.7787
  453TIP3    H222775   0.542   3.536  14.701  1.8254 -2.1467 -0.9259
  454TIP3   OH222776   4.324   3.414  14.625  0.0936 -0.2830 -0.0970
  454TIP3    H122777   4.302   3.325  14.597  0.1962 -0.6924  1.0856
  454TIP3    H222778   4.383   3.446  14.556 -1.7444 -0.2495 -1.7585
  455TIP3   OH222779   3.951   6.592   5.641  0.0460 -0.3358 -0.4014
  455TIP3    H122780   3.892   6.657   5.603  0.2184 -0.7270 -1.3532
  455TIP3    H222781   3.915   6.508   5.614  0.0117 -0.6411  0.5491
  456TIP3   OH222782   3.204   6.447   2.334 -0.3759 -0.5131 -0.2557
  456TIP3    H122783   3.252   6.399   2.266  0.2454 -0.5300  0.1901
  456TIP3    H222784   3.185   6.531   2.294  1.5028  0.1372  0.1163
  457TIP3   OH222785   0.780   6.291   0.941 -0.7053  0.5293 -0.4024
  457TIP3    H122786   0.827   6.232   0.881 -0.3737 -0.0712  0.4233
  457TIP3    H222787   0.834   6.293   1.019 -2.6063 -1.1809  1.0764
  458TIP3   OH222788   2.325   1.993   5.124  0.2291 -0.2713 -0.7331
  458TIP3    H122789   2.262   1.998   5.196  1.4161 -0.5342  0.3611
  458TIP3    H222790   2.274   2.015   5.046 -1.2896 -0.7896  0.0677
  459TIP3   OH222791   1.973   2.455  15.679  1.0881 -0.2652  0.0110
  459TIP3    H122792   2.059   2.438  15.639 -0.6667 -0.5275 -4.2121
  459TIP3    H222793   1.969   2.550  15.686  1.1175 -0.1048 -1.5935
  460TIP3   OH222794   5.759   0.921   3.801  0.1586  0.6273 -0.1929
  460TIP3    H122795   5.825   0.903   3.733  1.6480 -1.4308  1.6402
  460TIP3    H222796   5.675   0.906   3.758  1.0409 -0.1722 -1.7175
  461TIP3   OH222797   4.189   2.059   4.713 -0.7590 -0.3253  0.5092
  461TIP3    H122798   4.103   2.043   4.752 -0.7496  1.0824  1.1595
  461TIP3    H222799   4.233   1.974   4.718 -1.8613 -0.9121  0.7584
  462TIP3   OH222800   1.645   3.785  12.575  0.6193  0.1070  0.4211
  462TIP3    H122801   1.586   3.855  12.604  1.4002  0.9919 -0.0669
  462TIP3    H222802   1.664   3.736  12.655  0.0967  0.4757  0.7825
  463TIP3   OH222803   5.468   4.080  13.212  0.0580  0.0166  0.0777
  463TIP3    H122804   5.383   4.036  13.217 -0.0333  0.2703  0.7425
  463TIP3    H222805   5.495   4.091  13.303 -0.2285  1.9363 -0.0379
  464TIP3   OH222806   3.229   3.276  14.715  0.2891 -0.3868  0.4102
  464TIP3    H122807   3.299   3.219  14.745 -0.1583 -0.6104  1.0435
  464TIP3    H222808   3.274   3.354  14.682  0.8458 -0.6441  0.5502
  465TIP3   OH222809   4.070   4.951  12.428  0.2833  0.4160 -0.3778
  465TIP3    H122810   4.033   4.871  12.465  0.4814  1.1715  1.5946
  465TIP3    H222811   4.003   5.018  12.445  2.2052  1.7480  2.9970
  466TIP3   OH222812   5.827   2.945   0.558 -0.0465 -1.1486 -0.3787
  466TIP3    H122813   5.738   2.934   0.592 -0.0300 -2.3067 -0.6684
  466TIP3    H222814   5.875   2.985   0.630 -1.3255  1.7872 -1.0004
  467TIP3   OH222815   6.691   5.271   3.245 -0.8051 -0.2382  0.1866
  467TIP3    H122816   6.699   5.193   3.300  1.0189  0.5851  1.1974
  467TIP3    H222817   6.743   5.252   3.167 -0.2432 -0.0204  0.4965
  468TIP3   OH222818   6.321   4.132   4.513  0.1155  0.2592 -0.4413
  468TIP3    H122819   6.408   4.170   4.510 -0.0369  0.5542 -1.3844
  468TIP3    H222820   6.296   4.121   4.421 -0.4798 -0.6513 -0.1888
  469TIP3   OH222821   4.765   3.590   5.749  0.0422 -0.4095 -0.2825
  469TIP3    H122822   4.690   3.649   5.748  0.4483  0.1070 -0.5230
  469TIP3    H222823   4.728   3.503   5.730 -0.5117 -0.1857 -0.2349
  470TIP3   OH222824   2.417   6.090   2.488 -0.6864  0.1287 -0.1597
  470TIP3    H122825   2.506   6.110   2.459 -0.6639 -0.5182 -0.5565
  470TIP3    H222826   2.371   6.064   2.409 -0.9235 -0.6104  0.2081
  471TIP3   OH222827   3.788   5.249   2.554  0.1874  0.0069 -0.4478
  471TIP3    H122828   3.771   5.239   2.648  0.7420  0.5897 -0.2801
  471TIP3    H222829   3.711   5.211   2.512  0.3117 -1.0283  0.2200
  472TIP3   OH222830   3.193   5.437   4.337 -0.0749  0.0930 -0.5786
  472TIP3    H122831   3.162   5.470   4.253 -0.9235  3.5080  0.9231
  472TIP3    H222832   3.282   5.470   4.345  0.0122 -0.2356 -0.1129
  473TIP3   OH222833   4.451   4.012   0.513  0.7853 -0.6434 -0.3410
  473TIP3    H122834   4.537   3.977   0.486  1.5709  0.1460  1.0125
  473TIP3    H222835   4.468   4.103   0.535 -0.3889 -0.5074  0.0731
  474TIP3   OH222836   3.788   5.160  15.075 -0.4161  0.0292  0.5351
  474TIP3    H122837   3.772   5.166  15.169  1.4020  1.4332  0.8110
  474TIP3    H222838   3.717   5.211  15.035 -1.6455 -1.2168  1.0374
  475TIP3   OH222839   1.831   6.374   2.782  0.9018  0.4952  0.5434
  475TIP3    H122840   1.864   6.310   2.719 -0.8990  0.0740 -0.0346
  475TIP3    H222841   1.752   6.409   2.741  1.0032  1.9816  1.5414
  476TIP3   OH222842   1.434   6.565   5.483  0.0275  0.1265 -0.2810
  476TIP3    H122843   1.450   6.547   5.391 -1.2368  1.0574 -0.6946
  476TIP3    H222844   1.451   6.658   5.494  2.5897 -0.3745  1.0078
  477TIP3   OH222845   5.793   6.577   0.052 -0.3493 -0.4304 -0.2973
  477TIP3    H122846   5.819   6.621  -0.029 -0.7405  0.4756  0.0618
  477TIP3    H222847   5.747   6.498   0.023 -1.8042  0.6402 -0.9860
  478TIP3   OH222848   3.956   4.702  10.718 -0.3344 -0.4619 -0.3642
  478TIP3    H122849   4.051   4.708  10.704 -0.1938 -2.5033 -0.5578
  478TIP3    H222850   3.921   4.672  10.634 -0.6430 -3.4329  0.7164
  479TIP3   OH222851   5.635   2.946  10.273 -0.9208  0.7065  0.1567
  479TIP3    H122852   5.674   2.859  10.262 -1.0098  0.7244 -0.3424
  479TIP3    H222853   5.672   2.998  10.201 -0.4761  1.2256  0.7540
  480TIP3   OH222854   1.312   1.792   3.078 -0.0198 -0.6285  0.7402
  480TIP3    H122855   1.253   1.865   3.094  0.3970 -0.0049 -0.4475
  480TIP3    H222856   1.332   1.797   2.984 -1.2524 -3.2375  0.2352
  481TIP3   OH222857   6.357   1.509  13.518 -0.0998  0.0357 -0.1897
  481TIP3    H122858   6.349   1.593  13.473 -1.8378 -0.4705 -0.9054
  481TIP3    H222859   6.321   1.524  13.605 -2.0525 -0.3329 -0.8768
  482TIP3   OH222860   4.700   3.302  12.440  0.3211  0.0737 -0.0272
  482TIP3    H122861   4.677   3.230  12.382 -1.0670  0.1667  0.3602
  482TIP3    H222862   4.710   3.377  12.381  2.8276 -0.5924 -0.5580
  483TIP3   OH222863   0.613   1.886   2.015 -0.1541  0.2897 -0.3048
  483TIP3    H122864   0.568   1.966   1.987  0.7602  0.1677 -2.3281
  483TIP3    H222865   0.660   1.911   2.094 -0.5219  1.5415 -0.4602
  484TIP3   OH222866   6.643   0.038   6.300  0.2796 -0.1317  0.1804
  484TIP3    H122867   6.584   0.071   6.368  0.9626  0.6203  0.4214
  484TIP3    H222868   6.594   0.051   6.218  0.2694  0.9052  0.3338
  485TIP3   OH222869   5.660   4.935   1.550  0.0014  0.3124  0.4478
  485TIP3    H122870   5.708   5.014   1.524  0.9753 -0.8469 -1.5316
  485TIP3    H222871   5.727   4.866   1.551 -1.0145 -0.7016  1.0946
  486TIP3   OH222872   0.587   3.990  12.056  0.0991 -0.0679 -0.0869
  486TIP3    H122873   0.670   4.039  12.055 -0.8966  1.6908 -1.2727
  486TIP3    H222874   0.590   3.940  12.138  2.0154  0.4991  0.2378
  487TIP3   OH222875   4.249   2.629   1.935 -0.5195  0.5874 -0.0694
  487TIP3    H122876   4.225   2.562   1.871 -3.4045  0.1092  1.3463
  487TIP3    H222877   4.269   2.581   2.015 -1.6408  1.2974  0.6804
  488TIP3   OH222878   2.953   4.016   6.074 -0.2380  0.2971  0.7030
  488TIP3    H122879   2.950   4.101   6.118  1.5084  0.2151  1.0830
  488TIP3    H222880   3.024   4.025   6.010  0.2439 -0.9726  1.0306
  489TIP3   OH222881   1.898   1.609  15.926  0.1053 -0.2425  0.5973
  489TIP3    H122882   1.859   1.692  15.954  0.0456  1.2324 -3.2999
  489TIP3    H222883   1.991   1.629  15.914  0.5338 -1.4166  1.7186
  490TIP3   OH222884   3.174   5.230  12.317  0.2061  0.4290 -0.2768
  490TIP3    H122885   3.204   5.219  12.227  2.2010 -0.6495  0.4425
  490TIP3    H222886   3.097   5.173  12.324 -0.7896  1.5500 -1.6129
  491TIP3   OH222887   0.900   4.960  13.321 -0.2992 -0.4307 -0.1463
  491TIP3    H122888   0.930   5.018  13.391 -2.1857 -0.2580  0.5690
  491TIP3    H222889   0.970   4.895  13.312  1.2250  1.1151 -0.0066
  492TIP3   OH222890   4.663   2.588   1.180  0.2167 -0.2145  0.6375
  492TIP3    H122891   4.737   2.644   1.206 -0.2308  0.5175  0.3592
  492TIP3    H222892   4.628   2.629   1.101 -1.3977  0.2836  1.5685
  493TIP3   OH222893   2.192   3.111  15.159  0.2406  0.2018 -0.0510
  493TIP3    H122894   2.221   3.100  15.250  0.9001 -2.0304 -0.4628
  493TIP3    H222895   2.260   3.164  15.118  1.9661 -1.8880 -0.0898
  494TIP3   OH222896   5.469   3.205  12.909 -0.4741  0.0782  0.6716
  494TIP3    H122897   5.501   3.125  12.868  0.4887  1.0778 -0.6377
  494TIP3    H222898   5.432   3.256  12.836 -1.4259  0.6674  1.5302
  495TIP3   OH222899   2.912   1.449  11.061  0.6878 -0.3801  0.0790
  495TIP3    H122900   2.849   1.497  11.008  0.1515  1.0680  1.9094
  495TIP3    H222901   2.992   1.501  11.055  0.9214 -0.7647 -0.1282
  496TIP3   OH222902   4.151   5.491   3.734 -0.5804 -0.7539 -0.5035
  496TIP3    H122903   4.096   5.431   3.684  1.6465 -1.6382 -2.0274
  496TIP3    H222904   4.237   5.484   3.694  0.7018  0.5022  1.8268
  497TIP3   OH222905   3.668   4.699  16.857  0.1146  0.2737 -0.2506
  497TIP3    H122906   3.694   4.776  16.908  2.6841 -0.4187 -0.3586
  497TIP3    H222907   3.699   4.717  16.769  1.8571 -1.3071 -0.0270
  498TIP3   OH222908   5.986   5.555   3.466  0.3939  0.2666  0.2678
  498TIP3    H122909   6.038   5.544   3.545 -0.3462 -3.2245  0.4048
  498TIP3    H222910   6.002   5.476   3.415 -1.8856  0.7805 -1.4301
  499TIP3   OH222911   3.823   4.739   1.738  0.6122 -0.4455 -0.3843
  499TIP3    H122912   3.820   4.765   1.830 -1.0379 -1.2892 -0.1784
  499TIP3    H222913   3.905   4.776   1.706  1.0292  0.1917  1.3203
  500TIP3   OH222914   6.479   2.554   2.042 -0.1628  0.4716  0.3557
  500TIP3    H122915   6.401   2.517   2.000 -0.1246  0.6649  0.1093
  500TIP3    H222916   6.522   2.480   2.083 -0.1722  0.2662  0.0021
  501TIP3   OH222917   6.435   3.839   0.541  0.5600  0.2973  0.4896
  501TIP3    H122918   6.358   3.807   0.589  0.6233  0.2133  0.5361
  501TIP3    H222919   6.501   3.771   0.554  1.3514  1.3197  2.2603
  502TIP3   OH222920   4.352   1.811   3.791 -0.3661 -0.3737  0.1228
  502TIP3    H122921   4.279   1.848   3.839  2.4277  0.5083  4.2889
  502TIP3    H222922   4.372   1.875   3.723 -3.0091 -0.4082 -0.7717
  503TIP3   OH222923   3.055   3.389  16.284  0.7694 -0.3766 -1.1718
  503TIP3    H122924   3.130   3.436  16.249 -0.9999  1.8935 -2.1260
  503TIP3    H222925   3.011   3.451  16.342  0.0855 -1.9455  0.0914
  504TIP3   OH222926   6.742   2.105   5.486  0.1203 -0.2946 -0.1909
  504TIP3    H122927   6.730   2.154   5.405 -2.1217  1.3956  1.0496
  504TIP3    H222928   6.797   2.161   5.540 -1.3694  0.3072  0.7494
  505TIP3   OH222929   1.325   1.011  15.730  0.1358 -0.1507 -0.2367
  505TIP3    H122930   1.246   1.018  15.676  0.1526 -1.0411 -0.3950
  505TIP3    H222931   1.372   1.093  15.716 -2.3535  1.9297  2.4221
  506TIP3   OH222932   4.384   6.156   0.374  0.5769 -0.4191 -0.4587
  506TIP3    H122933   4.332   6.172   0.295  0.4580 -0.9558 -0.4942
  506TIP3    H222934   4.341   6.207   0.442 -1.8423 -3.0776  0.2306
  507TIP3   OH222935   0.732   2.550  16.670 -0.4783  0.0269  0.0151
  507TIP3    H122936   0.818   2.546  16.713  0.1825 -0.0929 -1.2666
  507TIP3    H222937   0.727   2.638  16.634 -0.5420 -0.2311 -0.6126
  508TIP3   OH222938   2.979   3.060  13.293 -0.0283 -0.3192 -0.1704
  508TIP3    H122939   2.945   2.996  13.355  1.5672  0.6058  1.7818
  508TIP3    H222940   3.068   3.032  13.276  0.0836  0.3531 -0.7535
  509TIP3   OH222941   0.366   5.425  14.671 -0.0432 -0.0771 -0.8091
  509TIP3    H122942   0.411   5.415  14.755 -1.4890 -0.1445 -0.0090
  509TIP3    H222943   0.353   5.335  14.640 -0.2404 -0.0882 -0.6961
  510TIP3   OH222944   2.347   2.258   0.379 -0.2128  0.2789 -0.1723
  510TIP3    H122945   2.391   2.333   0.338 -0.1294  0.2124 -0.2019
  510TIP3    H222946   2.412   2.188   0.379  0.1439  0.5812  1.0075
  511TIP3   OH222947   2.821   1.074   2.517 -0.2267  0.7852  0.5829
  511TIP3    H122948   2.809   0.980   2.530  1.3447  0.3936 -0.5897
  511TIP3    H222949   2.735   1.105   2.489 -0.1000 -0.8714 -1.9676
  512TIP3   OH222950   3.476   1.817   0.639 -0.3657 -0.1181 -0.2752
  512TIP3    H122951   3.386   1.786   0.628 -0.8364  1.3596 -0.8038
  512TIP3    H222952   3.529   1.738   0.634 -1.5377 -0.8812 -1.2179
  513TIP3   OH222953   4.984   0.259  12.435  0.0328  0.1724 -0.4576
  513TIP3    H122954   4.960   0.240  12.526  0.5191 -2.5755 -0.8095
  513TIP3    H222955   5.072   0.220  12.426  0.1670  0.7925 -1.9840
  514TIP3   OH222956   6.305   4.840  16.454  0.0330 -0.6130 -0.1094
  514TIP3    H122957   6.242   4.780  16.413  1.9713 -2.0377 -1.1475
  514TIP3    H222958   6.279   4.926  16.422 -2.0613 -0.9839  0.4030
  515TIP3   OH222959   1.324   1.249  13.726 -0.1218  0.6132 -0.6145
  515TIP3    H122960   1.243   1.240  13.675  0.6064  1.0960 -1.9082
  515TIP3    H222961   1.345   1.342  13.720 -0.1826  0.7514  0.8799
  516TIP3   OH222962   1.333   5.989   1.833  0.2400  0.6304  0.7180
  516TIP3    H122963   1.312   6.073   1.874 -0.1901  1.3188 -0.8238
  516TIP3    H222964   1.403   6.010   1.771  0.2952 -0.1852  0.4973
  517TIP3   OH222965   1.440   0.260  14.291  0.1275  0.1184 -0.2529
  517TIP3    H122966   1.380   0.213  14.232  0.3096  1.0351 -1.1907
  517TIP3    H222967   1.383   0.302  14.354 -0.0242 -1.7538  0.9434
  518TIP3   OH222968   3.246   1.938   3.232  0.0911 -0.4407 -0.0038
  518TIP3    H122969   3.156   1.918   3.208 -0.0771  0.6703 -0.3389
  518TIP3    H222970   3.251   1.922   3.326  0.2109 -2.8616 -0.3601
  519TIP3   OH222971   3.932   3.673  14.777 -0.2372 -0.0761 -0.0604
  519TIP3    H122972   3.985   3.594  14.773 -1.9799 -1.2486 -1.1256
  519TIP3    H222973   3.992   3.740  14.812  1.9234 -1.2993 -1.1989
  520TIP3   OH222974   4.969   0.536  12.949  0.1296  0.2012 -0.5845
  520TIP3    H122975   4.927   0.450  12.956 -0.8705  0.7485  0.6925
  520TIP3    H222976   5.061   0.516  12.931  0.6234 -1.3183  2.6844
  521TIP3   OH222977   4.391   0.971   2.789  0.5160  0.1039 -0.6234
  521TIP3    H122978   4.340   1.046   2.759  1.8670  1.0052 -0.7806
  521TIP3    H222979   4.389   0.910   2.715 -0.5441  0.0007 -0.5175
  522TIP3   OH222980   0.543   6.652  16.344  0.3523 -0.3796 -0.0981
  522TIP3    H122981   0.614   6.645  16.407 -0.1498 -1.7715  0.3710
  522TIP3    H222982   0.497   6.733  16.368  2.8112  1.6000 -1.6026
  523TIP3   OH222983   1.202   2.255  13.362  0.1744 -0.0839  0.6030
  523TIP3    H122984   1.168   2.344  13.349 -0.8713 -0.2954  1.6642
  523TIP3    H222985   1.124   2.200  13.369  0.8077 -1.1041 -0.0367
  524TIP3   OH222986   3.455   1.923   3.870  0.0771  0.1148 -0.6655
  524TIP3    H122987   3.425   1.981   3.940 -2.1671 -1.4879 -0.2101
  524TIP3    H222988   3.399   1.943   3.796  1.1609  0.4407 -1.4282
  525TIP3   OH222989   0.707   0.928  12.427 -0.4407 -0.1902 -0.1893
  525TIP3    H122990   0.678   0.841  12.455 -0.0903 -0.0876  0.5188
  525TIP3    H222991   0.658   0.988  12.483  0.1658  0.0234  0.1248
  526TIP3   OH222992   6.373   0.537   3.338  0.3300  0.2920  0.0636
  526TIP3    H122993   6.408   0.573   3.419 -0.3311 -2.0356  1.4774
  526TIP3    H222994   6.281   0.563   3.338  0.2660  0.0685  0.2049
  527TIP3   OH222995   1.143   2.649   1.415  0.2158 -0.3097 -0.2786
  527TIP3    H122996   1.062   2.639   1.365 -0.5247  2.5027  0.1401
  527TIP3    H222997   1.193   2.569   1.398 -2.3018 -1.8139 -1.1561
  528TIP3   OH222998   6.221   5.250   3.187 -0.0758 -0.5573  0.0957
  528TIP3    H122999   6.220   5.183   3.255 -0.6799 -0.7106 -0.0583
  528TIP3    H223000   6.286   5.219   3.124  1.3343  0.1563  1.1507
  529TIP3   OH223001   3.926   6.075   0.524  0.0824  0.6310  0.3595
  529TIP3    H123002   3.952   5.994   0.567 -0.3020 -0.0654 -0.6639
  529TIP3    H223003   3.874   6.046   0.448 -0.1870  1.8361  0.0598
  530TIP3   OH223004   4.699   3.774   4.127  0.0210  0.4356 -0.4078
  530TIP3    H123005   4.709   3.810   4.215 -0.9679 -0.9686  0.3239
  530TIP3    H223006   4.604   3.771   4.114  0.1443 -0.0387 -1.2274
  531TIP3   OH223007   0.879   6.096  15.140 -0.6582  0.0378 -0.0254
  531TIP3    H123008   0.809   6.098  15.075 -0.0133  0.8643 -0.7199
  531TIP3    H223009   0.935   6.170  15.118 -0.3532  0.2650  1.4190
  532TIP3   OH223010   0.397   4.553  13.111  0.3179 -0.1134 -0.2486
  532TIP3    H123011   0.376   4.464  13.141 -0.4142 -0.0828 -0.6472
  532TIP3    H223012   0.400   4.545  13.016 -0.3705  0.4203 -0.3186
  533TIP3   OH223013   1.907   4.165   0.218 -0.5887 -0.0210  0.0095
  533TIP3    H123014   1.839   4.106   0.186 -1.6912  1.6782 -0.9167
  533TIP3    H223015   1.922   4.138   0.309 -2.3102 -0.6189  0.1484
  534TIP3   OH223016   2.320   3.561   1.509 -0.4906  0.0018  0.2279
  534TIP3    H123017   2.311   3.567   1.604 -2.4255 -0.9177  0.1385
  534TIP3    H223018   2.324   3.652   1.479  0.1791  0.2978  1.1676
  535TIP3   OH223019   1.954   3.375   1.560  0.5461 -0.2951 -0.6014
  535TIP3    H123020   2.004   3.364   1.480  0.0330 -3.3019 -0.6048
  535TIP3    H223021   2.020   3.384   1.629  1.0036  0.4293 -1.1234
  536TIP3   OH223022   1.369   4.879  15.391  0.0767 -0.2342 -0.1922
  536TIP3    H123023   1.405   4.790  15.385 -0.4988 -0.8094  2.8770
  536TIP3    H223024   1.439   4.931  15.429  0.0506  0.3893 -0.9811
  537TIP3   OH223025   5.096   5.243   2.260 -0.5129 -0.6791 -0.0780
  537TIP3    H123026   5.027   5.241   2.327  0.3518 -0.7295  0.8451
  537TIP3    H223027   5.080   5.164   2.208 -0.1596 -1.6430  1.1926
  538TIP3   OH223028   5.294   2.937  11.946  0.7123 -0.3178 -0.1597
  538TIP3    H123029   5.373   2.990  11.943  0.8092 -0.5074 -1.1571
  538TIP3    H223030   5.309   2.868  11.881 -0.3140 -0.2950 -0.4285
  539TIP3   OH223031   4.108   5.889   0.697  0.0703 -0.0538 -0.3005
  539TIP3    H123032   4.090   5.834   0.621  0.7311 -1.0574  0.2440
  539TIP3    H223033   4.120   5.827   0.769 -0.1105  0.8555  0.5414
  540TIP3   OH223034   3.421   0.288   3.142 -0.0206 -0.4780 -0.0735
  540TIP3    H123035   3.396   0.381   3.140  0.3370 -0.3526 -2.8968
  540TIP3    H223036   3.354   0.245   3.088 -0.4627 -1.9954  1.6033
  541TIP3   OH223037   1.366   0.353   5.398 -0.1297  0.1292 -0.2790
  541TIP3    H123038   1.350   0.445   5.378 -0.4122 -0.1088 -1.1668
  541TIP3    H223039   1.378   0.311   5.313 -0.9634 -0.8379  0.0612
  542TIP3   OH223040   4.358   3.215   1.728 -0.2348  0.2203 -0.1183
  542TIP3    H123041   4.345   3.217   1.633 -1.3852 -2.7279 -0.1507
  542TIP3    H223042   4.295   3.150   1.758  2.7225 -1.8533  2.1498
  543TIP3   OH223043   5.359   5.340  15.463 -0.6310  0.2496  0.3117
  543TIP3    H123044   5.384   5.391  15.386  1.3362  0.0988  0.7943
  543TIP3    H223045   5.301   5.397  15.513  0.1858  1.3623  0.0126
  544TIP3   OH223046   4.481   5.515  15.684  0.0450 -0.1518 -0.2924
  544TIP3    H123047   4.475   5.606  15.713 -0.8252 -0.0932 -0.6224
  544TIP3    H223048   4.574   5.503  15.664 -0.2287  1.6804 -3.3163
  545TIP3   OH223049   1.638   2.830  15.941 -0.0735 -0.6402  0.4710
  545TIP3    H123050   1.545   2.837  15.921  0.1151  0.3413 -0.1079
  545TIP3    H223051   1.672   2.919  15.930  1.3155 -1.3346 -1.3444
  546TIP3   OH223052   3.352   5.167  14.766 -0.0442  0.6025 -0.1451
  546TIP3    H123053   3.419   5.126  14.711 -1.2029  0.1906 -1.2852
  546TIP3    H223054   3.348   5.257  14.736 -1.4063  0.1233 -1.5046
  547TIP3   OH223055   3.995   1.653  14.795 -0.0916  0.1640  0.7998
  547TIP3    H123056   4.024   1.737  14.830 -0.1436  0.5129  0.0225
  547TIP3    H223057   4.059   1.631  14.727 -0.3715 -0.1574  0.6313
  548TIP3   OH223058   3.199   0.541  10.696  0.1199  0.0854 -0.1211
  548TIP3    H123059   3.249   0.565  10.618 -0.1082  3.5656  0.6750
  548TIP3    H223060   3.253   0.571  10.769 -1.4563  0.5673  0.8931
  549TIP3   OH223061   4.130   4.013  17.369  0.1503  0.4265  0.4381
  549TIP3    H123062   4.084   4.082  17.322  0.5758  0.2322 -0.2960
  549TIP3    H223063   4.066   3.977  17.429 -1.0560 -0.6331 -1.3876
  550TIP3   OH223064   4.725   2.549  12.689  0.3742  0.1462  0.4706
  550TIP3    H123065   4.810   2.506  12.695 -0.0512 -0.5983  1.5691
  550TIP3    H223066   4.719   2.602  12.769 -0.3547 -0.1523  0.6262
  551TIP3   OH223067   5.915   5.145  16.574  0.0482  0.4668 -0.1802
  551TIP3    H123068   6.000   5.168  16.611 -0.0291 -0.2910  0.4902
  551TIP3    H223069   5.900   5.210  16.506  2.0142 -0.4906 -1.6045
  552TIP3   OH223070   0.824   1.825  14.541 -0.3111 -0.1319 -0.1321
  552TIP3    H123071   0.749   1.768  14.561  1.0268 -1.1843  2.3061
  552TIP3    H223072   0.901   1.771  14.557  1.0271  1.2917 -1.3981
  553TIP3   OH223073   0.956   1.810   5.327  0.3344 -0.2104 -0.8365
  553TIP3    H123074   0.988   1.747   5.393  2.8427  0.5317 -1.2121
  553TIP3    H223075   0.868   1.832   5.356 -0.3773 -3.3167 -0.2918
  554TIP3   OH223076   1.392   4.769   2.872  0.2371 -0.5444 -0.5888
  554TIP3    H123077   1.301   4.741   2.880  0.0996  0.0152 -0.0954
  554TIP3    H223078   1.394   4.856   2.912  0.7874 -0.1344 -1.4735
  555TIP3   OH223079   0.594   6.480   1.184  0.5614  0.5515  0.0228
  555TIP3    H123080   0.587   6.534   1.105  2.2785 -0.1470 -0.6527
  555TIP3    H223081   0.671   6.425   1.169  0.7440  0.1657  2.0534
  556TIP3   OH223082   5.885   5.710  16.977 -0.3215 -0.6098 -0.3379
  556TIP3    H123083   5.892   5.791  17.027  1.2572  0.6766 -2.4466
  556TIP3    H223084   5.963   5.661  16.999  0.0925 -0.2953 -1.0572
  557TIP3   OH223085   6.656   3.035  11.826 -0.9242 -0.3302  0.0782
  557TIP3    H123086   6.692   3.122  11.843 -0.6092 -0.7212  1.5914
  557TIP3    H223087   6.732   2.976  11.836 -1.8638 -1.1800  3.3527
  558TIP3   OH223088   5.998   4.305  16.901 -0.0316 -0.6808  0.0911
  558TIP3    H123089   5.905   4.311  16.883  0.4160  1.5013 -1.8766
  558TIP3    H223090   6.036   4.266  16.823  0.8436 -0.5100  0.4175
  559TIP3   OH223091   0.595   3.379  15.118  0.0675  0.1528 -0.0400
  559TIP3    H123092   0.675   3.357  15.071  0.0652 -0.8881  0.4299
  559TIP3    H223093   0.555   3.295  15.140 -1.6006  0.6321 -0.9778
  560TIP3   OH223094   2.604   0.846   2.113  0.4676  0.6025  0.5863
  560TIP3    H123095   2.647   0.929   2.134  1.6962  0.1835 -0.1851
  560TIP3    H223096   2.601   0.844   2.018  0.9517 -0.4925  0.5856
  561TIP3   OH223097   0.110   3.954   0.071  0.1492 -0.5448  0.3393
  561TIP3    H123098   0.099   4.047   0.050  2.0046 -0.0353  1.4353
  561TIP3    H223099   0.204   3.940   0.069 -0.0130 -2.0705  1.6084
  562TIP3   OH223100   4.872   6.740  12.969  0.1763 -0.3516 -0.0200
  562TIP3    H123101   4.843   6.681  13.039  1.4563 -0.9746  0.0194
  562TIP3    H223102   4.802   6.738  12.904 -1.0075  0.1954  1.2039
  563TIP3   OH223103   3.247   4.302  16.701 -0.4078  0.0958 -0.6427
  563TIP3    H123104   3.307   4.238  16.663  0.3863  1.0149 -0.9859
  563TIP3    H223105   3.274   4.308  16.793  0.1898  0.6771 -0.8516
  564TIP3   OH223106   1.163   4.452   3.001  0.1647  0.0414 -0.8203
  564TIP3    H123107   1.076   4.430   3.035  0.0551  1.5884  0.0132
  564TIP3    H223108   1.151   4.457   2.906 -0.1768 -1.6499 -0.8985
  565TIP3   OH223109   6.492   3.255  11.682 -0.8167  0.6019 -0.3276
  565TIP3    H123110   6.428   3.204  11.732  1.1256  1.6774  3.6694
  565TIP3    H223111   6.545   3.189  11.637 -0.9918 -0.6580  1.2402
  566TIP3   OH223112   3.316   3.038  17.316 -0.1619  0.3843 -0.3257
  566TIP3    H123113   3.396   2.988  17.299  0.5600  0.9494  1.2216
  566TIP3    H223114   3.248   2.992  17.267  0.7333 -1.3262 -0.0456
  567TIP3   OH223115   1.849   3.642   2.851 -0.4898 -0.0779 -0.1002
  567TIP3    H123116   1.943   3.656   2.858 -0.3467 -1.1479  0.1963
  567TIP3    H223117   1.836   3.549   2.869 -1.5336 -0.0906 -0.7917
  568TIP3   OH223118   0.289   0.501  15.941  0.2533  0.3750  0.0901
  568TIP3    H123119   0.307   0.446  15.865 -1.7628 -1.6546  0.9530
  568TIP3    H223120   0.328   0.453  16.015 -0.8527  0.4578  0.7519
  569TIP3   OH223121   5.657   2.964  13.674  0.0803 -0.2130 -0.3099
  569TIP3    H123122   5.628   3.055  13.673  0.7726  0.0613 -2.6495
  569TIP3    H223123   5.741   2.966  13.719  0.3950  0.4446 -0.9087
  570TIP3   OH223124   3.383   3.153   4.906  0.9168  0.1757 -0.1447
  570TIP3    H123125   3.329   3.077   4.886  1.4667 -0.2076 -0.1871
  570TIP3    H223126   3.415   3.136   4.995 -3.4356  2.9394  2.3474
  571TIP3   OH223127   2.860   4.786   4.703 -0.0821  0.0890  0.2236
  571TIP3    H123128   2.774   4.771   4.743 -0.2230  2.7849  1.0958
  571TIP3    H223129   2.885   4.873   4.732  2.7028 -0.3754 -0.5266
  572TIP3   OH223130   1.018   6.564  15.851 -0.4468  0.5350  0.5872
  572TIP3    H123131   0.969   6.631  15.803 -0.2500 -0.7957 -1.6516
  572TIP3    H223132   0.962   6.542  15.926 -2.9398 -0.2662 -1.3681
  573TIP3   OH223133   4.147   0.602   1.687 -0.5712  0.3379 -0.2619
  573TIP3    H123134   4.158   0.569   1.598  1.2928 -2.1148  0.7538
  573TIP3    H223135   4.068   0.559   1.719  0.1858 -0.8945  0.0493
  574TIP3   OH223136   2.097   2.321   0.024 -0.0699 -0.5323  0.2174
  574TIP3    H123137   2.054   2.310   0.108  1.6771 -0.2615  1.2074
  574TIP3    H223138   2.168   2.384   0.042 -0.9643  1.2386 -1.9518
  575TIP3   OH223139   0.938   2.017  17.283 -0.1660 -0.1410  0.4081
  575TIP3    H123140   0.922   1.952  17.215  0.2467 -0.3043  0.4601
  575TIP3    H223141   0.982   2.089  17.237  0.5774 -0.4696  0.5861
  576TIP3   OH223142   5.496   2.681   2.629 -0.6797 -0.1620 -0.1960
  576TIP3    H123143   5.434   2.636   2.571 -0.6273 -1.0393  0.4211
  576TIP3    H223144   5.530   2.753   2.575 -1.8404  0.0304 -0.7143
  577TIP3   OH223145   0.560   0.243   4.246  0.2365  0.6404  0.5294
  577TIP3    H123146   0.558   0.255   4.151  1.8360  0.4815  0.4387
  577TIP3    H223147   0.552   0.332   4.281 -0.6289  0.6745  0.2629
  578TIP3   OH223148   3.405   2.349   0.165 -0.1059  0.0486  0.4559
  578TIP3    H123149   3.453   2.416   0.117  1.4762 -0.6627  0.9901
  578TIP3    H223150   3.365   2.395   0.238  0.3993  0.5355  0.4297
  579TIP3   OH223151   4.023   4.381  16.715 -0.0523 -0.4048 -0.4360
  579TIP3    H123152   3.928   4.395  16.709  0.1693  1.6820  0.3619
  579TIP3    H223153   4.032   4.310  16.779 -1.0582 -0.9151 -0.8179
  580TIP3   OH223154   4.071   4.316  12.033  0.3981 -0.8380 -0.4973
  580TIP3    H123155   4.091   4.375  11.960 -1.9595 -0.1700 -0.6981
  580TIP3    H223156   4.000   4.261  12.000 -0.0333 -1.1948  0.9519
  581TIP3   OH223157   2.993   3.001   1.993 -0.0973 -0.0033 -0.4694
  581TIP3    H123158   2.904   3.029   2.017  0.1524 -0.6942  1.3603
  581TIP3    H223159   2.979   2.926   1.935 -0.7181 -0.1865 -0.0937
  582TIP3   OH223160   2.700   5.410   2.885 -0.2737 -0.1561 -0.3985
  582TIP3    H123161   2.632   5.357   2.926  1.8362 -1.6145  1.4389
  582TIP3    H223162   2.701   5.380   2.793 -2.3523  0.2456 -0.5986
  583TIP3   OH223163   3.728   0.896   0.290  0.3098 -0.0212  0.1602
  583TIP3    H123164   3.778   0.876   0.369 -0.7710  3.0340  1.7473
  583TIP3    H223165   3.637   0.874   0.313 -0.2880  2.5273  0.5402
  584TIP3   OH223166   5.958   1.849  12.088 -0.4923  0.1066 -0.2083
  584TIP3    H123167   6.033   1.907  12.073  0.3329 -0.7757  0.3542
  584TIP3    H223168   5.891   1.905  12.128  0.9165  0.3584  1.9688
  585TIP3   OH223169   6.437   3.577   3.659 -0.4935 -0.1102 -0.2322
  585TIP3    H123170   6.424   3.565   3.565 -0.1496  0.2428 -0.3303
  585TIP3    H223171   6.398   3.662   3.679 -0.6194 -0.2116 -0.0464
  586TIP3   OH223172   2.665   6.383   1.947  0.3955 -0.3860 -0.5740
  586TIP3    H123173   2.597   6.431   1.900  0.8334  0.3668 -0.4565
  586TIP3    H223174   2.619   6.336   2.016 -0.3252 -1.8700 -2.0053
  587TIP3   OH223175   3.847   5.965  16.752 -0.2126 -0.2954 -0.0148
  587TIP3    H123176   3.880   5.884  16.714 -1.2242 -0.9767  0.5016
  587TIP3    H223177   3.753   5.950  16.762 -0.7180  1.5624 -1.4162
  588TIP3   OH223178   1.465   1.722  15.888 -0.4677  0.3366 -0.2787
  588TIP3    H123179   1.454   1.642  15.940  0.4489 -0.1175 -0.7492
  588TIP3    H223180   1.378   1.761  15.886 -0.8119 -0.3533  0.4404
  589TIP3   OH223181   5.167   2.717   0.868 -0.7124 -0.2762  0.4902
  589TIP3    H123182   5.093   2.767   0.833  0.9656  1.1297 -1.2310
  589TIP3    H223183   5.201   2.772   0.939 -1.1038 -0.7867  1.0870
  590TIP3   OH223184   0.302   3.715   1.696  0.0738  0.0678 -0.3267
  590TIP3    H123185   0.232   3.699   1.759  1.6980 -0.2546  1.4884
  590TIP3    H223186   0.304   3.637   1.641  0.8229 -1.2230  1.4506
  591TIP3   OH223187   2.473   5.948   1.625 -0.4840  0.0757 -0.4133
  591TIP3    H123188   2.545   5.989   1.673 -0.0214 -0.4890 -0.6016
  591TIP3    H223189   2.517   5.888   1.564 -1.1126 -0.1751 -0.6222
  592TIP3   OH223190   1.245   0.697  15.805  0.6088 -0.7313 -0.6838
  592TIP3    H123191   1.301   0.774  15.814  0.4228 -0.7920  2.0521
  592TIP3    H223192   1.186   0.718  15.733  2.0047  0.7212 -1.4517
  593TIP3   OH223193   3.412   1.956   4.620 -0.3888 -0.0509 -0.2744
  593TIP3    H123194   3.500   1.921   4.635 -0.6687 -1.1368 -1.0619
  593TIP3    H223195   3.427   2.043   4.585  0.4226 -0.6580 -1.5033
  594TIP3   OH223196   3.122   0.741   1.006 -0.4583 -0.2759 -0.6746
  594TIP3    H123197   3.140   0.834   1.021 -2.7165  0.3854 -1.6984
  594TIP3    H223198   3.103   0.735   0.913 -1.2508 -1.5860 -0.4456
  595TIP3   OH223199   5.947   6.628   4.017 -0.8528 -0.5293 -0.5425
  595TIP3    H123200   5.892   6.555   4.045 -2.3974  0.7833 -0.0076
  595TIP3    H223201   5.907   6.705   4.056  1.5231  0.5019  0.0545
  596TIP3   OH223202   4.459   0.878   4.595 -0.0779 -0.4723  0.0847
  596TIP3    H123203   4.480   0.871   4.502 -0.8821  1.0556 -0.2456
  596TIP3    H223204   4.512   0.810   4.637  0.3809 -1.1176 -1.4631
  597TIP3   OH223205   4.776   3.619  15.886  0.4095 -0.2156 -0.5938
  597TIP3    H123206   4.864   3.596  15.914 -0.2251  0.8456  2.7078
  597TIP3    H223207   4.789   3.683  15.816  2.2943  0.4676  0.3270
  598TIP3   OH223208   4.337   4.881  17.165 -0.1245 -0.0532 -0.0914
  598TIP3    H123209   4.426   4.883  17.130 -0.0128  0.6600  0.2239
  598TIP3    H223210   4.288   4.828  17.102  0.2881  0.3954 -0.8085
  599TIP3   OH223211   5.286   3.164   5.014 -0.3351 -0.3538  0.3597
  599TIP3    H123212   5.244   3.188   4.931 -0.9521 -0.1952  0.7080
  599TIP3    H223213   5.241   3.084   5.041 -1.3648  0.5416  1.3984
  600TIP3   OH223214   6.744   2.142  12.262 -0.1641  0.0061 -0.0174
  600TIP3    H123215   6.786   2.089  12.330 -0.2289  1.2347  1.0330
  600TIP3    H223216   6.754   2.092  12.182  3.1300  0.1026  0.2057
  601TIP3   OH223217   2.959   5.916   1.184  0.1349  0.0953 -0.1993
  601TIP3    H123218   2.917   5.900   1.269 -0.9483  0.4532 -0.6440
  601TIP3    H223219   3.052   5.924   1.204 -0.3565  3.3091  1.4345
  602TIP3   OH223220   1.081   4.348   1.195 -0.5546  0.2698 -0.2577
  602TIP3    H123221   1.046   4.389   1.116 -2.0660 -0.0836  0.2028
  602TIP3    H223222   1.147   4.409   1.227 -1.5937  1.5533 -0.5053
  603TIP3   OH223223   0.791   5.114  11.543 -0.5088  0.1648 -0.1741
  603TIP3    H123224   0.880   5.142  11.523 -1.0295 -0.3017 -3.6893
  603TIP3    H223225   0.792   5.019  11.530 -1.2201 -0.0724  1.2449
  604TIP3   OH223226   6.414   0.236   4.090 -0.3452 -0.7617 -0.0788
  604TIP3    H123227   6.435   0.208   4.179 -0.7925  1.8844  0.9408
  604TIP3    H223228   6.325   0.206   4.076 -0.6691 -0.2490  0.8092
  605TIP3   OH223229   3.030   0.727   0.496 -0.2343  0.4734 -0.0440
  605TIP3    H123230   3.102   0.788   0.482  0.8862 -1.0500 -1.2414
  605TIP3    H223231   2.972   0.741   0.421 -0.6291  0.9291  0.3412
  606TIP3   OH223232   0.363   3.799  15.803  0.7001 -0.1646  0.3906
  606TIP3    H123233   0.277   3.774  15.769  0.6330 -1.2545  1.3024
  606TIP3    H223234   0.344   3.857  15.877  0.7870  0.5025 -0.1048
  607TIP3   OH223235   2.231   3.166   2.460 -0.2367 -0.1925  0.5546
  607TIP3    H123236   2.259   3.201   2.545  0.5168 -0.7998  0.5593
  607TIP3    H223237   2.138   3.145   2.473 -0.1709 -0.1227  1.1769
  608TIP3   OH223238   2.282   2.141   2.820  0.0178 -0.0426  0.9290
  608TIP3    H123239   2.324   2.105   2.742 -2.3095  1.1473 -1.0274
  608TIP3    H223240   2.221   2.073   2.849 -1.7225  0.7955 -0.5580
  609TIP3   OH223241   1.562   3.647   3.244  0.5032 -1.0932 -0.0388
  609TIP3    H123242   1.484   3.591   3.248  1.1685 -2.0064  0.8341
  609TIP3    H223243   1.530   3.731   3.212 -0.6161 -1.8183 -0.8994
  610TIP3   OH223244   3.147   1.096   3.910 -0.3364  0.0712  0.3029
  610TIP3    H123245   3.161   1.160   3.840 -1.6477  1.1135  0.9597
  610TIP3    H223246   3.207   1.025   3.888  0.5501  1.1298 -0.9198
  611TIP3   OH223247   4.917   2.043   3.991 -0.3852  0.2067 -0.1647
  611TIP3    H123248   4.983   2.058   3.923  0.3994 -0.2753  0.4573
  611TIP3    H223249   4.928   1.951   4.015  0.0780  0.6002  1.3056
  612TIP3   OH223250   4.442   5.588   4.581 -0.0710 -0.0004 -0.1110
  612TIP3    H123251   4.365   5.614   4.529  0.9236  2.5588 -0.4428
  612TIP3    H223252   4.437   5.643   4.659  1.4318  0.2456 -0.1666
  613TIP3   OH223253   5.740   6.709  13.078 -0.2567 -0.4533 -0.6278
  613TIP3    H123254   5.764   6.716  12.986  0.9611  2.8456 -0.2324
  613TIP3    H223255   5.818   6.672  13.120 -0.1580 -0.3935 -0.7559
  614TIP3   OH223256   6.704   2.592  14.154 -0.3521 -0.0484 -0.2306
  614TIP3    H123257   6.751   2.517  14.117  2.0121  1.1505  0.2241
  614TIP3    H223258   6.733   2.667  14.102 -3.0485  0.5769 -1.0076
  615TIP3   OH223259   5.017   5.832  14.018 -0.6540 -0.0185 -0.3838
  615TIP3    H123260   4.939   5.865  14.062 -1.8896  0.5839 -2.8522
  615TIP3    H223261   5.069   5.792  14.088 -0.6569  4.0628  2.2377
  616TIP3   OH223262   4.853   0.050   3.201 -0.3708  0.3171  0.0698
  616TIP3    H123263   4.890  -0.028   3.161 -0.1146  1.4202 -1.9768
  616TIP3    H223264   4.761   0.050   3.175 -0.3362  0.7631 -0.0694
  617TIP3   OH223265   3.138   4.875   0.790 -0.3764  0.3342 -0.0684
  617TIP3    H123266   3.043   4.888   0.795 -0.3020  0.5360  1.1764
  617TIP3    H223267   3.168   4.889   0.880  0.6805 -0.9355 -0.1951
  618TIP3   OH223268   1.080   3.526   4.388 -0.0089 -0.5424  0.2710
  618TIP3    H123269   1.032   3.579   4.452  1.1033 -0.4119  1.0252
  618TIP3    H223270   1.042   3.550   4.304 -0.8619 -0.0125  0.7932
  619TIP3   OH223271   2.826   0.559   2.814 -0.5939  0.3679  0.4037
  619TIP3    H123272   2.775   0.550   2.894 -0.9992 -1.5888 -0.0302
  619TIP3    H223273   2.768   0.603   2.752 -1.7643 -1.7188 -0.0453
  620TIP3   OH223274   6.157   2.130   2.843 -0.3468  0.2229 -0.2100
  620TIP3    H123275   6.115   2.184   2.776 -1.7339 -0.2781  0.2019
  620TIP3    H223276   6.117   2.160   2.925 -1.6140 -1.7634 -0.0183
  621TIP3   OH223277   6.123   6.456   1.575 -0.0171 -0.5211  0.1651
  621TIP3    H123278   6.103   6.549   1.568 -0.4230 -0.4644  1.7291
  621TIP3    H223279   6.176   6.437   1.498  0.4795  1.0989  0.0746
  622TIP3   OH223280   3.217   6.695   2.746  0.4069  0.6315  0.7346
  622TIP3    H123281   3.297   6.732   2.707 -0.5559  0.5824 -1.3951
  622TIP3    H223282   3.206   6.611   2.702 -0.1955  0.0963  1.8797
  623TIP3   OH223283   0.903   1.919   6.345  0.3122 -0.3471 -0.0894
  623TIP3    H123284   0.927   1.890   6.433 -0.0985  0.9563  0.4673
  623TIP3    H223285   0.808   1.928   6.347  0.5038  2.6078  0.3185
  624TIP3   OH223286   2.053   2.872   2.666 -0.6293  0.2641 -0.1812
  624TIP3    H123287   2.138   2.885   2.708 -1.3955 -0.5730  1.7868
  624TIP3    H223288   2.070   2.810   2.596  0.5174  0.7509 -0.3509
  625TIP3   OH223289   1.392   5.549  12.456  0.6909 -0.3098  0.7753
  625TIP3    H123290   1.481   5.514  12.468  1.1304 -0.0441 -1.3488
  625TIP3    H223291   1.377   5.543  12.362 -2.4068 -2.3606  1.2789
  626TIP3   OH223292   2.634   1.794   0.909 -0.7241  0.0300 -0.0032
  626TIP3    H123293   2.579   1.746   0.847 -0.9678 -0.5478  0.6412
  626TIP3    H223294   2.607   1.885   0.900  0.5361  0.2645 -2.0829
  627TIP3   OH223295   5.052   0.437  11.702  0.0453  0.0554  0.4699
  627TIP3    H123296   5.051   0.376  11.776  0.7432  1.4203  1.6601
  627TIP3    H223297   4.999   0.394  11.635 -1.4595 -0.7884  2.1162
  628TIP3   OH223298   5.109   3.237   1.728  0.4146 -0.4705 -1.0977
  628TIP3    H123299   5.138   3.314   1.680  1.1351 -0.6083 -0.8917
  628TIP3    H223300   5.118   3.261   1.820 -1.0183 -0.1843 -1.0093
  629TIP3   OH223301   3.442   3.104  15.658  0.0153  0.3114  0.2901
  629TIP3    H123302   3.485   3.118  15.743  0.3344  0.2467  0.1390
  629TIP3    H223303   3.360   3.153  15.665 -0.6037 -0.7883  1.1471
  630TIP3   OH223304   3.042   4.678  16.054  0.1668  0.5096  0.5733
  630TIP3    H123305   2.970   4.693  16.115  0.2805  1.4505  0.4941
  630TIP3    H223306   3.116   4.654  16.109 -0.1334 -0.2006  0.6751
  631TIP3   OH223307   5.711   4.454   3.263 -0.3529  0.3311  0.0773
  631TIP3    H123308   5.617   4.470   3.250 -0.6627 -1.1028  0.4042
  631TIP3    H223309   5.727   4.371   3.218  0.6177  0.2119  0.6276
  632TIP3   OH223310   3.279   5.435   1.092  0.2386 -0.1954  0.0684
  632TIP3    H123311   3.289   5.407   1.001  1.1913 -1.5832  0.5520
  632TIP3    H223312   3.186   5.424   1.111  0.1285 -0.4180 -0.5753
  633TIP3   OH223313   3.224   3.826   4.387  0.8826 -0.1589  0.2756
  633TIP3    H123314   3.308   3.868   4.402  0.5636  0.7363 -0.3640
  633TIP3    H223315   3.182   3.879   4.318 -0.6094  0.0164  1.2655
  634TIP3   OH223316   2.390   3.969  13.264 -0.3729 -0.8738  0.2270
  634TIP3    H123317   2.420   4.019  13.340  0.9829  1.9257 -1.9313
  634TIP3    H223318   2.296   3.959  13.277 -0.0201 -1.6737  2.8186
  635TIP3   OH223319   1.670   3.070   4.191  0.2029 -0.4842  0.3685
  635TIP3    H123320   1.611   3.133   4.150  1.4865  0.7144  0.2701
  635TIP3    H223321   1.732   3.048   4.122  0.6871 -0.6568  0.8529
  636TIP3   OH223322   3.328   4.230   1.303  0.2405 -0.0518 -0.8602
  636TIP3    H123323   3.357   4.150   1.347  1.1559  0.5734 -0.2754
  636TIP3    H223324   3.271   4.273   1.366 -0.5196 -0.3931 -1.3036
  637TIP3   OH223325   4.829   1.161  16.322  0.0680 -0.1509 -0.5629
  637TIP3    H123326   4.749   1.159  16.373 -0.1117 -0.0603 -0.8367
  637TIP3    H223327   4.835   1.251  16.289  0.7294  0.0739  0.1525
  638TIP3   OH223328   0.083   2.721  14.447  0.3058  0.6418  0.0671
  638TIP3    H123329   0.125   2.807  14.452 -1.5586  1.6900 -1.3471
  638TIP3    H223330   0.073   2.704  14.353  0.6863 -1.1925  0.3075
  639TIP3   OH223331   2.957   4.983  11.560  0.2466 -0.4491  0.5889
  639TIP3    H123332   3.018   5.016  11.626  0.5044 -0.0779  0.1723
  639TIP3    H223333   2.871   5.011  11.591  0.2347 -1.3572  1.4107
  640TIP3   OH223334   1.153   5.341   4.432 -0.0794  0.4007 -0.1184
  640TIP3    H123335   1.109   5.357   4.348 -0.5508  0.2276  0.0947
  640TIP3    H223336   1.237   5.301   4.407  0.9655  2.7267 -0.6470
  641TIP3   OH223337   2.742   3.377  12.415  0.0848 -0.1943  0.7081
  641TIP3    H123338   2.713   3.361  12.504  1.2494  1.9888  1.5543
  641TIP3    H223339   2.828   3.334  12.410  0.6533  0.8653  1.1253
  642TIP3   OH223340   1.977   3.106  11.068  0.2650  0.2364 -0.1903
  642TIP3    H123341   2.034   3.041  11.110 -0.3633  0.4095  0.9965
  642TIP3    H223342   2.037   3.166  11.026  0.8876 -0.6646 -0.6235
  643TIP3   OH223343   6.289   3.368  12.681 -0.3463 -0.4917 -0.0103
  643TIP3    H123344   6.249   3.401  12.761  1.1707  0.7080  0.3139
  643TIP3    H223345   6.215   3.342  12.626 -1.4320 -0.8548  1.5536
  644TIP3   OH223346   2.932   3.714   3.477 -0.5258 -0.1184  0.0603
  644TIP3    H123347   2.892   3.799   3.497 -0.3373 -0.2876  1.2391
  644TIP3    H223348   2.932   3.668   3.561  0.7886 -0.6949 -0.2415
  645TIP3   OH223349   2.589   4.690   0.464 -0.1356  0.0629  0.4524
  645TIP3    H123350   2.556   4.776   0.490 -1.6144  0.1538 -1.5068
  645TIP3    H223351   2.632   4.705   0.380  1.1816 -0.8435  0.9330
  646TIP3   OH223352   0.023   4.248   4.824 -0.7046 -0.2049  0.4551
  646TIP3    H123353  -0.016   4.296   4.751  1.8086  0.7920 -0.3440
  646TIP3    H223354   0.055   4.167   4.784 -1.9910 -1.0875  1.1321
  647TIP3   OH223355   1.004   3.006  15.875 -0.2103 -0.0714 -0.4620
  647TIP3    H123356   0.950   3.042  15.945  0.2343 -0.9025  0.3382
  647TIP3    H223357   1.067   3.075  15.854 -0.4589  0.2457 -0.1672
  648TIP3   OH223358   3.502   4.540   5.175  0.8828 -0.1412 -0.1149
  648TIP3    H123359   3.593   4.564   5.159  1.3552  0.4407  2.8360
  648TIP3    H223360   3.505   4.449   5.203  0.4111 -0.4019 -0.8694
  649TIP3   OH223361   6.572   1.762   4.674  0.1518  0.1964  0.0108
  649TIP3    H123362   6.540   1.841   4.631 -2.1706 -0.4678  0.3772
  649TIP3    H223363   6.517   1.691   4.638  1.0656 -0.9970  0.8871
  650TIP3   OH223364   3.961   5.573  11.212  0.0406  0.5135  0.0181
  650TIP3    H123365   3.945   5.608  11.125  0.6600  1.9173  0.4314
  650TIP3    H223366   4.014   5.494  11.198 -0.2122  0.5022 -0.8902
  651TIP3   OH223367   2.631   1.479  13.090 -0.3187  0.2719  0.2482
  651TIP3    H123368   2.609   1.555  13.037 -0.6878 -0.4563 -0.6739
  651TIP3    H223369   2.567   1.479  13.160 -0.2512  0.8695  0.3123
  652TIP3   OH223370   2.767   2.557  15.883  0.1701  0.0648  0.5227
  652TIP3    H123371   2.852   2.538  15.843 -0.2451  0.4211 -0.5541
  652TIP3    H223372   2.774   2.647  15.914 -0.9002  1.3655 -2.6419
  653TIP3   OH223373   0.685   3.355   3.852 -0.3283  0.5295  0.0068
  653TIP3    H123374   0.627   3.385   3.783 -0.8239  0.0486  0.2114
  653TIP3    H223375   0.631   3.355   3.931 -0.3354 -0.8652  0.0157
  654TIP3   OH223376   3.320   1.629   3.230  0.3622  0.1141 -0.1499
  654TIP3    H123377   3.226   1.642   3.239  0.1365 -0.7395 -1.0615
  654TIP3    H223378   3.342   1.671   3.146  1.1263  1.8113  0.8383
  655TIP3   OH223379   4.303   0.883  14.910  0.4031 -0.1568 -0.0244
  655TIP3    H123380   4.240   0.897  14.839 -1.3981  1.1585  1.7269
  655TIP3    H223381   4.304   0.788  14.923  0.5726 -0.4070 -1.5811
  656TIP3   OH223382   4.228   0.044  13.470 -0.1706 -0.3003 -0.4638
  656TIP3    H123383   4.196   0.134  13.464  0.7182  0.0650  0.1117
  656TIP3    H223384   4.183   0.007  13.546  0.6043  0.1516  0.2284
  657TIP3   OH223385   2.251   6.083   4.149  0.0402  0.2338  0.3115
  657TIP3    H123386   2.245   5.989   4.168 -2.2494  0.1517 -0.5774
  657TIP3    H223387   2.246   6.088   4.054 -1.2866  1.3241  0.4149
  658TIP3   OH223388   5.812   0.519  12.693 -0.3141 -0.0011 -0.4638
  658TIP3    H123389   5.830   0.509  12.599  2.0218 -2.7087  0.1381
  658TIP3    H223390   5.859   0.598  12.718 -0.3137  0.3194 -1.4237
  659TIP3   OH223391   3.076   0.304  11.128  0.1013  0.5236  0.0644
  659TIP3    H123392   3.107   0.255  11.052 -1.0312  0.6466 -0.4972
  659TIP3    H223393   3.083   0.243  11.201  0.4740  0.1534 -0.2774
  660TIP3   OH223394   6.198   4.073  14.410  0.3871 -0.1041 -0.1372
  660TIP3    H123395   6.283   4.098  14.372  0.0873  2.3319  0.6239
  660TIP3    H223396   6.190   3.980  14.391  3.1914 -0.3962 -0.3223
  661TIP3   OH223397   6.756   2.177   2.956 -0.4819  0.5618 -0.0720
  661TIP3    H123398   6.821   2.222   3.011 -0.0181 -0.2031  0.0210
  661TIP3    H223399   6.727   2.103   3.009  0.1453 -0.3231 -0.9321
  662TIP3   OH223400   5.265   2.455   1.205 -1.1841 -0.3790 -0.4169
  662TIP3    H123401   5.338   2.513   1.185 -1.5152  1.1850  2.4653
  662TIP3    H223402   5.298   2.367   1.185  2.0911  0.0942  2.0913
  663TIP3   OH223403   5.843   5.579  10.575  0.4768  0.1516  0.5272
  663TIP3    H123404   5.871   5.510  10.516 -0.7624 -0.0756  0.1762
  663TIP3    H223405   5.748   5.582  10.566  0.4843  1.8543  0.5813
  664TIP3   OH223406   1.630   3.877   5.233  0.2035  0.0178 -0.1995
  664TIP3    H123407   1.679   3.917   5.304  1.2302 -0.4291 -0.6395
  664TIP3    H223408   1.561   3.940   5.213  1.7980  1.6411 -0.9056
  665TIP3   OH223409   4.442   4.727  13.077  0.1110  0.5701 -0.5245
  665TIP3    H123410   4.497   4.797  13.042 -0.7322  2.0942  1.0640
  665TIP3    H223411   4.454   4.732  13.172 -0.1035 -1.3561 -0.3531
  666TIP3   OH223412   0.472   6.030   5.942 -0.7252 -0.5620  0.5205
  666TIP3    H123413   0.401   6.087   5.913  0.5905  0.7295 -0.2939
  666TIP3    H223414   0.439   5.990   6.022 -2.0468  0.6386  0.6158
  667TIP3   OH223415   0.612   2.850  15.311  0.2188 -0.0457 -0.3399
  667TIP3    H123416   0.610   2.763  15.351  0.6009  0.5365  1.0038
  667TIP3    H223417   0.662   2.838  15.230  0.7749 -0.9642  0.1270
  668TIP3   OH223418   5.554   5.477  14.802 -0.2615  0.2223  0.1559
  668TIP3    H123419   5.463   5.492  14.827 -0.1113 -0.6377  1.3111
  668TIP3    H223420   5.553   5.396  14.752 -0.2832  0.8607 -0.8953
  669TIP3   OH223421   3.525   6.333   3.298  0.8780  0.1654 -0.2000
  669TIP3    H123422   3.573   6.265   3.345  0.4132  0.3612  0.5728
  669TIP3    H223423   3.562   6.331   3.209  1.2792 -0.6826 -0.0265
  670TIP3   OH223424   2.716   6.462  16.854  0.3074  0.4435  0.1255
  670TIP3    H123425   2.806   6.429  16.856 -0.4147 -1.6980 -0.1891
  670TIP3    H223426   2.667   6.401  16.909 -0.7903  2.2053  1.1878
  671TIP3   OH223427   4.238   4.388  13.480 -0.5795 -0.1486  0.0681
  671TIP3    H123428   4.189   4.448  13.536  1.4834  1.2416  0.4974
  671TIP3    H223429   4.298   4.344  13.541  0.4467  0.0638 -0.7635
  672TIP3   OH223430   5.571   4.602  15.462  0.6904  0.2537  0.3212
  672TIP3    H123431   5.528   4.622  15.379 -1.5091 -0.7540  1.1352
  672TIP3    H223432   5.567   4.683  15.512 -1.5278 -0.1452  0.8639
  673TIP3   OH223433   3.847   5.053   1.641 -0.2929 -0.1224 -0.0090
  673TIP3    H123434   3.913   4.992   1.608  1.2791  0.3827  2.0066
  673TIP3    H223435   3.764   5.006   1.631  0.4598 -1.2106 -1.6069
  674TIP3   OH223436   5.307   6.484  16.121  0.5367  0.1154 -0.0001
  674TIP3    H123437   5.393   6.486  16.164  0.3398  1.4638  0.3983
  674TIP3    H223438   5.260   6.413  16.165  0.2930  1.5432  2.2035
  675TIP3   OH223439   1.714   4.385   0.458 -0.0007  0.1184 -0.7303
  675TIP3    H123440   1.682   4.298   0.435  0.5339 -0.0480 -0.8450
  675TIP3    H223441   1.799   4.369   0.500  0.1000  0.5857 -0.7557
  676TIP3   OH223442   1.767   1.224  12.425 -0.3145  0.2927  0.1210
  676TIP3    H123443   1.685   1.188  12.459  0.2702 -0.5346  0.7055
  676TIP3    H223444   1.818   1.148  12.400  0.9203  0.6936  1.3033
  677TIP3   OH223445   5.058   2.857   1.465  0.3720  0.7003 -0.6088
  677TIP3    H123446   5.007   2.812   1.533  1.2413 -0.2907 -0.5858
  677TIP3    H223447   5.057   2.796   1.391  1.9239  0.4275 -0.4340
  678TIP3   OH223448   5.143   5.244  12.703  0.6403 -0.0183 -0.2382
  678TIP3    H123449   5.084   5.185  12.751  0.3792  0.2254 -0.2583
  678TIP3    H223450   5.126   5.224  12.611 -0.6560  1.2285 -0.3089
  679TIP3   OH223451   4.279   2.628   6.004  0.0769 -0.3055 -0.6006
  679TIP3    H123452   4.232   2.705   5.973  1.0020  1.2628  1.5658
  679TIP3    H223453   4.367   2.660   6.024  0.1830 -1.6366  1.3732
  680TIP3   OH223454   6.297   6.636   1.289 -0.2350 -0.1886 -0.3534
  680TIP3    H123455   6.229   6.650   1.356 -0.0467  1.4924 -0.4624
  680TIP3    H223456   6.251   6.648   1.206  0.4636  2.8566 -0.4164
  681TIP3   OH223457   0.407   6.501   1.371  0.0186  0.0351  0.3326
  681TIP3    H123458   0.480   6.492   1.310 -0.6106 -0.5024 -0.3514
  681TIP3    H223459   0.361   6.580   1.342  0.4157  0.4694  0.8660
  682TIP3   OH223460   3.083   5.853   2.755  0.3044  0.0972 -0.4113
  682TIP3    H123461   3.091   5.784   2.822  0.4376  0.4845 -0.0234
  682TIP3    H223462   2.996   5.889   2.769  0.3457  0.2023 -0.4274
  683TIP3   OH223463   3.927   6.536   0.652  0.0571  0.4564  0.5329
  683TIP3    H123464   3.896   6.463   0.599  0.7839 -1.0403  2.0639
  683TIP3    H223465   4.000   6.572   0.602 -0.0445 -0.1376 -0.0596
  684TIP3   OH223466   3.194   4.506   2.268  0.1361 -0.0390  0.2076
  684TIP3    H123467   3.262   4.498   2.201 -0.1112 -0.6493  0.0148
  684TIP3    H223468   3.235   4.556   2.338  0.7924 -0.4203  0.1055
  685TIP3   OH223469   4.578   0.379  11.260  0.3734 -0.5421  0.0919
  685TIP3    H123470   4.511   0.416  11.204  0.5462 -1.8869 -1.0603
  685TIP3    H223471   4.534   0.308  11.307  0.8272 -1.0081 -0.1813
  686TIP3   OH223472   3.291   4.466   5.718  0.1537  0.1895 -0.6185
  686TIP3    H123473   3.354   4.483   5.647  2.5423  0.2979  1.3753
  686TIP3    H223474   3.243   4.548   5.728  1.9406  1.2363 -0.1681
  687TIP3   OH223475   3.438   3.861  15.180 -0.0091  0.0155  0.1150
  687TIP3    H123476   3.374   3.867  15.109 -1.5478 -0.6157  1.3882
  687TIP3    H223477   3.401   3.917  15.250  0.6528 -0.6128  0.9901
  688TIP3   OH223478   5.738   0.771  16.078  0.5481 -0.8172 -0.3737
  688TIP3    H123479   5.754   0.686  16.037  0.2337 -0.7497 -0.6383
  688TIP3    H223480   5.672   0.753  16.145  1.0757 -0.9317  0.1317
  689TIP3   OH223481   1.894   5.112   5.917 -0.7273  0.7082  0.3428
  689TIP3    H123482   1.856   5.069   5.840  1.3246  0.8753 -0.8336
  689TIP3    H223483   1.920   5.040   5.974 -1.0401  0.5323  0.2669
  690TIP3   OH223484   1.229   1.760   2.601  0.2263  0.9830 -0.1366
  690TIP3    H123485   1.243   1.746   2.695  1.1376 -1.0437 -0.5107
  690TIP3    H223486   1.140   1.730   2.586  0.4966  0.1257 -0.0965
  691TIP3   OH223487   1.512   2.132  13.669  1.0629  0.3321  0.2174
  691TIP3    H123488   1.448   2.078  13.622  0.6952  1.1782 -0.2865
  691TIP3    H223489   1.491   2.222  13.642  3.1431  0.5672 -0.8557
  692TIP3   OH223490   4.900   5.095   2.650 -0.4820 -0.0263  0.2911
  692TIP3    H123491   4.853   5.136   2.578  0.5245 -0.9667 -0.9571
  692TIP3    H223492   4.835   5.086   2.719 -2.0232 -0.8207 -1.1897
  693TIP3   OH223493   4.340   3.963   0.256  0.1279 -0.0433  0.0386
  693TIP3    H123494   4.384   3.966   0.341 -0.4883 -0.5981  0.3903
  693TIP3    H223495   4.264   3.907   0.271 -1.3224  1.7447 -0.2417
  694TIP3   OH223496   1.240   2.932  16.155  0.7423  0.1554  0.2237
  694TIP3    H123497   1.292   3.012  16.163  0.1173  0.8669 -2.0002
  694TIP3    H223498   1.159   2.950  16.202 -0.1382  1.5936 -1.7099
  695TIP3   OH223499   2.663   0.978  14.715  0.0003 -0.0273 -0.5344
  695TIP3    H123500   2.677   1.064  14.674 -0.4276 -0.3765 -1.4309
  695TIP3    H223501   2.591   0.993  14.777  0.9081  0.5932  0.4005
  696TIP3   OH223502   4.841   6.237  12.223  0.1135 -0.0973 -1.0612
  696TIP3    H123503   4.892   6.163  12.255  0.7615  1.3509  1.5238
  696TIP3    H223504   4.898   6.278  12.157  0.1787 -1.2443 -1.7505
  697TIP3   OH223505   5.047   2.924  12.679  0.1119  0.0804  0.1935
  697TIP3    H123506   4.975   2.869  12.709  0.6204  0.3821  2.0654
  697TIP3    H223507   5.015   2.963  12.598 -0.7236 -1.9757 -0.5308
  698TIP3   OH223508   4.471   2.453   4.163 -0.0157  0.2165 -0.2998
  698TIP3    H123509   4.417   2.529   4.181 -1.3208 -1.3285  2.9595
  698TIP3    H223510   4.503   2.467   4.073 -3.5562  2.5263 -1.3819
  699TIP3   OH223511   3.862   6.302  15.176 -0.3118  0.3519 -0.2219
  699TIP3    H123512   3.905   6.219  15.195  1.4241  1.4749  1.1270
  699TIP3    H223513   3.768   6.284  15.186 -0.2479 -2.0911 -2.8661
  700TIP3   OH223514   3.714   0.388  17.201 -0.4143  0.3920 -0.0105
  700TIP3    H123515   3.629   0.381  17.157  0.0447 -0.6502 -0.7854
  700TIP3    H223516   3.777   0.357  17.136  0.5258  0.8267  0.6724
  701TIP3   OH223517   0.415   4.174  11.899  1.0083 -0.1697 -0.0714
  701TIP3    H123518   0.459   4.096  11.932 -2.5167 -3.3237 -2.1114
  701TIP3    H223519   0.476   4.212  11.836  2.6303 -1.4879  0.6315
  702TIP3   OH223520   0.284   4.767  13.929 -0.2408  0.3674  0.1704
  702TIP3    H123521   0.361   4.712  13.913 -0.6125 -0.6204  1.5543
  702TIP3    H223522   0.282   4.828  13.856  0.3997 -1.2465 -1.2535
  703TIP3   OH223523   2.803   5.701   5.577  0.3534  0.1698  0.0837
  703TIP3    H123524   2.798   5.705   5.672  0.7179  2.3030  0.0641
  703TIP3    H223525   2.872   5.638   5.559  0.8896  0.4058  1.2582
  704TIP3   OH223526   2.319   3.454  10.676 -0.1390 -0.5555 -0.0757
  704TIP3    H123527   2.347   3.405  10.753 -0.7769  0.9209  1.1249
  704TIP3    H223528   2.224   3.444  10.675 -0.3561  1.2129  0.6032
  705TIP3   OH223529   6.079   2.767  13.035 -0.8071  0.1693 -0.1003
  705TIP3    H123530   6.101   2.833  12.969 -0.5139 -0.0388 -0.2152
  705TIP3    H223531   6.002   2.802  13.080 -2.2406 -0.5848 -1.8642
  706TIP3   OH223532   3.100   0.656  16.833  0.9758 -0.0799  0.1462
  706TIP3    H123533   3.186   0.682  16.799  0.5173 -0.1888 -1.1400
  706TIP3    H223534   3.052   0.627  16.756  0.9685 -3.4555  1.2560
  707TIP3   OH223535   6.490   5.909   6.011 -0.1695 -0.2920 -0.1712
  707TIP3    H123536   6.404   5.867   6.005 -0.5828  0.7733 -3.0691
  707TIP3    H223537   6.541   5.850   6.067 -2.5143 -1.3266  1.0715
  708TIP3   OH223538   5.271   5.275  14.214 -0.6621 -0.3993 -0.2641
  708TIP3    H123539   5.316   5.341  14.267  0.4511 -1.5201  0.2410
  708TIP3    H223540   5.304   5.192  14.247 -1.0790 -1.1745 -1.7276
  709TIP3   OH223541   4.299   0.507   0.734  0.0072 -0.1030 -0.9575
  709TIP3    H123542   4.284   0.573   0.666 -0.2634 -0.0747 -0.8716
  709TIP3    H223543   4.293   0.423   0.688  1.4130 -0.0516 -1.2736
  710TIP3   OH223544   0.481   1.332  15.862  0.3202  0.3692  0.2864
  710TIP3    H123545   0.459   1.298  15.949  1.3817  2.7880  1.5805
  710TIP3    H223546   0.413   1.398  15.844 -0.3533 -0.6508 -1.1309
  711TIP3   OH223547   1.260   2.826  12.530 -0.1387 -0.4995 -0.7557
  711TIP3    H123548   1.259   2.850  12.438  1.9952  2.6591 -0.1117
  711TIP3    H223549   1.334   2.765  12.538 -1.0424 -1.6854 -1.2784
  712TIP3   OH223550   2.302   3.715   0.363  0.3436  0.2194  0.3805
  712TIP3    H123551   2.361   3.644   0.387 -1.5236 -1.2491  0.8257
  712TIP3    H223552   2.353   3.769   0.302  2.0513 -1.1011  0.5687
  713TIP3   OH223553   1.107   3.759  12.859 -0.0166 -0.0874  0.3643
  713TIP3    H123554   1.141   3.803  12.781 -0.0098  1.3091  1.1145
  713TIP3    H223555   1.104   3.666  12.836  0.2954  0.2662 -1.1701
  714TIP3   OH223556   5.328   2.010  14.179  0.4398  0.4346 -0.1366
  714TIP3    H123557   5.407   1.958  14.190  0.9372  1.6964  4.1268
  714TIP3    H223558   5.259   1.958  14.221  0.5731  2.2351  2.5249
  715TIP3   OH223559   0.961   6.450  12.491  0.2378  0.0170 -0.0892
  715TIP3    H123560   0.987   6.413  12.576 -1.9408 -1.1148  0.1675
  715TIP3    H223561   0.909   6.527  12.513  0.8560  0.5454 -0.4630
  716TIP3   OH223562   6.510   0.455   4.602 -0.0597 -0.0143  0.7012
  716TIP3    H123563   6.439   0.437   4.540  0.6326 -2.4998  0.5148
  716TIP3    H223564   6.513   0.551   4.608 -2.8223  0.2043  0.0520
  717TIP3   OH223565   4.565   0.099  12.288  0.3571 -1.0348 -0.1039
  717TIP3    H123566   4.470   0.109  12.277  0.3331 -1.4854 -0.3457
  717TIP3    H223567   4.591   0.043  12.215  0.7046 -1.4745  0.3531
  718TIP3   OH223568   6.393   4.380  13.131  0.0666 -0.5484  0.8647
  718TIP3    H123569   6.299   4.378  13.146 -0.0870  1.9976  0.7442
  718TIP3    H223570   6.404   4.357  13.039 -0.6693  1.1432  0.3241
  719TIP3   OH223571   2.322   5.487   0.349 -0.1901  0.0066  0.3356
  719TIP3    H123572   2.244   5.464   0.400 -1.8403  0.2473 -1.9582
  719TIP3    H223573   2.381   5.412   0.359 -0.3953  0.0702  2.5825
  720TIP3   OH223574   0.916   1.306   1.330 -0.3138 -0.3133  0.2231
  720TIP3    H123575   0.861   1.229   1.341 -0.3290 -0.3074  0.1911
  720TIP3    H223576   1.000   1.282   1.368 -0.7717  0.1869  1.5968
  721TIP3   OH223577   4.908   2.609   3.066 -0.2894 -0.1533  0.2395
  721TIP3    H123578   4.873   2.595   3.155 -0.4418  2.8522  0.7535
  721TIP3    H223579   4.842   2.663   3.023  0.6342 -0.0762 -1.1150
  722TIP3   OH223580   5.233   5.237   4.964 -0.4323  0.1055  0.0451
  722TIP3    H123581   5.310   5.216   4.911  0.3680 -0.9772  1.5631
  722TIP3    H223582   5.268   5.283   5.039 -1.0188 -1.8058  1.5700
  723TIP3   OH223583   1.783   2.706   0.306  0.3702  0.2858  0.5787
  723TIP3    H123584   1.842   2.692   0.231  0.0511  1.2576  0.1285
  723TIP3    H223585   1.834   2.760   0.366 -0.2827  1.7648 -0.1432
  724TIP3   OH223586   0.630   2.522  12.824 -0.1949  0.2681  0.6363
  724TIP3    H123587   0.668   2.597  12.870 -0.0474  0.8802 -0.4307
  724TIP3    H223588   0.660   2.446  12.873  0.2801  0.8667  1.3123
  725TIP3   OH223589   0.132   0.682  16.176 -0.0641  0.3339 -0.3661
  725TIP3    H123590   0.183   0.602  16.163 -0.7838 -0.2846  0.4887
  725TIP3    H223591   0.120   0.687  16.271 -1.5551  0.4854 -0.5498
  726TIP3   OH223592   3.876   4.851  15.247 -0.1801 -0.1839  0.3570
  726TIP3    H123593   3.804   4.895  15.202  0.2184  0.9165  0.7398
  726TIP3    H223594   3.890   4.904  15.326 -0.0583 -1.3570  1.1421
  727TIP3   OH223595   1.729   3.424  12.313  0.1672 -0.8654 -0.0266
  727TIP3    H123596   1.670   3.461  12.379 -0.3529 -1.4704 -0.1378
  727TIP3    H223597   1.755   3.499  12.259  0.0621 -0.4764  0.4548
  728TIP3   OH223598   4.066   5.326   2.652  0.1143  0.2987 -0.6274
  728TIP3    H123599   4.027   5.313   2.738 -0.2388  0.2349 -0.7935
  728TIP3    H223600   3.995   5.309   2.591  0.9149 -1.9492 -1.0274
  729TIP3   OH223601   2.018   2.723   5.868  0.1712 -0.7595 -0.0377
  729TIP3    H123602   2.045   2.639   5.906  1.4109 -0.7567 -0.8253
  729TIP3    H223603   1.947   2.700   5.808 -0.0337 -1.1289  0.3391
  730TIP3   OH223604   5.645   0.877   4.977 -0.0619  0.5191 -0.1071
  730TIP3    H123605   5.711   0.808   4.968  1.7229  2.3598 -2.3348
  730TIP3    H223606   5.569   0.844   4.930  0.9539  0.2190 -1.6053
  731TIP3   OH223607   3.620   2.560   2.705 -0.2551 -0.3428 -1.0983
  731TIP3    H123608   3.563   2.604   2.642 -1.2155  0.7840  0.4781
  731TIP3    H223609   3.694   2.619   2.717 -0.2914 -0.3444 -0.8582
  732TIP3   OH223610   0.814   4.003   4.260 -0.4732 -0.3554  0.0467
  732TIP3    H123611   0.777   3.940   4.198  0.4679 -0.2442 -0.6530
  732TIP3    H223612   0.885   4.046   4.211 -1.3818  1.5782  0.3386
  733TIP3   OH223613   3.382   1.193   6.560  1.1161 -0.4193 -0.1191
  733TIP3    H123614   3.443   1.120   6.560  1.3246 -0.2507  0.2077
  733TIP3    H223615   3.433   1.266   6.596  1.2461  0.1655 -1.4199
  734TIP3   OH223616   5.946   3.081   1.955 -0.1638  0.8785 -0.2640
  734TIP3    H123617   5.886   3.007   1.943  1.0612 -0.1155 -0.4006
  734TIP3    H223618   6.031   3.041   1.972  0.2874  2.2659  0.9513
  735TIP3   OH223619   5.517   6.206  16.146 -0.4915  0.2996 -0.1366
  735TIP3    H123620   5.612   6.219  16.135 -0.0491 -0.6596  2.0496
  735TIP3    H223621   5.485   6.291  16.177 -0.0200  0.1442  0.8132
  736TIP3   OH223622   6.037   0.046   0.639 -0.1801  0.1397  0.4585
  736TIP3    H123623   6.058   0.057   0.546 -2.8259 -0.2112 -0.2648
  736TIP3    H223624   6.000  -0.042   0.646 -2.0631  0.9529  1.3814
  737TIP3   OH223625   4.519   1.219  12.637  0.3093  0.1971  0.1934
  737TIP3    H123626   4.473   1.154  12.584 -0.4447  1.6022 -0.9506
  737TIP3    H223627   4.500   1.195  12.728  3.2781 -3.4807  0.0465
  738TIP3   OH223628   2.553   0.882  15.730  0.5104  0.6695 -0.3285
  738TIP3    H123629   2.491   0.900  15.659 -1.3106  1.7484  1.4484
  738TIP3    H223630   2.515   0.809  15.779  1.4379  0.3344 -0.0784
  739TIP3   OH223631   3.076   0.869   5.003  0.1791  0.5986  0.0756
  739TIP3    H123632   3.166   0.847   4.976 -0.1586  0.1892 -0.7625
  739TIP3    H223633   3.068   0.963   4.984  0.2670  0.5274 -0.3169
  740TIP3   OH223634   3.744   5.360  11.634  0.1733  0.4728 -0.8162
  740TIP3    H123635   3.789   5.289  11.679 -1.3399 -1.2487 -1.8683
  740TIP3    H223636   3.741   5.431  11.697 -1.6582 -1.7270  1.7886
  741TIP3   OH223637   0.742   4.449  13.060  0.5388  0.2827 -0.7476
  741TIP3    H123638   0.721   4.485  13.146  1.6825 -2.0392  0.5928
  741TIP3    H223639   0.656   4.430  13.020  0.0074  0.9657  0.0461
  742TIP3   OH223640   3.535   2.292  13.382  0.2186  0.4024 -0.3052
  742TIP3    H123641   3.569   2.381  13.379  0.8890  0.1826  0.5377
  742TIP3    H223642   3.593   2.246  13.443 -0.6262 -0.3885 -0.0774
  743TIP3   OH223643   2.450   2.928  13.144 -0.4941 -0.2704 -0.2145
  743TIP3    H123644   2.385   2.878  13.096 -1.2641 -0.1934  0.7259
  743TIP3    H223645   2.482   2.868  13.212  0.9100 -0.5290 -1.0747
  744TIP3   OH223646   5.888   1.870  14.859 -0.5568 -0.0841  0.1241
  744TIP3    H123647   5.797   1.842  14.866 -1.4897  2.1643 -1.6423
  744TIP3    H223648   5.900   1.930  14.933  0.0870 -1.6907  1.3707
  745TIP3   OH223649   0.792   4.236  14.405 -0.2765 -0.1136 -0.1466
  745TIP3    H123650   0.710   4.227  14.357 -1.7994  0.0848  2.2304
  745TIP3    H223651   0.821   4.326  14.388  0.3897 -0.6748 -2.2806
  746TIP3   OH223652   3.822   0.909  17.380 -0.0694 -0.1093 -0.6373
  746TIP3    H123653   3.808   0.816  17.363  1.2024 -0.2017 -1.2264
  746TIP3    H223654   3.809   0.918  17.475 -3.3534 -0.2815 -0.9424
  747TIP3   OH223655   2.291   3.579  16.967  0.3295 -0.3525 -0.3584
  747TIP3    H123656   2.314   3.553  17.056  2.3203  0.3120 -0.6295
  747TIP3    H223657   2.301   3.674  16.966 -0.3234 -0.2755 -1.1322
  748TIP3   OH223658   4.376   0.560  14.605  0.0056  0.2784  0.2943
  748TIP3    H123659   4.416   0.515  14.679  0.4274 -1.3447 -0.8691
  748TIP3    H223660   4.313   0.497  14.569 -0.8977  1.4037 -0.1634
  749TIP3   OH223661   3.511   6.383   3.773 -1.0934  0.5664  1.1144
  749TIP3    H123662   3.419   6.356   3.770 -1.1000  0.6263 -1.5071
  749TIP3    H223663   3.520   6.445   3.700  2.0519 -3.2265 -2.1747
  750TIP3   OH223664   2.876   5.328  12.140  0.0874  0.2360  0.3308
  750TIP3    H123665   2.862   5.301  12.231 -0.1396 -1.1615 -0.1101
  750TIP3    H223666   2.957   5.379  12.143  0.0685  0.2323  1.3106
  751TIP3   OH223667   4.977   3.794  16.408  0.5013  0.1714 -0.4508
  751TIP3    H123668   5.066   3.775  16.440  0.8161  0.6055 -1.0484
  751TIP3    H223669   4.944   3.710  16.379 -0.3124 -0.5224  2.2192
  752TIP3   OH223670   1.661   2.937  16.345  0.0971 -0.1964  0.9185
  752TIP3    H123671   1.633   2.975  16.261  2.3867 -0.3143  0.0275
  752TIP3    H223672   1.582   2.937  16.399 -1.7005 -0.9320 -1.5154
  753TIP3   OH223673   4.089   2.878   6.156  0.5541  0.3587  0.2498
  753TIP3    H123674   4.043   2.798   6.179 -0.1115  0.8097  0.5251
  753TIP3    H223675   4.138   2.901   6.234  1.3071 -0.1569 -0.0654
  754TIP3   OH223676   2.742   4.799   1.236  0.1400 -0.2624 -0.2733
  754TIP3    H123677   2.799   4.779   1.310 -0.5699 -0.5642  0.2071
  754TIP3    H223678   2.686   4.870   1.268 -1.6022 -1.7900  0.2658
  755TIP3   OH223679   1.239   5.908   6.121 -0.0948  0.2997 -0.1472
  755TIP3    H123680   1.333   5.912   6.138 -0.0717  0.3921 -0.2878
  755TIP3    H223681   1.198   5.911   6.207  0.0274  0.4214 -0.0927
  756TIP3   OH223682   0.339   5.409   0.980 -0.0588 -0.2717 -0.3235
  756TIP3    H123683   0.364   5.500   0.993  2.0256 -0.8146 -0.1978
  756TIP3    H223684   0.404   5.374   0.919  0.8474 -2.3439  1.6712
  757TIP3   OH223685   5.000   0.994   4.980 -0.2256  0.5893  0.1135
  757TIP3    H123686   5.077   0.942   5.003  0.7895  0.3635 -3.2687
  757TIP3    H223687   4.931   0.961   5.037  1.7782 -0.2543  2.2031
  758TIP3   OH223688   4.114   4.831   6.447 -0.0771  0.1694 -0.2712
  758TIP3    H123689   4.178   4.867   6.508 -0.3804  0.7263 -0.2777
  758TIP3    H223690   4.060   4.772   6.501 -1.2019  1.6804  0.3265
  759TIP3   OH223691   6.522   2.692   4.803 -0.0326  0.2522  0.6120
  759TIP3    H123692   6.616   2.708   4.795 -0.2191  1.4238  0.5455
  759TIP3    H223693   6.508   2.683   4.898  0.2051 -0.4050  0.5922
  760TIP3   OH223694   5.705   3.442  15.290 -0.2820 -0.0091  0.4772
  760TIP3    H123695   5.674   3.352  15.283  0.2530 -0.1369 -0.4882
  760TIP3    H223696   5.798   3.433  15.312 -0.0859  0.2791 -0.1967
  761TIP3   OH223697   5.343   2.711  15.237 -0.1681  0.4254  0.2720
  761TIP3    H123698   5.296   2.747  15.312 -1.1877  2.0626 -1.0846
  761TIP3    H223699   5.275   2.678  15.179  0.6338 -1.3960  0.2821
  762TIP3   OH223700   5.189   0.223  15.830  0.4948 -0.2221 -0.2436
  762TIP3    H123701   5.204   0.180  15.914  2.4233  0.1405 -0.3504
  762TIP3    H223702   5.098   0.203  15.808  0.2990 -1.2649  1.3778
  763TIP3   OH223703   6.517   2.976  12.895 -0.2702  0.1073 -0.2546
  763TIP3    H123704   6.543   3.067  12.910  0.0265 -0.1645  0.9270
  763TIP3    H223705   6.562   2.926  12.963 -0.4690 -0.9244 -0.8593
  764TIP3   OH223706   4.500   5.775   4.335  0.2458 -0.0715  0.0424
  764TIP3    H123707   4.422   5.726   4.310  0.4066 -0.8654  1.0041
  764TIP3    H223708   4.472   5.828   4.410  0.9045 -1.2982  1.1964
  765TIP3   OH223709   4.189   0.260   6.250  0.3301  0.3052  0.3801
  765TIP3    H123710   4.103   0.303   6.256  0.7651  1.1863  0.4961
  765TIP3    H223711   4.197   0.212   6.332 -0.4739 -0.6024 -0.0601
  766TIP3   OH223712   5.858   4.801  17.188 -0.4666 -0.5768 -0.1973
  766TIP3    H123713   5.910   4.723  17.208 -1.4337 -1.3052 -0.4514
  766TIP3    H223714   5.874   4.860  17.262 -1.2104 -1.7926  0.9928
  767TIP3   OH223715   3.581   1.630   6.572  0.4698  0.3933  0.0909
  767TIP3    H123716   3.489   1.602   6.565  0.3556  0.9865 -0.9755
  767TIP3    H223717   3.620   1.567   6.633 -0.7417  0.3986  0.9172
  768TIP3   OH223718   2.535   1.044  13.582 -0.3459  0.1006 -0.4099
  768TIP3    H123719   2.613   1.027  13.528 -0.0657  0.3580 -0.0918
  768TIP3    H223720   2.497   0.958  13.597  2.4116 -0.7207  3.2340
  769TIP3   OH223721   2.638   4.998   4.914 -0.1554 -0.5446 -0.2134
  769TIP3    H123722   2.618   4.906   4.931 -0.0689 -0.4478  0.4303
  769TIP3    H223723   2.732   5.006   4.933 -0.3007 -0.1808  0.3966
  770TIP3   OH223724   5.164   4.796  15.594 -0.4565  0.1772 -0.3347
  770TIP3    H123725   5.167   4.706  15.625 -1.0381  0.1028 -0.4866
  770TIP3    H223726   5.203   4.793  15.507  1.0121  0.3556  0.2887
  771TIP3   OH223727   1.320   1.807   5.813 -0.1384 -0.1652  0.1065
  771TIP3    H123728   1.315   1.818   5.907 -0.6532 -0.5332  0.1286
  771TIP3    H223729   1.362   1.886   5.781  0.3248 -0.1784  0.6747
  772TIP3   OH223730   0.629   3.219   5.347 -0.2508  0.1978  0.3412
  772TIP3    H123731   0.600   3.132   5.319  0.7191 -0.2561  0.6904
  772TIP3    H223732   0.622   3.217   5.442  1.1226 -0.0347  0.4675
  773TIP3   OH223733   2.375   6.094   2.891  0.0201  0.0149 -0.2139
  773TIP3    H123734   2.329   6.093   2.976 -0.6012  0.2203 -0.5405
  773TIP3    H223735   2.322   6.153   2.837  1.1092  0.8990 -0.3589
  774TIP3   OH223736   0.477   2.584   4.532 -0.3753 -0.2408 -0.1749
  774TIP3    H123737   0.562   2.552   4.503 -1.5268 -4.0529  0.0430
  774TIP3    H223738   0.461   2.663   4.480  2.6020 -0.2616 -1.2859
  775TIP3   OH223739   1.441   1.407   4.610  0.3538  0.4076  0.1289
  775TIP3    H123740   1.449   1.465   4.535  0.3674  0.8184  0.4466
  775TIP3    H223741   1.482   1.325   4.582  0.1866  0.4973 -0.3758
  776TIP3   OH223742   5.509   5.047   3.871 -0.2010  0.5495  0.0872
  776TIP3    H123743   5.447   5.052   3.944  3.3572  4.5336  3.3875
  776TIP3    H223744   5.576   4.985   3.900  0.2375  0.5936 -0.7811
  777TIP3   OH223745   6.198   5.053   1.732 -0.0556  0.2106  0.1471
  777TIP3    H123746   6.144   4.976   1.747  0.5654  0.0259  1.6390
  777TIP3    H223747   6.252   5.030   1.657 -0.8550 -0.2497 -0.3011
  778TIP3   OH223748   0.775   2.579   6.072  0.1756 -0.0138  0.5259
  778TIP3    H123749   0.861   2.617   6.087 -0.5451  1.3568  1.3949
  778TIP3    H223750   0.770   2.505   6.133  0.9108 -0.4138  0.1103
  779TIP3   OH223751   6.044   0.197   0.889 -0.0478  0.4635 -0.2614
  779TIP3    H123752   6.126   0.181   0.936  0.6906  2.5521 -0.7250
  779TIP3    H223753   6.050   0.141   0.812  0.0953 -0.7493  0.5983
  780TIP3   OH223754   1.660   4.236  16.433 -0.2241 -0.0644  0.0248
  780TIP3    H123755   1.631   4.230  16.343 -1.1064  1.9449  0.1085
  780TIP3    H223756   1.624   4.159  16.476 -2.6674  0.6114 -0.6412
  781TIP3   OH223757   3.525   1.633   5.052  0.6935  0.5178 -0.1283
  781TIP3    H123758   3.436   1.631   5.086  1.1012 -0.6206  0.9425
  781TIP3    H223759   3.542   1.726   5.035 -1.1938  0.6150 -1.7862
  782TIP3   OH223760   6.087   6.139   2.252  0.1110 -0.2594 -0.0400
  782TIP3    H123761   6.018   6.137   2.318  1.0771 -1.7815  1.0007
  782TIP3    H223762   6.044   6.106   2.172 -0.8252  0.6795  0.0579
  783TIP3   OH223763   0.111   5.477  14.777 -0.2626 -0.2405 -0.0343
  783TIP3    H123764   0.174   5.488  14.706 -1.1738  1.0690 -0.6900
  783TIP3    H223765   0.116   5.559  14.826  0.1116 -0.9990  1.2393
  784TIP3   OH223766   0.458   4.087  13.080  0.1550 -0.2002 -0.5782
  784TIP3    H123767   0.386   4.035  13.114 -0.0680 -0.5256 -1.5199
  784TIP3    H223768   0.417   4.165  13.043  0.6533  2.1669  3.2698
  785TIP3   OH223769   0.396   3.425   2.511  0.0577 -0.5330  0.0958
  785TIP3    H123770   0.355   3.510   2.530 -0.5732 -1.0258  0.9475
  785TIP3    H223771   0.490   3.446   2.502  0.0884  0.0692  1.5502
  786TIP3   OH223772   4.677   2.231   5.759 -0.3635  0.2439 -0.1856
  786TIP3    H123773   4.723   2.287   5.697  0.3361  0.2596  0.3418
  786TIP3    H223774   4.616   2.180   5.705 -0.2503  0.7510 -0.7919
  787TIP3   OH223775   2.188   4.481  11.038 -0.3011  0.2853  0.1734
  787TIP3    H123776   2.137   4.432  10.973 -1.1760 -1.2322  1.9021
  787TIP3    H223777   2.266   4.428  11.052 -0.1885  0.5231  0.4544
  788TIP3   OH223778   4.677   3.898  11.712 -0.0157  0.1535 -0.2343
  788TIP3    H123779   4.725   3.871  11.791  1.1176  0.1774 -0.8869
  788TIP3    H223780   4.617   3.966  11.742  0.2848  0.0455  0.6371
  789TIP3   OH223781   6.126   6.287  17.136  0.1608  0.6701  0.1680
  789TIP3    H123782   6.115   6.380  17.116 -0.4763  0.6850  0.5734
  789TIP3    H223783   6.038   6.256  17.157  0.6063  0.3882  1.7459
  790TIP3   OH223784   4.842   6.402   1.395  0.6512 -0.1378  0.0861
  790TIP3    H123785   4.928   6.361   1.381  0.1436 -1.1649 -0.0642
  790TIP3    H223786   4.835   6.410   1.490  0.7941 -0.2917  0.1101
  791TIP3   OH223787   1.847   0.447   2.316 -0.1199 -0.3772 -0.2701
  791TIP3    H123788   1.891   0.532   2.313 -2.4010  0.8493 -0.6831
  791TIP3    H223789   1.835   0.430   2.409  1.1161 -0.7210 -0.1476
  792TIP3   OH223790   1.154   0.633  13.832 -0.6125 -0.9124 -0.3320
  792TIP3    H123791   1.120   0.597  13.914 -2.2881 -0.4227 -0.7839
  792TIP3    H223792   1.119   0.576  13.764  0.2980 -0.9696 -0.7742
  793TIP3   OH223793   1.544   0.861   1.311 -0.2285  0.4847 -0.0555
  793TIP3    H123794   1.454   0.891   1.306 -1.4950 -3.0214 -1.3749
  793TIP3    H223795   1.579   0.876   1.223 -0.4989 -0.6598 -0.3790
  794TIP3   OH223796   2.444   2.923   4.440 -0.5612  0.5476 -0.0811
  794TIP3    H123797   2.533   2.898   4.465 -0.7725  0.8192  0.9848
  794TIP3    H223798   2.455   3.005   4.391 -0.0026 -0.7814 -2.3405
  795TIP3   OH223799   0.256   0.282  16.536  0.8208  0.0650 -0.5816
  795TIP3    H123800   0.204   0.359  16.561  0.8581 -0.1089  0.0481
  795TIP3    H223801   0.312   0.266  16.612  2.0231  0.4330 -1.3535
  796TIP3   OH223802   6.540   0.843   5.571 -0.1508  0.2629 -0.1985
  796TIP3    H123803   6.590   0.897   5.632  0.2226  3.1132 -2.7497
  796TIP3    H223804   6.452   0.841   5.607  1.0428 -2.7695  3.0903
  797TIP3   OH223805   1.460   0.157   0.138  0.1397 -0.1093  0.1146
  797TIP3    H123806   1.485   0.070   0.171 -1.5255  0.2813  2.6686
  797TIP3    H223807   1.543   0.199   0.115  1.5893 -0.4241  4.0894
  798TIP3   OH223808   4.791   3.297  11.643 -0.3428 -0.0442  0.5690
  798TIP3    H123809   4.791   3.374  11.700  0.1862  0.0621  0.4238
  798TIP3    H223810   4.814   3.224  11.701  4.4109  0.5676 -0.1583
  799TIP3   OH223811   4.768   3.246  12.883  0.3887 -0.1265  0.2454
  799TIP3    H123812   4.809   3.286  12.960  0.8874  3.1830 -1.5541
  799TIP3    H223813   4.674   3.265  12.894  0.2773 -0.8848  0.6664
  800TIP3   OH223814   2.460   6.718  17.251  0.6576 -0.4542 -0.3754
  800TIP3    H123815   2.522   6.786  17.229  0.0947  1.4394  3.0740
  800TIP3    H223816   2.460   6.716  17.347 -0.1456 -4.6564 -0.2452
  801TIP3   OH223817   1.759   2.880   5.723 -0.9227 -0.0732 -0.3094
  801TIP3    H123818   1.681   2.824   5.725 -0.3799 -0.8600  1.8694
  801TIP3    H223819   1.752   2.935   5.801 -0.7264  1.9702 -1.6595
  802TIP3   OH223820   6.621   5.415  12.981 -0.3666  0.1284 -0.0706
  802TIP3    H123821   6.660   5.418  13.068 -0.2228  2.6700 -0.1573
  802TIP3    H223822   6.552   5.348  12.988  1.8757 -2.2305  0.9338
  803TIP3   OH223823   3.511   0.275  14.899  0.1047 -0.0561  0.2071
  803TIP3    H123824   3.442   0.241  14.955 -0.6722 -0.5933 -1.0402
  803TIP3    H223825   3.572   0.318  14.959  1.3630 -3.8573  1.9751
  804TIP3   OH223826   5.976   6.669  15.954 -0.4302 -0.2217 -0.2174
  804TIP3    H123827   5.911   6.726  15.996  0.5848  2.6953 -2.3243
  804TIP3    H223828   6.035   6.644  16.026 -0.1277  2.5750  0.6013
  805TIP3   OH223829   6.002   0.459   0.989 -0.2462 -0.0155 -0.2773
  805TIP3    H123830   6.006   0.374   0.944 -1.7562  0.2933 -1.0954
  805TIP3    H223831   5.995   0.523   0.918  1.9121  0.9251  0.2937
  806TIP3   OH223832   0.441   6.360   0.583  0.1308 -0.1051 -0.4611
  806TIP3    H123833   0.402   6.447   0.577  2.2695  0.8453 -1.3510
  806TIP3    H223834   0.423   6.332   0.673 -0.4705  1.3115 -0.1146
  807TIP3   OH223835   0.340   1.657  10.862 -0.3961  0.6464 -0.0736
  807TIP3    H123836   0.405   1.728  10.864 -0.7198  0.9478 -0.0336
  807TIP3    H223837   0.385   1.582  10.899 -0.4361  1.1561  1.0560
  808TIP3   OH223838   1.574   0.320  11.322 -0.0466 -0.0941 -0.4440
  808TIP3    H123839   1.545   0.391  11.380  0.4488  0.3120 -0.6763
  808TIP3    H223840   1.515   0.325  11.247 -0.4643 -0.3921 -0.1391
  809TIP3   OH223841   0.430   5.760  14.806  0.3460 -0.3698  0.7229
  809TIP3    H123842   0.430   5.855  14.800 -1.2795 -0.3861  0.0880
  809TIP3    H223843   0.421   5.742  14.899 -0.3993  0.1183  0.7528
  810TIP3   OH223844   0.780   0.575   4.818  0.2796 -0.4401 -0.0621
  810TIP3    H123845   0.872   0.595   4.798  0.3005 -0.6164 -0.1471
  810TIP3    H223846   0.775   0.577   4.914  0.4650 -0.8357 -0.0447
  811TIP3   OH223847   3.590   5.858  14.918  0.1324  0.1853 -0.6963
  811TIP3    H123848   3.549   5.881  14.835 -1.7759 -1.3005 -0.2585
  811TIP3    H223849   3.521   5.811  14.966  2.2923 -2.3029  0.2252
  812TIP3   OH223850   2.138   5.165  13.157 -0.3403 -0.4189  0.0878
  812TIP3    H123851   2.055   5.137  13.197 -0.7602 -0.5040 -0.8050
  812TIP3    H223852   2.112   5.232  13.094  0.3062 -0.2809 -0.0325
  813TIP3   OH223853   5.227   4.236   6.055 -0.0960  0.3815 -0.1019
  813TIP3    H123854   5.237   4.213   5.962 -1.9866  1.9431 -0.7798
  813TIP3    H223855   5.313   4.267   6.081  0.2746  0.7759 -1.6447
  814TIP3   OH223856   2.657   5.489   1.376 -0.3876 -0.1054 -0.0715
  814TIP3    H123857   2.745   5.454   1.390 -0.8349 -1.4801 -0.5897
  814TIP3    H223858   2.630   5.454   1.291 -0.5250  2.2535 -1.0814
  815TIP3   OH223859   3.705   2.790   4.498  0.2196  0.7238  0.1713
  815TIP3    H123860   3.686   2.847   4.574 -0.0618  0.5013  0.2698
  815TIP3    H223861   3.719   2.704   4.536  1.4989  0.8895  0.1019
  816TIP3   OH223862   5.360   3.370  14.297 -0.4966  0.2246  0.1582
  816TIP3    H123863   5.330   3.334  14.380  0.1381 -1.1699 -0.1846
  816TIP3    H223864   5.358   3.296  14.236  0.9454  0.7364 -0.5605
  817TIP3   OH223865   3.667   1.960  13.854  0.5187  0.4576  0.4075
  817TIP3    H123866   3.590   1.973  13.908 -0.0304  0.5126 -0.3710
  817TIP3    H223867   3.740   1.961  13.915 -0.0913  0.4673  1.1464
  818TIP3   OH223868   1.513   2.441  15.180  0.7246  0.4735 -0.0875
  818TIP3    H123869   1.487   2.468  15.091 -0.0590 -1.3592 -0.4554
  818TIP3    H223870   1.434   2.404  15.218  1.4723 -0.3209  0.7450
  819TIP3   OH223871   3.025   1.545   3.338  0.6436 -0.1383 -0.0084
  819TIP3    H123872   2.933   1.542   3.364  0.6157  0.9488  0.0808
  819TIP3    H223873   3.043   1.459   3.301 -0.5647 -0.1917 -0.5184
  820TIP3   OH223874   1.401   6.644   4.273  0.0276 -0.4808 -0.4595
  820TIP3    H123875   1.446   6.646   4.357 -0.6639 -0.1965 -0.0855
  820TIP3    H223876   1.453   6.585   4.218  0.6678 -0.4005  0.0593
  821TIP3   OH223877   2.785   0.295   5.932  0.6173  0.4520 -0.4264
  821TIP3    H123878   2.831   0.332   6.008  1.3453 -0.2548 -0.5112
  821TIP3    H223879   2.713   0.245   5.969  2.2721 -1.7636 -0.0233
  822TIP3   OH223880   2.563   3.295  13.986  0.1498  0.0772  0.4226
  822TIP3    H123881   2.605   3.220  14.030 -0.0850  0.1256  0.7347
  822TIP3    H223882   2.566   3.365  14.051 -0.3025  0.1168  0.4047
  823TIP3   OH223883   5.081   4.112   1.929  0.1214  0.4541  0.1335
  823TIP3    H123884   5.143   4.146   1.864  1.7938 -1.4634  0.6292
  823TIP3    H223885   4.999   4.101   1.880  1.3311 -0.9244 -1.7050
  824TIP3   OH223886   2.650   0.658  12.750 -0.3227 -0.1528 -0.5801
  824TIP3    H123887   2.732   0.627  12.711  0.0548  0.3496 -0.1966
  824TIP3    H223888   2.586   0.654  12.679 -0.2513 -1.6390 -0.5994
  825TIP3   OH223889   2.447   5.094  15.016  0.3040  0.2623 -0.0088
  825TIP3    H123890   2.456   4.998  15.014  0.1952  0.2539 -0.0944
  825TIP3    H223891   2.358   5.109  15.047  0.5062  0.3418  0.5443
  826TIP3   OH223892   5.689   1.295  15.578 -0.5062 -0.1771 -0.3217
  826TIP3    H123893   5.754   1.365  15.571  1.2008 -1.7284 -0.4522
  826TIP3    H223894   5.649   1.291  15.491 -0.5026  0.5077 -0.3620
  827TIP3   OH223895   0.598   5.204  11.867  0.6898  0.1001  0.2468
  827TIP3    H123896   0.590   5.145  11.942  3.4849  0.1899  0.7397
  827TIP3    H223897   0.547   5.162  11.798 -0.2337 -1.0820  1.5834
  828TIP3   OH223898   4.695   2.081   4.669  0.4838 -0.0204 -0.0271
  828TIP3    H123899   4.647   2.020   4.725  1.6030 -0.1585  0.8113
  828TIP3    H223900   4.651   2.165   4.682 -0.9219 -0.5569 -1.0046
  829TIP3   OH223901   0.686   2.233  13.409  0.3882  0.0603  0.0755
  829TIP3    H123902   0.759   2.190  13.453 -0.9015 -2.5044 -0.1402
  829TIP3    H223903   0.633   2.269  13.480  0.3723 -0.6035  0.4082
  830TIP3   OH223904   0.662   3.011  14.781 -0.1338 -0.4627  0.6545
  830TIP3    H123905   0.608   2.998  14.704 -1.9526  0.0583  1.7648
  830TIP3    H223906   0.604   3.054  14.844  1.9975  1.5500  1.4280
  831TIP3   OH223907   3.546   2.255   3.932 -0.5502 -0.2352 -0.0079
  831TIP3    H123908   3.629   2.222   3.968 -0.2157  0.8513  0.2549
  831TIP3    H223909   3.506   2.304   4.003 -1.2819 -0.4856 -0.2337
  832TIP3   OH223910   1.016   6.425   2.581 -0.1421  0.1777 -0.3462
  832TIP3    H123911   1.078   6.357   2.608 -1.0135 -0.9389 -1.0484
  832TIP3    H223912   1.071   6.502   2.563  0.8488 -0.2780  0.6193
  833TIP3   OH223913   5.602   1.597  15.926 -0.8077  1.0519  0.9802
  833TIP3    H123914   5.580   1.670  15.983  0.9655  3.8330 -1.5446
  833TIP3    H223915   5.666   1.634  15.864  0.5620 -2.8057 -0.2000
  834TIP3   OH223916   1.066   2.695   1.679 -0.7175  0.2863 -0.0724
  834TIP3    H123917   1.076   2.650   1.595 -3.0458 -1.1217  0.2951
  834TIP3    H223918   1.091   2.786   1.661  0.7679 -0.3835 -1.7390
  835TIP3   OH223919   5.137   0.748  13.940  0.9730  0.1597  0.5366
  835TIP3    H123920   5.233   0.752  13.934  0.9993 -0.8655  0.1331
  835TIP3    H223921   5.108   0.825  13.890  1.5758  0.1697  0.1813
  836TIP3   OH223922   5.548   0.099  15.589  0.2760 -0.7714  0.0023
  836TIP3    H123923   5.554   0.066  15.679  1.2615  1.3444  0.7818
  836TIP3    H223924   5.639   0.106  15.560  0.0272 -0.2063 -0.6744
  837TIP3   OH223925   1.163   3.795   3.166  0.3897  0.0256 -0.2818
  837TIP3    H123926   1.255   3.818   3.166  0.6270 -0.7526 -1.7669
  837TIP3    H223927   1.151   3.743   3.086 -0.9520 -1.4038  0.7707
  838TIP3   OH223928   5.336   0.718  10.979 -0.0913 -0.3028  0.4740
  838TIP3    H123929   5.245   0.726  10.950 -0.4353  0.4982  1.7268
  838TIP3    H223930   5.349   0.791  11.039  2.3735  1.5860 -2.0889
  839TIP3   OH223931   2.139   2.512  12.969 -0.0664  0.1926 -0.5713
  839TIP3    H123932   2.176   2.462  13.042  0.6952  0.2992 -0.8669
  839TIP3    H223933   2.045   2.509  12.983  0.0885  0.7594  0.7837
  840TIP3   OH223934   2.322   6.556  11.855  0.0579 -0.3187  0.2123
  840TIP3    H123935   2.254   6.549  11.922  0.4440 -0.1465  0.6325
  840TIP3    H223936   2.356   6.645  11.866  1.3298 -0.8824  0.9697
  841TIP3   OH223937   3.906   6.157  13.215  0.1071 -0.6118  1.0920
  841TIP3    H123938   3.846   6.219  13.257 -1.0463  0.9757 -2.5279
  841TIP3    H223939   3.927   6.197  13.131  1.7166 -3.8227 -0.2015
  842TIP3   OH223940   6.656   1.702  14.193 -0.0476 -0.1654  0.1931
  842TIP3    H123941   6.645   1.731  14.284  1.5593  0.5424  0.2047
  842TIP3    H223942   6.745   1.665  14.190 -1.2364 -3.3200 -0.3315
  843TIP3   OH223943   3.819   4.455  11.571 -0.6162 -0.2580  0.2763
  843TIP3    H123944   3.810   4.470  11.665  0.4108  0.5946  0.2506
  843TIP3    H223945   3.748   4.394  11.550 -2.2501  1.2128  1.1959
  844TIP3   OH223946   0.619   5.814  17.057 -0.0820 -0.1418 -0.5067
  844TIP3    H123947   0.540   5.866  17.071  0.6482  0.8528  0.0694
  844TIP3    H223948   0.681   5.846  17.123  0.4861 -1.5893 -0.2882
  845TIP3   OH223949   3.584   3.676   5.293  0.4473 -0.1476 -0.8135
  845TIP3    H123950   3.581   3.581   5.289 -0.0447 -0.1425 -0.6754
  845TIP3    H223951   3.595   3.696   5.386 -0.8428 -0.0561 -0.6552
  846TIP3   OH223952   5.776   2.149  13.663 -0.3664 -0.2921 -0.1711
  846TIP3    H123953   5.768   2.240  13.694 -0.5699  0.3125 -1.8949
  846TIP3    H223954   5.870   2.137  13.650 -0.3991 -0.1049 -0.5809
  847TIP3   OH223955   5.920   1.296   5.998 -0.1369 -0.3394 -0.8049
  847TIP3    H123956   5.939   1.216   5.949 -0.5976 -1.1830  0.3475
  847TIP3    H223957   6.003   1.318   6.040 -0.3657 -1.0444  0.0335
  848TIP3   OH223958   5.490   6.283   4.772  0.5771  0.1350  0.1389
  848TIP3    H123959   5.400   6.264   4.745  0.9057 -1.8355  0.2543
  848TIP3    H223960   5.505   6.373   4.744 -1.1011  0.1839 -0.7553
  849TIP3   OH223961   3.395   4.600  13.595 -0.0223 -0.0381  0.5463
  849TIP3    H123962   3.334   4.661  13.554 -0.8813 -0.6570  0.8732
  849TIP3    H223963   3.363   4.513  13.569  0.2742 -0.3890  1.3268
  850TIP3   OH223964   6.254   6.366   0.644 -0.5180 -0.4455  1.2146
  850TIP3    H123965   6.330   6.313   0.667 -0.5131 -1.3037 -0.6049
  850TIP3    H223966   6.286   6.456   0.645  0.4064 -0.7611  0.9410
  851TIP3   OH223967   5.451   5.289  16.427 -0.2920  0.1766  0.4278
  851TIP3    H123968   5.468   5.379  16.400  2.8329  0.2638  2.2014
  851TIP3    H223969   5.509   5.235  16.373 -0.2552 -0.4980  1.1151
  852TIP3   OH223970   5.131   3.794   3.439  0.1160 -0.2903  0.8458
  852TIP3    H123971   5.176   3.741   3.504 -2.5644 -1.1278  2.1513
  852TIP3    H223972   5.137   3.884   3.473  1.0022 -0.3331  0.8311
  853TIP3   OH223973   6.171   3.691  12.648 -0.4950  0.0852 -0.7210
  853TIP3    H123974   6.110   3.631  12.606 -0.0080 -0.6899 -0.3349
  853TIP3    H223975   6.126   3.719  12.728 -0.1774 -0.8346 -0.2059
  854TIP3   OH223976   3.109   3.458  15.136 -0.8492  0.1666  0.2269
  854TIP3    H123977   3.049   3.471  15.062 -0.0102 -0.5378 -0.6022
  854TIP3    H223978   3.138   3.367  15.128  1.9823  1.0525 -0.6875
  855TIP3   OH223979   4.990   5.541   5.844 -0.1199  0.0480 -0.3165
  855TIP3    H123980   4.987   5.616   5.903 -0.5714 -1.1988  1.3222
  855TIP3    H223981   5.032   5.472   5.896  1.1002 -0.6052 -2.0792
  856TIP3   OH223982   4.391   5.870   5.121  0.1215 -0.2871 -0.3478
  856TIP3    H123983   4.394   5.913   5.206 -0.4821 -0.0845 -0.4296
  856TIP3    H223984   4.330   5.921   5.069 -0.1870 -0.9178 -0.6234
  857TIP3   OH223985   1.021   1.793   1.398 -0.8180 -0.5201  0.2568
  857TIP3    H123986   1.116   1.804   1.397 -0.9236  0.5785  0.5265
  857TIP3    H223987   1.006   1.711   1.352  0.1391  0.3297 -1.6788
  858TIP3   OH223988   6.352   0.866  15.689 -0.5623 -0.0774  0.0358
  858TIP3    H123989   6.363   0.961  15.683 -2.2868  0.0629 -1.8749
  858TIP3    H223990   6.381   0.845  15.778  0.7033  2.0817  0.2208
  859TIP3   OH223991   1.275   5.604   3.121  0.1257 -0.0733 -0.2657
  859TIP3    H123992   1.326   5.662   3.065  2.6840 -1.1500  0.7838
  859TIP3    H223993   1.208   5.567   3.064  0.2172  1.7305 -1.6199
  860TIP3   OH223994   3.838   2.308   3.618 -0.9886  0.4273  0.1824
  860TIP3    H123995   3.873   2.302   3.707  1.2073 -0.8003 -0.6772
  860TIP3    H223996   3.831   2.402   3.600  0.3026  0.6953  1.0077
  861TIP3   OH223997   4.606   3.499  14.406 -0.6531  0.5993 -0.0695
  861TIP3    H123998   4.566   3.576  14.366 -0.1758  0.9364  0.1030
  861TIP3    H223999   4.652   3.532  14.483  0.7402  0.3523 -0.7725
  862TIP3   OH224000   1.876   1.857  15.307 -0.0811 -0.4608  0.0468
  862TIP3    H124001   1.806   1.880  15.367 -0.0526  0.4033 -0.2359
  862TIP3    H224002   1.832   1.809  15.236 -0.4663  0.4457 -0.3430
  863TIP3   OH224003   5.089   6.491  16.842 -0.4248 -0.2575  0.3062
  863TIP3    H124004   5.103   6.491  16.937  1.5460  0.0814  0.0539
  863TIP3    H224005   5.011   6.438  16.830 -0.9936  0.0718  2.1488
  864TIP3   OH224006   4.525   2.751   0.012 -0.4155 -0.1136 -0.2192
  864TIP3    H124007   4.462   2.741  -0.060 -2.3076  1.5481  1.0972
  864TIP3    H224008   4.543   2.845   0.014  2.4634 -0.5590 -0.7433
  865TIP3   OH224009   5.478   5.591   4.808  0.7089  0.2406 -0.1696
  865TIP3    H124010   5.566   5.617   4.779  0.4540 -0.4348 -1.6847
  865TIP3    H224011   5.494   5.521   4.872  1.3076  2.0710  1.7940
  866TIP3   OH224012   0.060   5.659   3.594  0.0857 -0.0637  0.4871
  866TIP3    H124013   0.050   5.573   3.636 -0.1637 -0.3695 -0.1754
  866TIP3    H224014   0.050   5.640   3.501 -1.0230  0.8425  0.4065
  867TIP3   OH224015   3.700   6.237   3.080  0.0317 -0.2887 -0.3812
  867TIP3    H124016   3.776   6.264   3.132  0.5726 -0.1021 -1.2458
  867TIP3    H224017   3.718   6.145   3.060  1.7931  0.5768 -3.4452
  868TIP3   OH224018   5.401   6.041  14.878 -0.5576  0.6494  0.2160
  868TIP3    H124019   5.371   5.952  14.858 -1.9053  1.4077 -1.3551
  868TIP3    H224020   5.367   6.059  14.965 -0.0353 -0.4537  0.6691
  869TIP3   OH224021   1.849   4.122   3.944  0.2518 -0.0445  1.0590
  869TIP3    H124022   1.928   4.173   3.957 -0.0215  0.3908  1.0403
  869TIP3    H224023   1.827   4.133   3.852  0.6198 -0.8331  0.8660
  870TIP3   OH224024   0.461   4.865   2.893  0.5125 -0.2867  0.8455
  870TIP3    H124025   0.519   4.863   2.817 -0.3244 -1.9314  0.2140
  870TIP3    H224026   0.516   4.836   2.966  1.1608  0.7425  0.7925
  871TIP3   OH224027   0.617   0.351  15.857 -0.6072 -0.4771  0.2306
  871TIP3    H124028   0.687   0.343  15.793  1.0197 -0.7877  1.9466
  871TIP3    H224029   0.540   0.375  15.806  0.7009 -0.2766 -1.7590
  872TIP3   OH224030   0.585   2.190  16.279  0.1884 -0.3197  0.1218
  872TIP3    H124031   0.613   2.242  16.354 -0.7779 -1.5119  1.3701
  872TIP3    H224032   0.594   2.249  16.204  0.5873  1.1240  1.2563
  873TIP3   OH224033   4.533   0.910   0.551  0.2290 -0.1595 -0.0313
  873TIP3    H124034   4.627   0.897   0.564  0.1318 -1.7147 -0.6130
  873TIP3    H224035   4.521   0.897   0.457 -0.4898  0.5780 -0.0426
  874TIP3   OH224036   2.276   6.659   2.833 -0.2142 -0.0282  0.1501
  874TIP3    H124037   2.191   6.695   2.809  0.0602  0.6679  0.2037
  874TIP3    H224038   2.329   6.735   2.858  0.9152 -0.2477 -1.3972
  875TIP3   OH224039   5.259   3.235   3.550  0.0825 -0.0780 -0.3862
  875TIP3    H124040   5.342   3.271   3.581 -0.5404  1.5185 -0.4564
  875TIP3    H224041   5.229   3.178   3.621  1.0391 -0.3740 -0.2044
  876TIP3   OH224042   6.554   6.211  16.265  0.3594 -0.0476 -0.2183
  876TIP3    H124043   6.494   6.215  16.191 -0.0773 -0.4478  0.1091
  876TIP3    H224044   6.511   6.154  16.328  2.2178 -2.5652 -1.0155
  877TIP3   OH224045   0.426   5.552  13.528  0.4678 -0.5707  0.0013
  877TIP3    H124046   0.395   5.596  13.607  3.8100  2.9608 -0.3334
  877TIP3    H224047   0.365   5.581  13.460 -0.7096 -1.2538  0.7205
  878TIP3   OH224048   1.039   0.797  15.050 -0.3018 -0.5982  0.0066
  878TIP3    H124049   1.119   0.848  15.062 -0.2920 -0.8723  1.2679
  878TIP3    H224050   0.979   0.857  15.006  1.0009 -0.8125 -2.2368
  879TIP3   OH224051   3.561   6.733   4.976  0.0038  0.0465 -0.8683
  879TIP3    H124052   3.515   6.654   5.004 -0.3915  0.5844  0.0476
  879TIP3    H224053   3.650   6.704   4.957  0.0328 -0.5075  0.0978
  880TIP3   OH224054   2.451   1.967   5.814 -0.6260  0.4452  0.3706
  880TIP3    H124055   2.395   1.992   5.741 -0.8539 -1.6677 -0.2438
  880TIP3    H224056   2.505   1.896   5.780  1.6340  1.5767  1.3107
  881TIP3   OH224057   3.211   5.561   2.015  0.6208 -0.3405  0.3622
  881TIP3    H124058   3.252   5.537   2.098 -0.7382 -0.2164  1.0991
  881TIP3    H224059   3.144   5.625   2.039 -0.3414 -0.8976 -0.7204
  882TIP3   OH224060   5.814   0.853  16.610  0.2464  0.0260 -0.1864
  882TIP3    H124061   5.822   0.771  16.659  1.7797  0.1614 -0.1605
  882TIP3    H224062   5.826   0.922  16.676  0.8466  0.2262 -0.4888
  883TIP3   OH224063   0.785   2.853  16.358  0.7876  0.7104  0.3727
  883TIP3    H124064   0.714   2.856  16.422  0.4693  0.9605  0.0108
  883TIP3    H224065   0.742   2.861  16.273  1.0460 -1.3094 -0.0007
  884TIP3   OH224066   6.257   3.778   1.313  0.2826 -0.0827  0.3196
  884TIP3    H124067   6.340   3.732   1.319  0.6515  0.7443  1.9939
  884TIP3    H224068   6.190   3.711   1.329  0.6933 -0.4567  0.4803
  885TIP3   OH224069   0.281   4.911   4.449 -0.3946  0.6597 -0.1175
  885TIP3    H124070   0.324   4.973   4.391 -0.1141  0.2146 -0.3916
  885TIP3    H224071   0.319   4.826   4.427  0.8225  0.6568  1.7372
  886TIP3   OH224072   1.481   3.183   1.697  0.5675  0.8206  0.3189
  886TIP3    H124073   1.526   3.113   1.650  0.2160  1.2834 -0.7333
  886TIP3    H224074   1.539   3.259   1.688  0.1199  1.1232 -0.0733
  887TIP3   OH224075   3.856   4.662  10.447  0.1796  0.3585  0.6218
  887TIP3    H124076   3.924   4.594  10.449  0.0490  0.0583 -1.5774
  887TIP3    H224077   3.891   4.728  10.387 -0.9543  0.7760  0.3947
  888TIP3   OH224078   6.372   3.156  13.656  0.0251 -0.1606  0.2756
  888TIP3    H124079   6.309   3.212  13.702  0.7825  0.1313  0.9789
  888TIP3    H224080   6.436   3.217  13.620  0.2406 -0.5020  0.0753
  889TIP3   OH224081   2.013   3.323  15.345  0.6090  0.2131  0.0412
  889TIP3    H124082   2.059   3.240  15.361  0.2676 -0.0762 -0.4367
  889TIP3    H224083   2.074   3.373  15.290  0.7321  0.1976  0.1627
  890TIP3   OH224084   6.515   1.348   2.970  0.4797  0.2186 -0.0820
  890TIP3    H124085   6.506   1.269   3.024  1.9930 -0.1771 -0.3661
  890TIP3    H224086   6.604   1.378   2.986  0.7170  0.5222 -1.7564
  891TIP3   OH224087   3.014   2.254   5.187 -0.0149  0.4322 -0.2288
  891TIP3    H124088   3.048   2.308   5.258  1.1331  1.0299 -1.2133
  891TIP3    H224089   3.090   2.207   5.153 -0.8895 -1.3973  0.2251
  892TIP3   OH224090   6.264   4.483   2.900 -0.7366 -0.0456 -0.4147
  892TIP3    H124091   6.282   4.392   2.876 -1.2147 -0.4174  0.5792
  892TIP3    H224092   6.292   4.534   2.824  0.3564 -0.9489 -0.6370
  893TIP3   OH224093   3.507   2.278  13.812  0.3099 -0.4785 -0.6886
  893TIP3    H124094   3.505   2.374  13.811 -2.6722 -0.4331 -1.7498
  893TIP3    H224095   3.479   2.255  13.901  0.8057 -0.3631 -0.5013
  894TIP3   OH224096   5.341   3.186  13.671 -0.0745 -0.2192 -1.1114
  894TIP3    H124097   5.403   3.165  13.600  0.8613  0.0035 -0.3885
  894TIP3    H224098   5.319   3.278  13.656  2.1355  0.6352  0.2924
  895TIP3   OH224099   0.225   1.301   0.456 -0.1554  0.6596 -0.0339
  895TIP3    H124100   0.188   1.322   0.542  0.6132 -0.1104  0.5022
  895TIP3    H224101   0.317   1.326   0.463  0.5155 -1.6692  0.2357
  896TIP3   OH224102   2.717   5.756  12.992 -0.3898  0.2427  0.0324
  896TIP3    H124103   2.727   5.700  12.915  0.2629 -1.3292  1.1825
  896TIP3    H224104   2.622   5.764  13.003 -0.4941  1.0085 -1.2651
  897TIP3   OH224105   0.369   4.397  15.695 -0.2238 -0.3109  0.1827
  897TIP3    H124106   0.443   4.456  15.707 -0.9982  0.8421 -0.5082
  897TIP3    H224107   0.341   4.411  15.605 -0.4203 -1.7719 -0.0117
  898TIP3   OH224108   3.856   1.869   2.311 -0.1996 -0.4631  0.0395
  898TIP3    H124109   3.949   1.871   2.332 -0.3338  1.7789  0.6991
  898TIP3    H224110   3.815   1.824   2.385  0.3722 -2.1301 -0.5986
  899TIP3   OH224111   1.312   5.481  16.549 -0.3099  0.4632 -0.8854
  899TIP3    H124112   1.279   5.459  16.636  0.8097  0.2149 -0.5158
  899TIP3    H224113   1.258   5.429  16.489  0.0713 -0.7232 -0.2295
  900TIP3   OH224114   1.258   1.447  16.102  0.0834  0.2428  0.2352
  900TIP3    H124115   1.332   1.402  16.142 -1.0909 -0.3799  1.8006
  900TIP3    H224116   1.255   1.414  16.012  0.5879 -1.1425  0.7112
  901TIP3   OH224117   3.552   1.001   3.009 -0.2421  0.0868 -0.3788
  901TIP3    H124118   3.536   0.943   3.084  0.4335 -0.0753 -0.3557
  901TIP3    H224119   3.640   0.979   2.980 -0.3941  0.3448 -1.0534
  902TIP3   OH224120   0.670   6.620   2.807 -0.0800  0.0857 -0.2269
  902TIP3    H124121   0.701   6.705   2.775  1.0172 -0.0421  0.4525
  902TIP3    H224122   0.657   6.634   2.901  0.5325 -0.6156 -0.0312
  903TIP3   OH224123   2.724   4.530  16.188 -0.1583  0.5708  0.2142
  903TIP3    H124124   2.786   4.491  16.250  0.0928  1.1080  0.3022
  903TIP3    H224125   2.734   4.477  16.108 -1.0747 -0.6462  0.8701
  904TIP3   OH224126   5.738   3.449   1.703 -0.1579 -0.5342 -0.0357
  904TIP3    H124127   5.750   3.472   1.611 -0.2271 -1.4401 -0.2777
  904TIP3    H224128   5.787   3.367   1.714  1.4822  0.5528  1.2015
  905TIP3   OH224129   1.696   6.107  11.913 -1.2121 -0.1055  0.2288
  905TIP3    H124130   1.639   6.179  11.940 -0.8591  0.2202  0.1119
  905TIP3    H224131   1.704   6.052  11.990 -0.5535  0.5912  0.6719
  906TIP3   OH224132   6.685   0.778   0.604  0.6995 -0.6042 -0.0114
  906TIP3    H124133   6.717   0.696   0.566  0.2640 -2.0793  2.5462
  906TIP3    H224134   6.590   0.766   0.610  0.5549  0.3875 -0.2093
  907TIP3   OH224135   4.962   1.129   1.238 -0.6144 -0.1074 -0.1741
  907TIP3    H124136   4.907   1.188   1.289  1.4542  0.0350  2.0701
  907TIP3    H224137   4.949   1.043   1.278 -0.9043 -0.4973 -1.0919
  908TIP3   OH224138   5.372   5.283  13.887 -0.1702 -0.4473  0.0548
  908TIP3    H124139   5.379   5.257  13.979  2.2404  0.8545  0.3308
  908TIP3    H224140   5.280   5.308  13.876 -1.1759 -3.1541  1.3187
  909TIP3   OH224141   1.288   5.163  15.295  0.0271  0.1769 -0.0698
  909TIP3    H124142   1.321   5.076  15.313 -2.0950 -1.3941 -2.8775
  909TIP3    H224143   1.324   5.185  15.209 -0.4332  1.5348  0.0592
  910TIP3   OH224144   4.446   2.439  12.481 -0.4904 -0.3936  0.5583
  910TIP3    H124145   4.437   2.529  12.512 -1.3578  0.3039 -1.5485
  910TIP3    H224146   4.360   2.400  12.495 -0.0517 -1.0295  1.6939
  911TIP3   OH224147   3.467   3.965   0.398  0.3851  0.2456  0.4139
  911TIP3    H124148   3.409   3.969   0.474 -2.3839 -0.3561 -1.4906
  911TIP3    H224149   3.455   4.049   0.354  0.4902 -0.1149 -0.3229
  912TIP3   OH224150   1.780   6.070  16.131  0.9927  0.2064  0.1814
  912TIP3    H124151   1.845   6.057  16.062 -0.4377  0.4898 -1.2917
  912TIP3    H224152   1.699   6.035  16.094  0.1626  0.4497  1.7040
  913TIP3   OH224153   0.088   3.569  14.996  0.4284  0.1612  0.2363
  913TIP3    H124154  -0.002   3.535  14.990  0.3038  0.5115  0.1275
  913TIP3    H224155   0.139   3.511  14.940  0.0849  0.5911 -0.5232
  914TIP3   OH224156   6.014   6.294   1.863 -0.2401  0.1407  0.3845
  914TIP3    H124157   6.040   6.374   1.909  0.8724 -0.7034  1.2916
  914TIP3    H224158   6.026   6.315   1.771  2.0012  0.4216  0.6788
  915TIP3   OH224159   3.739   2.636  14.491 -0.5530  0.1947  0.1836
  915TIP3    H124160   3.679   2.711  14.484 -0.5236  0.0816 -1.5945
  915TIP3    H224161   3.824   2.671  14.464 -0.4517 -0.3733 -0.2425
  916TIP3   OH224162   4.348   3.205   1.461 -0.0237 -0.3802 -0.3658
  916TIP3    H124163   4.371   3.216   1.369 -0.2923 -0.6931 -0.4776
  916TIP3    H224164   4.253   3.217   1.463  0.0462  0.1404 -0.0433
  917TIP3   OH224165   1.595   0.447  15.628  0.3819  0.2886  0.4587
  917TIP3    H124166   1.510   0.491  15.633  1.1983  1.9074  0.8419
  917TIP3    H224167   1.583   0.365  15.675 -0.6903  0.9674  1.4079
  918TIP3   OH224168   4.627   0.735  13.109  0.0591  0.2878  0.2330
  918TIP3    H124169   4.631   0.644  13.138 -0.8588  0.4895  1.0524
  918TIP3    H224170   4.688   0.781  13.166  1.1924  0.0604 -0.7619
  919TIP3   OH224171   0.974   6.233  16.248  0.1836 -0.4386  0.5127
  919TIP3    H124172   0.953   6.316  16.204 -0.2735 -0.9553 -0.2607
  919TIP3    H224173   1.064   6.214  16.220 -0.3765 -1.1601 -0.8448
  920TIP3   OH224174   0.332   1.805  12.439 -0.1450 -0.3253  0.6400
  920TIP3    H124175   0.350   1.752  12.517  1.9931  0.1556  0.5107
  920TIP3    H224176   0.243   1.839  12.454  0.5758  0.5930  3.3676
  921TIP3   OH224177   1.086   3.140  11.771 -0.9796  0.5009  0.2624
  921TIP3    H124178   1.122   3.074  11.712  0.6589  2.6657 -1.3247
  921TIP3    H224179   1.159   3.164  11.827 -1.1244  1.9267 -0.1291
  922TIP3   OH224180   2.320   1.753   6.163 -0.2107 -0.1713  0.2754
  922TIP3    H124181   2.339   1.719   6.075  1.3854  0.8330  0.1934
  922TIP3    H224182   2.229   1.726   6.180 -0.2588 -1.1403 -1.3111
  923TIP3   OH224183   0.359   1.578  15.814  0.3420  0.0834 -0.6339
  923TIP3    H124184   0.267   1.597  15.830  0.2096 -0.4215 -0.7857
  923TIP3    H224185   0.382   1.630  15.737  0.7786  1.9450  0.6815
  924TIP3   OH224186   6.216   6.521   0.281  0.7522  0.5644 -0.0896
  924TIP3    H124187   6.143   6.580   0.261 -1.7656 -1.7277  1.7454
  924TIP3    H224188   6.236   6.539   0.373 -1.6299 -2.7532  1.2705
  925TIP3   OH224189   6.746   3.614  16.741 -0.3246 -0.3792  0.2335
  925TIP3    H124190   6.702   3.625  16.826  0.0915 -0.4599  0.4604
  925TIP3    H224191   6.823   3.561  16.760  1.6304  2.2992  0.4166
  926TIP3   OH224192   6.531   2.716  16.661  0.0584  0.1878 -0.0527
  926TIP3    H124193   6.623   2.707  16.635  0.0961  1.4748 -0.3913
  926TIP3    H224194   6.484   2.655  16.604  0.6798 -0.3818  0.0327
  927TIP3   OH224195   5.022   0.021   1.431 -0.2955  0.2608 -0.4623
  927TIP3    H124196   5.044  -0.068   1.459 -0.7665  0.0403 -0.7812
  927TIP3    H224197   5.054   0.077   1.502 -2.0532 -0.3290  0.8793
  928TIP3   OH224198   6.008   3.978   4.602  0.1414  0.0048 -0.0723
  928TIP3    H124199   6.072   3.954   4.535 -0.3844 -0.9340 -0.2662
  928TIP3    H224200   6.002   3.900   4.658 -0.4160  0.2844  0.2684
  929TIP3   OH224201   5.534   2.337   2.884 -0.2144  0.2774 -0.6479
  929TIP3    H124202   5.595   2.334   2.958 -0.4386  1.6007 -0.3762
  929TIP3    H224203   5.449   2.317   2.923 -0.1993  0.1095 -0.7041
  930TIP3   OH224204   4.405   0.740  12.013 -0.1870  0.4978 -0.4869
  930TIP3    H124205   4.380   0.652  11.984  1.2959  0.1125 -0.6926
  930TIP3    H224206   4.496   0.730  12.042 -0.3601  1.7240  0.5766
  931TIP3   OH224207   1.045   1.946   6.116  0.1022 -0.1445  0.1979
  931TIP3    H124208   0.992   2.000   6.057 -1.2620 -0.9004  0.6969
  931TIP3    H224209   0.995   1.944   6.198 -0.0419 -2.3777  0.0976
  932TIP3   OH224210   1.015   6.116   1.957 -0.3841 -0.2543 -1.2286
  932TIP3    H124211   0.991   6.140   2.046  0.9393  0.2436 -0.9840
  932TIP3    H224212   0.932   6.108   1.911 -1.0189  1.2446 -0.4002
  933TIP3   OH224213   0.034   6.235   5.956 -0.0426  0.3660  0.2045
  933TIP3    H124214  -0.032   6.189   6.008  2.4844  0.1899  3.5335
  933TIP3    H224215   0.048   6.318   6.003  0.9991  1.1169 -1.3445
  934TIP3   OH224216   5.867   0.589   2.904  0.1743 -0.6544  0.4132
  934TIP3    H124217   5.850   0.683   2.893  1.3866  0.0139  3.3289
  934TIP3    H224218   5.787   0.556   2.944 -0.1380 -0.8478 -0.3436
  935TIP3   OH224219   5.178   2.041   6.518 -0.3742  0.1656  0.4614
  935TIP3    H124220   5.222   1.968   6.474  1.2216  1.0714  0.4621
  935TIP3    H224221   5.202   2.033   6.610 -1.0978  0.0715  0.6462
  936TIP3   OH224222   5.663   6.398  17.040 -0.3568 -0.1394 -0.4103
  936TIP3    H124223   5.702   6.418  16.955  0.9017 -1.2509 -0.1306
  936TIP3    H224224   5.686   6.307  17.056  0.0960  0.2614  1.4625
  937TIP3   OH224225   2.042   3.392  13.868 -0.2931 -0.5990 -0.0484
  937TIP3    H124226   2.047   3.461  13.935  0.1750  0.1869 -0.8677
  937TIP3    H224227   2.128   3.350  13.871  0.5413  0.8897 -1.6333
  938TIP3   OH224228   1.667   2.623   3.825  0.2002 -0.3358 -0.3237
  938TIP3    H124229   1.740   2.572   3.862  0.3008 -0.3205 -0.5017
  938TIP3    H224230   1.674   2.610   3.731  0.0145 -0.2751 -0.3457
  939TIP3   OH224231   3.628   5.118  16.656 -0.2119 -0.4096  0.3423
  939TIP3    H124232   3.595   5.206  16.675 -0.6673 -0.6306  0.5725
  939TIP3    H224233   3.551   5.062  16.661  0.4852 -1.2353  2.7165
  940TIP3   OH224234   6.082   0.549  13.444  0.4124  0.7846  0.4265
  940TIP3    H124235   6.131   0.522  13.521 -1.6360 -0.5854  1.3366
  940TIP3    H224236   6.061   0.468  13.397  0.6945  1.4975 -1.0021
  941TIP3   OH224237   4.778   4.030   5.976 -0.0126 -0.2163  0.0352
  941TIP3    H124238   4.715   3.958   5.980 -1.0288  0.5945 -0.7005
  941TIP3    H224239   4.857   3.992   5.939 -0.2986 -1.1011  0.3217
  942TIP3   OH224240   5.533   4.100  11.047  0.3273 -0.3269  0.4099
  942TIP3    H124241   5.553   4.009  11.068  0.3122  0.0230  2.1046
  942TIP3    H224242   5.604   4.128  10.990 -0.2950 -1.7121 -1.1495
  943TIP3   OH224243   5.453   0.522  14.737  0.3931  0.1346 -0.7572
  943TIP3    H124244   5.398   0.563  14.670 -1.0701  1.4186  1.0960
  943TIP3    H224245   5.395   0.461  14.782  2.0800 -2.8447 -2.3152
  944TIP3   OH224246   4.033   1.123  15.963 -0.3771  0.1905  0.4322
  944TIP3    H124247   3.955   1.087  15.920  0.6340 -1.5979 -0.0050
  944TIP3    H224248   4.066   1.188  15.901 -0.1597 -0.8075 -0.5264
  945TIP3   OH224249   0.616   6.039   0.362  0.2385 -0.3369  0.3485
  945TIP3    H124250   0.599   6.110   0.423 -0.2399 -1.0398  1.0394
  945TIP3    H224251   0.545   6.045   0.297  0.5462  0.1841  0.0494
  946TIP3   OH224252   2.571   6.462   4.218 -0.1040  0.5324 -0.3509
  946TIP3    H124253   2.544   6.371   4.229 -2.2775  0.6333 -3.4656
  946TIP3    H224254   2.661   6.457   4.187 -0.1106 -0.5516 -0.2122
  947TIP3   OH224255   4.519   1.789   4.421  0.1836  0.2901 -0.2560
  947TIP3    H124256   4.430   1.754   4.430  0.3965 -0.2347 -0.1548
  947TIP3    H224257   4.566   1.758   4.499  0.4622  0.5324 -0.3265
  948TIP3   OH224258   4.875   0.594   4.924  0.2050  0.2625  0.6214
  948TIP3    H124259   4.848   0.506   4.950  0.1504 -0.0371 -0.3971
  948TIP3    H224260   4.905   0.584   4.833 -1.8200  1.6736 -0.2771
  949TIP3   OH224261   1.910   0.795  14.916 -0.0264 -0.1601 -0.0643
  949TIP3    H124262   1.983   0.740  14.889 -0.5481 -0.5150 -0.7648
  949TIP3    H224263   1.858   0.739  14.974 -0.0738 -0.1062 -0.0557
  950TIP3   OH224264   1.597   5.056   4.031  0.3244  0.1321  0.1171
  950TIP3    H124265   1.589   5.001   3.953 -0.9184 -2.5907  1.9950
  950TIP3    H224266   1.691   5.068   4.043  0.6156 -1.1777 -0.6653
  951TIP3   OH224267   6.129   3.195   0.250 -0.2943  0.6634  0.0867
  951TIP3    H124268   6.071   3.166   0.179  0.4349 -1.2222  0.2266
  951TIP3    H224269   6.214   3.206   0.208 -0.0871  0.5310  0.4744
  952TIP3   OH224270   4.289   3.099  12.420  0.8651 -0.1980 -0.1784
  952TIP3    H124271   4.272   3.188  12.450 -1.7214 -0.9784  0.9132
  952TIP3    H224272   4.359   3.067  12.477  2.3838  1.3315 -1.1020
  953TIP3   OH224273   3.300   5.747   6.107 -0.5987  0.3041  1.0466
  953TIP3    H124274   3.371   5.708   6.056 -0.1715 -0.5419  2.2668
  953TIP3    H224275   3.340   5.822   6.151 -1.4838  2.4328 -1.5202
  954TIP3   OH224276   2.341   5.670   4.183  0.3541  0.4981  0.4361
  954TIP3    H124277   2.314   5.714   4.102 -1.5120  0.5009  1.0229
  954TIP3    H224278   2.408   5.608   4.155 -0.9496 -0.1986 -1.2896
  955TIP3   OH224279   5.479   1.327   2.165  0.5637 -0.0933 -0.1745
  955TIP3    H124280   5.557   1.314   2.219  2.1604 -3.3986 -2.9173
  955TIP3    H224281   5.508   1.387   2.096  0.7551 -1.2499 -1.1407
  956TIP3   OH224282   0.728   3.119  12.329 -0.6966 -0.1830  0.8131
  956TIP3    H124283   0.718   3.025  12.320 -1.8316 -0.3534  3.1738
  956TIP3    H224284   0.781   3.131  12.407  2.3385  1.1764 -1.2617
  957TIP3   OH224285   2.027   0.188   0.086  0.1829 -0.7178 -0.4492
  957TIP3    H124286   1.971   0.245   0.033  2.8572  3.0310  0.2773
  957TIP3    H224287   1.969   0.151   0.152 -1.7538  1.6501 -0.6635
  958TIP3   OH224288   1.723   3.276   6.158  0.4928  0.6386 -0.3731
  958TIP3    H124289   1.679   3.337   6.217 -0.5051  0.0678 -0.5047
  958TIP3    H224290   1.738   3.197   6.211 -1.9771 -0.5429 -1.2709
  959TIP3   OH224291   6.400   1.173   2.797  0.6479  0.1568 -0.0269
  959TIP3    H124292   6.429   1.255   2.838 -0.4837  0.9770 -0.8183
  959TIP3    H224293   6.480   1.121   2.788  1.1657  0.5791  1.7798
  960TIP3   OH224294   3.242   3.391   0.962 -0.3239  0.3746 -0.0396
  960TIP3    H124295   3.338   3.396   0.965 -0.2623  2.0728 -2.2229
  960TIP3    H224296   3.215   3.416   1.050  1.2357  0.7390  0.3755
  961TIP3   OH224297   4.502   5.089  16.933  0.3505  0.9072 -0.3330
  961TIP3    H124298   4.437   5.128  16.992  0.2353  1.2503 -0.6757
  961TIP3    H224299   4.580   5.078  16.986  0.1326  0.8711 -0.0214
  962TIP3   OH224300   1.783   4.292   3.328  0.3114  0.2810 -0.1205
  962TIP3    H124301   1.801   4.306   3.235 -1.6434  2.0815 -0.2954
  962TIP3    H224302   1.812   4.373   3.370  1.9185 -0.8140  1.0217
  963TIP3   OH224303   2.480   5.412  13.532 -0.1408  0.2669  0.9412
  963TIP3    H124304   2.519   5.358  13.463  1.8927  1.5864  0.9640
  963TIP3    H224305   2.386   5.397  13.525 -0.1001  0.8123 -2.5476
  964TIP3   OH224306   4.203   4.185   3.179 -0.0803  0.2835 -0.2285
  964TIP3    H124307   4.266   4.253   3.204 -3.0478  2.9964  0.5111
  964TIP3    H224308   4.159   4.162   3.260  0.3920 -2.1712 -0.5853
  965TIP3   OH224309   6.503   6.280  17.125  0.5717  0.8179  0.2957
  965TIP3    H124310   6.575   6.297  17.185 -2.1612  1.4105  3.7222
  965TIP3    H224311   6.429   6.327  17.162 -2.2471 -1.7777 -1.5344
  966TIP3   OH224312   1.105   0.662   0.520  0.4312 -0.2092  0.0516
  966TIP3    H124313   1.044   0.599   0.558  0.3507  0.0907  0.4300
  966TIP3    H224314   1.165   0.683   0.592  0.7777 -0.2525 -0.2230
  967TIP3   OH224315   5.042   5.303  11.127  0.3212 -0.0563  0.2067
  967TIP3    H124316   5.079   5.324  11.213  0.4933 -0.4462  0.2319
  967TIP3    H224317   4.993   5.222  11.141  0.2115 -0.0317 -0.0254
  968TIP3   OH224318   6.380   2.634   0.542 -0.0642  0.8059 -0.2564
  968TIP3    H124319   6.323   2.571   0.500  0.4692  1.5009 -2.1332
  968TIP3    H224320   6.468   2.613   0.509  0.5917  0.6158  1.5012
  969TIP3   OH224321   2.665   0.242   1.764 -0.6986  0.0203  0.2839
  969TIP3    H124322   2.611   0.260   1.687  0.6706 -0.4696 -0.8445
  969TIP3    H224323   2.691   0.329   1.795 -2.1773  0.2645  0.9129
  970TIP3   OH224324   5.274   4.357   1.966  0.0280 -0.0276  0.5690
  970TIP3    H124325   5.195   4.408   1.950 -0.1575 -0.6133 -0.4910
  970TIP3    H224326   5.283   4.302   1.888  2.1271  0.8533  0.1047
  971TIP3   OH224327   1.586   0.925   1.701 -0.0840 -0.1597  0.0206
  971TIP3    H124328   1.654   0.862   1.674 -0.4129  0.4033 -2.3813
  971TIP3    H224329   1.525   0.873   1.753  1.8415 -0.8043  1.8091
  972TIP3   OH224330   4.891   0.202  11.649 -0.7061 -0.4145  0.1539
  972TIP3    H124331   4.934   0.155  11.578 -0.7290  0.3844 -0.4002
  972TIP3    H224332   4.804   0.163  11.655 -0.3372 -1.2121  0.4721
  973TIP3   OH224333   0.456   6.216   4.372  0.1867  0.1674  0.6318
  973TIP3    H124334   0.516   6.172   4.431  0.6069 -2.0802 -1.3272
  973TIP3    H224335   0.372   6.172   4.386 -0.2417  1.0990  1.0598
  974TIP3   OH224336   6.129   0.110   6.466 -0.4374  0.4169 -0.0332
  974TIP3    H124337   6.039   0.079   6.475 -0.7124  1.0775 -0.4949
  974TIP3    H224338   6.128   0.165   6.388  0.5801 -0.3627 -0.6285
  975TIP3   OH224339   6.298   5.740  12.281  0.4711 -0.1953  0.0409
  975TIP3    H124340   6.295   5.835  12.268  2.1238 -0.1105  0.0006
  975TIP3    H224341   6.226   5.706  12.228  0.3004  0.9883 -0.5198
  976TIP3   OH224342   5.704   1.168   3.068  0.2672 -0.2901  0.5959
  976TIP3    H124343   5.631   1.106   3.063  0.1804 -0.1977  0.7139
  976TIP3    H224344   5.686   1.232   3.000 -0.2235  0.2258  1.2019
  977TIP3   OH224345   0.540   3.646  16.712  0.4556 -0.0684 -0.5044
  977TIP3    H124346   0.600   3.687  16.650  1.3229  1.8617  1.5022
  977TIP3    H224347   0.478   3.715  16.735 -1.0145 -1.3031 -0.5804
  978TIP3   OH224348   2.815   1.775  16.191 -0.3014 -0.2575  0.1839
  978TIP3    H124349   2.862   1.848  16.231 -0.2758  0.4929 -1.1545
  978TIP3    H224350   2.803   1.712  16.262 -1.4168  1.5705  1.7175
  979TIP3   OH224351   1.338   6.304   1.662  0.0462 -0.4279  0.3980
  979TIP3    H124352   1.429   6.324   1.643 -0.2580  0.2404 -0.4115
  979TIP3    H224353   1.331   6.311   1.758  0.3183  1.8274  0.3000
  980TIP3   OH224354   2.687   2.542  12.052  0.1127  0.9524 -0.3482
  980TIP3    H124355   2.743   2.614  12.080  0.9901  0.3017 -0.3660
  980TIP3    H224356   2.744   2.488  11.996 -1.0471  1.2167 -1.8424
  981TIP3   OH224357   2.713   0.354  12.126 -0.4852  0.4613 -0.0665
  981TIP3    H124358   2.625   0.345  12.090 -0.6281  0.4427  0.2849
  981TIP3    H224359   2.710   0.432  12.181 -0.2109  0.6106 -0.2595
  982TIP3   OH224360   3.381   5.653  12.647  0.1165 -0.0579  0.0199
  982TIP3    H124361   3.424   5.585  12.596 -0.7883 -1.5636  1.1957
  982TIP3    H224362   3.325   5.606  12.708 -0.0987  1.7257  1.2864
  983TIP3   OH224363   5.210   5.094   6.089 -0.2821  0.4172 -0.2942
  983TIP3    H124364   5.144   5.028   6.113  0.0328  0.2852  0.2381
  983TIP3    H224365   5.253   5.115   6.172 -0.1052  0.9957 -0.5307
  984TIP3   OH224366   2.956   3.825  14.036  0.1906 -0.1690  0.6527
  984TIP3    H124367   2.953   3.913  13.998  0.3622 -0.1635  0.6510
  984TIP3    H224368   3.048   3.812  14.059 -0.0133  0.0703  1.6516
  985TIP3   OH224369   4.761   5.282   1.650  0.1166 -0.5985 -0.0399
  985TIP3    H124370   4.765   5.366   1.604  1.5781 -0.5894  0.0436
  985TIP3    H224371   4.668   5.262   1.657 -0.2069 -0.5443 -2.9328
  986TIP3   OH224372   5.859   2.316  16.704 -0.1227  0.0419  0.3519
  986TIP3    H124373   5.836   2.237  16.753  0.0705  0.7030  1.5478
  986TIP3    H224374   5.819   2.387  16.753  0.2774  0.7554 -0.3323
  987TIP3   OH224375   1.434   3.377  16.544 -0.1293 -0.3243 -0.0254
  987TIP3    H124376   1.474   3.374  16.456 -0.0594  1.0878 -0.0751
  987TIP3    H224377   1.380   3.299  16.548  0.1926 -0.6378 -1.1784
  988TIP3   OH224378   1.021   1.394   1.889  0.3411 -0.2067  0.1510
  988TIP3    H124379   1.001   1.488   1.891 -0.4247 -0.3677  0.3490
  988TIP3    H224380   0.967   1.359   1.818 -0.7866 -0.8046  1.2771
  989TIP3   OH224381   6.490   5.276   1.727 -0.0692 -0.0470  0.2281
  989TIP3    H124382   6.457   5.218   1.795 -1.9401  1.1197  0.4028
  989TIP3    H224383   6.559   5.327   1.769  1.2506 -1.7296  0.2038
  990TIP3   OH224384   4.832   4.576  11.182  0.1867 -0.1438 -0.0042
  990TIP3    H124385   4.754   4.570  11.127  1.1940 -0.1918 -1.5090
  990TIP3    H224386   4.882   4.497  11.160  0.9241  0.1812  0.4802
  991TIP3   OH224387   3.286   6.115  11.615  0.6384  0.1383 -0.5572
  991TIP3    H124388   3.366   6.143  11.660  0.6078 -0.4119 -0.1440
  991TIP3    H224389   3.277   6.174  11.541  0.6863  1.0904  0.1804
  992TIP3   OH224390   5.828   5.299   3.666  0.2271 -0.1280 -0.4495
  992TIP3    H124391   5.843   5.209   3.695 -0.3786 -0.6870 -1.7841
  992TIP3    H224392   5.900   5.317   3.605 -0.2341 -0.0807 -0.9823
  993TIP3   OH224393   1.871   0.005   4.665 -0.2412 -0.4150 -0.0237
  993TIP3    H124394   1.838   0.027   4.752  1.2781  0.0424  0.4814
  993TIP3    H224395   1.822   0.062   4.606 -2.3195 -1.7374  0.3154
  994TIP3   OH224396   2.920   3.546   2.654  0.8104 -0.2943  0.4195
  994TIP3    H124397   2.987   3.555   2.586 -0.1545  0.1191 -0.4861
  994TIP3    H224398   2.970   3.520   2.732  1.9689 -0.4528 -0.3460
  995TIP3   OH224399   2.694   3.940  11.380  0.2296 -0.7271 -0.0446
  995TIP3    H124400   2.724   3.860  11.424  2.3957 -0.6016 -1.1321
  995TIP3    H224401   2.670   3.999  11.451  0.3958 -1.6876  0.8474
  996TIP3   OH224402   4.504   6.228   1.813 -0.1178  0.5048  0.1333
  996TIP3    H124403   4.476   6.165   1.879  2.2097 -1.2408 -0.4130
  996TIP3    H224404   4.538   6.302   1.864 -2.6174  1.3003  0.7840
  997TIP3   OH224405   1.851   6.073   5.179  0.7451  0.3741 -0.3240
  997TIP3    H124406   1.861   5.999   5.118 -0.0859  0.5706 -0.7090
  997TIP3    H224407   1.762   6.105   5.164 -0.1528 -0.6596  2.2269
  998TIP3   OH224408   4.612   0.803   0.945  0.0123  0.0412  0.2949
  998TIP3    H124409   4.690   0.793   1.000  0.8332  0.3810 -0.7782
  998TIP3    H224410   4.588   0.714   0.921  0.6216 -0.0129 -0.1181
  999TIP3   OH224411   1.166   4.386  11.612 -0.3227  0.5045 -0.2004
  999TIP3    H124412   1.131   4.376  11.700  2.1661 -0.9722  0.7342
  999TIP3    H224413   1.197   4.477  11.608  0.0015  0.4407  0.6631
 1000TIP3   OH224414   0.775   2.058   5.068  0.0048 -0.1102  0.8353
 1000TIP3    H124415   0.688   2.081   5.101 -0.2796  0.1881 -0.0806
 1000TIP3    H224416   0.834   2.122   5.107 -0.2240 -0.1523  1.2557
 1001TIP3   OH224417   4.180   1.602   3.014 -0.5735  0.3324  0.4964
 1001TIP3    H124418   4.205   1.524   3.065 -0.9243  1.5073  2.5578
 1001TIP3    H224419   4.258   1.657   3.014 -1.7957  2.3791  3.8432
 1002TIP3   OH224420   6.653   1.657  11.887 -0.4918 -0.3950  0.1984
 1002TIP3    H124421   6.656   1.585  11.951  0.4378  2.3397  3.5658
 1002TIP3    H224422   6.735   1.650  11.839 -0.5220 -1.7056  0.2916
 1003TIP3   OH224423   3.507   5.581  14.277  0.9253 -0.7285 -0.0987
 1003TIP3    H124424   3.538   5.575  14.367 -0.0141 -0.1305  0.2838
 1003TIP3    H224425   3.411   5.580  14.284  0.8287 -0.0967 -1.0328
 1004TIP3   OH224426   1.721   1.814  16.693 -0.5172 -0.5213  0.0446
 1004TIP3    H124427   1.764   1.728  16.690  0.6481  0.0160  0.5950
 1004TIP3    H224428   1.745   1.849  16.778 -0.8252  0.4379 -0.2553
 1005TIP3   OH224429   1.431   1.547   6.068  0.1108  0.5416  0.0131
 1005TIP3    H124430   1.403   1.457   6.050 -0.5396  0.9279 -1.0095
 1005TIP3    H224431   1.392   1.568   6.152 -1.3033  0.4794 -0.5972
 1006TIP3   OH224432   3.999   4.702  15.897 -0.4020 -0.1506  0.1660
 1006TIP3    H124433   3.926   4.654  15.858 -0.1124 -0.1565 -0.3872
 1006TIP3    H224434   4.077   4.656  15.866 -0.1631 -0.1827  0.8027
 1007TIP3   OH224435   1.682   1.517   1.977 -0.5982 -0.0926  0.2259
 1007TIP3    H124436   1.759   1.575   1.978 -0.6787  0.0939 -1.7958
 1007TIP3    H224437   1.710   1.441   1.927 -1.8321  0.1432 -0.8568
 1008TIP3   OH224438   2.895   3.710   6.093 -0.0335  0.4230 -0.1482
 1008TIP3    H124439   2.822   3.683   6.149 -0.1119  0.0846 -0.4086
 1008TIP3    H224440   2.921   3.796   6.127  0.3455 -0.0548  0.8254
 1009TIP3   OH224441   5.611   5.962   0.148 -0.3639  0.0938 -0.4291
 1009TIP3    H124442   5.615   5.932   0.239 -0.5822  1.8116  0.1843
 1009TIP3    H224443   5.692   6.010   0.135 -0.0384 -0.6814 -1.3740
 1010TIP3   OH224444   3.035   4.682   6.424 -0.1272  0.7703 -0.1370
 1010TIP3    H124445   2.955   4.696   6.373 -0.3140  0.2231 -0.0004
 1010TIP3    H224446   3.105   4.718   6.370 -0.5912  2.3123  0.2466
 1011TIP3   OH224447   5.244   3.149  15.976  0.3755  0.8931  0.0566
 1011TIP3    H124448   5.177   3.163  16.042 -1.7556  0.3794 -1.8804
 1011TIP3    H224449   5.280   3.063  15.997 -1.3676  0.0335 -0.2763
 1012TIP3   OH224450   3.690   5.235  11.926  0.2992 -0.0359 -0.0151
 1012TIP3    H124451   3.742   5.162  11.891  0.8878 -0.7071  2.0544
 1012TIP3    H224452   3.754   5.292  11.968 -0.4253  0.2492  0.7287
 1013TIP3   OH224453   3.858   5.859  13.075 -0.0633 -0.1296 -0.0484
 1013TIP3    H124454   3.902   5.880  13.158 -1.7928 -0.1816  0.9288
 1013TIP3    H224455   3.779   5.811  13.101 -0.4533 -0.4842 -1.7608
 1014TIP3   OH224456   0.757   0.779  16.256 -0.3583  0.2272 -0.1446
 1014TIP3    H124457   0.733   0.694  16.218  0.0404 -0.5329  1.2392
 1014TIP3    H224458   0.778   0.759  16.347  2.1727  1.4006 -0.4037
 1015TIP3   OH224459   0.742   4.583   3.293 -0.2803 -0.1433  0.3911
 1015TIP3    H124460   0.755   4.489   3.283  0.0546  0.0252 -0.9079
 1015TIP3    H224461   0.726   4.595   3.387 -1.0346 -1.5746  0.4768
 1016TIP3   OH224462   6.396   5.053  10.712  0.1171  0.7008 -0.0285
 1016TIP3    H124463   6.339   5.122  10.746 -0.1372  0.1480  0.6964
 1016TIP3    H224464   6.434   5.013  10.791 -2.6885 -2.5492 -0.0928
 1017TIP3   OH224465   3.017   2.069  13.549 -0.1711 -0.3943  0.2236
 1017TIP3    H124466   3.004   1.980  13.516 -0.1922 -1.0103  1.7786
 1017TIP3    H224467   2.955   2.076  13.622 -0.6041  1.1217 -0.2607
 1018TIP3   OH224468   1.423   0.277  15.105 -0.5094 -1.0263  0.5103
 1018TIP3    H124469   1.515   0.259  15.084 -0.3227 -1.8346  1.8837
 1018TIP3    H224470   1.403   0.218  15.178 -1.6215  0.3341  1.3614
 1019TIP3   OH224471   4.329   4.815  16.484 -0.2914  0.9446  0.3821
 1019TIP3    H124472   4.348   4.842  16.574 -0.0252 -0.3766  0.7532
 1019TIP3    H224473   4.234   4.815  16.479 -0.3259  0.3647  0.8936
 1020TIP3   OH224474   5.448   2.451  16.778  0.3330  0.2354  0.2259
 1020TIP3    H124475   5.379   2.386  16.766 -0.9896  0.8765  3.3046
 1020TIP3    H224476   5.430   2.518  16.712 -1.3259 -0.1554  0.2496
 1021TIP3   OH224477   3.443   2.027   0.805  0.2586  0.5026  0.0137
 1021TIP3    H124478   3.420   1.942   0.841  1.2301  0.5425  0.7773
 1021TIP3    H224479   3.494   2.008   0.727  1.2530  0.3488  0.6787
 1022TIP3   OH224480   1.869   5.271  15.654  0.3633  0.2153 -0.0318
 1022TIP3    H124481   1.832   5.357  15.633 -0.5903 -0.1189  0.2111
 1022TIP3    H224482   1.880   5.272  15.749  0.5396  0.1351 -0.0494
 1023TIP3   OH224483   4.774   0.208   6.133 -0.0165 -0.2390  0.3402
 1023TIP3    H124484   4.734   0.126   6.164  0.6057 -0.4088  0.7204
 1023TIP3    H224485   4.701   0.269   6.126 -0.3831 -0.6148  0.7786
 1024TIP3   OH224486   0.844   3.267  11.408  0.3198 -0.9779  0.1761
 1024TIP3    H124487   0.870   3.318  11.331  1.9776 -1.1673  0.5608
 1024TIP3    H224488   0.753   3.244  11.392 -0.1166  1.0572 -0.5747
 1025TIP3   OH224489   2.388   2.980   4.075  0.3042  0.4841 -0.3401
 1025TIP3    H124490   2.311   3.001   4.128 -0.1759 -0.7616 -0.4972
 1025TIP3    H224491   2.432   3.064   4.061 -0.2398  1.0119  0.9689
 1026TIP3   OH224492   0.111   1.425  17.183  0.4134 -0.4052 -0.5470
 1026TIP3    H124493   0.090   1.438  17.275  1.7730  0.4625 -0.3188
 1026TIP3    H224494   0.027   1.423  17.138 -0.3748 -2.4695  0.8777
 1027TIP3   OH224495   3.426   2.371  16.787 -0.5721  0.1890 -0.0670
 1027TIP3    H124496   3.516   2.405  16.782 -0.4625  0.0641  0.8394
 1027TIP3    H224497   3.381   2.411  16.714  0.5524 -0.7443 -1.3332
 1028TIP3   OH224498   5.048   6.071  16.034  0.4521  0.6046 -0.2744
 1028TIP3    H124499   5.121   6.059  16.095  1.7983 -1.0661 -2.0655
 1028TIP3    H224500   5.018   6.160  16.049  2.2652  1.0260  1.1800
 1029TIP3   OH224501   1.051   3.771   5.126 -0.1409 -0.0398 -0.0689
 1029TIP3    H124502   1.067   3.777   5.220  2.2408  2.1258 -0.5213
 1029TIP3    H224503   1.103   3.697   5.097 -0.0504 -0.0706  0.1705
 1030TIP3   OH224504   4.996   2.160   4.605  0.9384  0.4600 -0.2600
 1030TIP3    H124505   4.902   2.141   4.609  0.8995  0.6594 -0.2383
 1030TIP3    H224506   5.020   2.186   4.694  1.2562 -0.7225  0.0151
 1031TIP3   OH224507   4.635   1.547  13.167  0.2317  0.2070 -0.2734
 1031TIP3    H124508   4.697   1.474  13.153 -0.5866 -0.6432  0.4108
 1031TIP3    H224509   4.614   1.542  13.260 -2.9442 -1.2733 -0.9379
 1032TIP3   OH224510   3.250   5.869  13.648 -0.0220 -0.0259  0.7775
 1032TIP3    H124511   3.260   5.777  13.672  1.2719  0.1110  0.8213
 1032TIP3    H224512   3.217   5.911  13.727 -0.0842 -0.3588  0.9319
 1033TIP3   OH224513   2.923   1.643   3.068  0.0615 -0.1284 -0.2728
 1033TIP3    H124514   2.935   1.598   3.152 -0.6958 -0.3564 -0.2771
 1033TIP3    H224515   2.881   1.726   3.092  2.1479  0.9762 -0.1805
 1034TIP3   OH224516   5.083   0.817  12.126 -0.7540 -0.2268  0.3568
 1034TIP3    H124517   5.156   0.790  12.182 -0.4969 -0.4563 -0.0877
 1034TIP3    H224518   5.031   0.738  12.113 -0.1065 -0.4768 -0.7859
 1035TIP3   OH224519   5.099   2.675  13.271 -0.3347  0.1013 -0.1073
 1035TIP3    H124520   5.080   2.592  13.226 -0.1944 -0.8900  1.5567
 1035TIP3    H224521   5.013   2.712  13.291 -0.4329 -0.5627  0.7340
 1036TIP3   OH224522   2.203   3.751   4.255  0.3585  0.0677  0.3783
 1036TIP3    H124523   2.148   3.722   4.327  0.5867  1.9429  1.3857
 1036TIP3    H224524   2.145   3.802   4.199  0.1602 -1.4677 -0.8625
 1037TIP3   OH224525   2.805   2.029  17.340  0.2113  0.5977  0.3120
 1037TIP3    H124526   2.710   2.027  17.348 -0.1846  0.9357 -2.8641
 1037TIP3    H224527   2.827   2.122  17.346 -0.0384  0.8090 -1.4478
 1038TIP3   OH224528   2.728   1.198   4.628  0.3679 -0.2429  0.0051
 1038TIP3    H124529   2.766   1.126   4.677  0.2700 -0.2191  0.1182
 1038TIP3    H224530   2.794   1.267   4.631  1.0217 -0.7800 -1.2230
 1039TIP3   OH224531   1.267   5.744  14.933  0.2757 -0.0991 -0.3584
 1039TIP3    H124532   1.325   5.696  14.992  0.1697  1.3923  1.0297
 1039TIP3    H224533   1.303   5.727  14.846  1.2042 -1.3400  0.2318
 1040TIP3   OH224534   1.319   1.538   1.779 -0.1182  0.9988 -0.1550
 1040TIP3    H124535   1.301   1.454   1.736  2.7361 -0.1496  0.6744
 1040TIP3    H224536   1.324   1.517   1.872  2.5219  1.6149 -0.0781
 1041TIP3   OH224537   2.572   1.875   2.309 -0.2118  0.5130  0.2084
 1041TIP3    H124538   2.574   1.908   2.219 -0.2475  0.1265  0.0627
 1041TIP3    H224539   2.518   1.939   2.356  1.1049  1.5885  0.3234
 1042TIP3   OH224540   2.352   3.605   1.775 -0.5229  0.0326 -0.2145
 1042TIP3    H124541   2.401   3.638   1.850 -1.0430  1.3897 -0.4508
 1042TIP3    H224542   2.270   3.653   1.777  0.2692  1.7082 -2.8429
 1043TIP3   OH224543   4.012   4.867   1.542 -0.0804  0.4404  0.5103
 1043TIP3    H124544   3.966   4.826   1.469 -0.2891  0.2193  0.7645
 1043TIP3    H224545   4.105   4.860   1.520  0.1744 -3.1200  2.0131
 1044TIP3   OH224546   1.275   6.511   0.530  0.1172 -0.1666  0.3449
 1044TIP3    H124547   1.252   6.603   0.520 -0.3176 -0.1507  1.3954
 1044TIP3    H224548   1.358   6.502   0.484  0.3242  0.8204  0.4978
 1045TIP3   OH224549   6.308   0.828  12.938 -0.0955 -0.2147  0.1006
 1045TIP3    H124550   6.249   0.892  12.977  1.4749  0.1991  1.9518
 1045TIP3    H224551   6.271   0.743  12.962 -0.0847  0.0328  1.0136
 1046TIP3   OH224552   5.856   3.559  13.708 -0.3809  0.1020 -0.0257
 1046TIP3    H124553   5.879   3.466  13.707  0.4761  0.3119 -0.4744
 1046TIP3    H224554   5.881   3.589  13.795 -2.9071 -0.6070  1.0399
 1047TIP3   OH224555   0.671   6.304   5.207  0.4338 -0.0669 -0.7896
 1047TIP3    H124556   0.607   6.364   5.246  0.9481 -1.0322  1.7445
 1047TIP3    H224557   0.756   6.337   5.237  0.6797 -2.5526  1.6040
 1048TIP3   OH224558   0.472   4.306  17.132  0.5719 -0.1194  0.3205
 1048TIP3    H124559   0.514   4.242  17.189  1.0115  0.1919  0.3495
 1048TIP3    H224560   0.441   4.375  17.191  2.1892  0.8603  0.0930
 1049TIP3   OH224561   0.340   2.884  10.801  0.0401 -0.4353  0.2663
 1049TIP3    H124562   0.314   2.976  10.810 -0.3939 -0.7100  2.1448
 1049TIP3    H224563   0.273   2.836  10.849  1.6704 -1.5242  1.5370
 1050TIP3   OH224564   6.418   2.499   1.441 -0.2995 -0.0038 -0.0258
 1050TIP3    H124565   6.444   2.406   1.446  2.5386  0.6903 -0.2702
 1050TIP3    H224566   6.347   2.506   1.505 -0.3726 -2.2814  0.2597
 1051TIP3   OH224567   3.522   4.948  15.789  0.1933 -0.0502  0.0974
 1051TIP3    H124568   3.480   4.988  15.713  1.3110  0.4587 -0.2680
 1051TIP3    H224569   3.486   4.997  15.864  0.6056  0.8201 -0.2552
 1052TIP3   OH224570   4.401   1.594  14.021  0.6076 -0.2626 -0.3977
 1052TIP3    H124571   4.459   1.554  13.957  0.6807  0.1231 -0.5740
 1052TIP3    H224572   4.395   1.530  14.092  0.1950 -0.8744 -0.9733
 1053TIP3   OH224573   0.475   1.181   1.925 -0.1856 -0.0503 -0.1318
 1053TIP3    H124574   0.503   1.158   1.837  1.1271 -1.0267  0.5240
 1053TIP3    H224575   0.485   1.101   1.976 -2.2528  0.1090  0.6327
 1054TIP3   OH224576   4.471   4.497   4.590 -0.2453  0.3605 -0.1810
 1054TIP3    H124577   4.454   4.442   4.513  0.3476  0.4165 -0.3565
 1054TIP3    H224578   4.522   4.441   4.649 -1.0418  0.1863  0.3477
 1055TIP3   OH224579   1.024   3.635  14.529  0.1022 -0.0829 -0.5558
 1055TIP3    H124580   0.974   3.683  14.595  0.4775 -0.8357  0.3035
 1055TIP3    H224581   1.097   3.692  14.507  1.2330 -0.6844  1.3488
 1056TIP3   OH224582   1.607   6.365   4.816 -0.2959 -0.9332  0.7155
 1056TIP3    H124583   1.654   6.426   4.874 -0.6553 -0.9652  1.0481
 1056TIP3    H224584   1.665   6.290   4.808  1.7047  0.7419 -2.3731
 1057TIP3   OH224585   6.691   2.112  16.911  0.0765  0.6677 -0.7790
 1057TIP3    H124586   6.664   2.046  16.975  0.7998  1.2426  0.1497
 1057TIP3    H224587   6.669   2.074  16.826  2.1383 -1.6001 -0.4142
 1058TIP3   OH224588   3.421   5.621  12.208 -0.1509 -0.0154  0.0581
 1058TIP3    H124589   3.502   5.608  12.257 -0.8604 -0.5797  1.0964
 1058TIP3    H224590   3.357   5.648  12.273 -1.3932 -1.8283 -0.3232
 1059TIP3   OH224591   2.531   4.831  11.553  0.2885 -0.4307  0.3004
 1059TIP3    H124592   2.442   4.836  11.519  0.5258 -0.2167 -0.2957
 1059TIP3    H224593   2.520   4.813  11.646 -0.3798 -0.3280  0.2446
 1060TIP3   OH224594   6.327   4.570  15.164 -0.8124 -0.0589 -0.2595
 1060TIP3    H124595   6.344   4.620  15.244  0.7067  0.0949 -0.6316
 1060TIP3    H224596   6.290   4.487  15.194  1.5317 -0.8122  0.8179
 1061TIP3   OH224597   0.096   0.634  12.915 -0.1041  0.0742  0.3982
 1061TIP3    H124598   0.099   0.645  13.010 -2.5569 -1.4306  0.7510
 1061TIP3    H224599   0.031   0.698  12.886  1.0133  0.8949 -0.3828
 1062TIP3   OH224600   4.809   0.298   3.872  0.3371  0.1378 -0.3622
 1062TIP3    H124601   4.839   0.356   3.802 -0.9388 -0.0401 -1.0833
 1062TIP3    H224602   4.768   0.357   3.935 -1.2435  0.0522 -1.2438
 1063TIP3   OH224603   0.942   0.247  14.466 -0.1737  0.1526 -0.2759
 1063TIP3    H124604   0.914   0.261  14.376 -0.2152  1.1956 -0.1118
 1063TIP3    H224605   0.964   0.154  14.470 -0.4294  0.0377 -1.2849
 1064TIP3   OH224606   4.696   3.834  13.825 -0.3294  0.2981  1.0345
 1064TIP3    H124607   4.773   3.821  13.881  0.2749 -0.1343  0.1336
 1064TIP3    H224608   4.673   3.926  13.836  0.2445  0.4010  1.4065
 1065TIP3   OH224609   3.628   2.719   3.603  0.2770  0.1219  0.1202
 1065TIP3    H124610   3.679   2.800   3.614 -0.4809  0.7254 -0.6177
 1065TIP3    H224611   3.571   2.738   3.528  0.4134 -1.2772 -0.3563
 1066TIP3   OH224612   1.978   2.682  13.247  0.0449  0.0833 -0.4749
 1066TIP3    H124613   1.912   2.729  13.196  0.0871  0.0313 -0.5754
 1066TIP3    H224614   2.050   2.745  13.257  0.2508 -0.0844 -0.9119
 1067TIP3   OH224615   4.391   2.389   6.251 -0.2258 -0.5948  0.6493
 1067TIP3    H124616   4.407   2.321   6.317 -2.1174 -1.3055  0.4270
 1067TIP3    H224617   4.315   2.437   6.285 -0.1919  0.0932 -0.2245
 1068TIP3   OH224618   5.691   5.945  16.668  0.3134 -0.0285 -0.3476
 1068TIP3    H124619   5.690   5.984  16.581 -1.5975 -1.9910 -1.3006
 1068TIP3    H224620   5.784   5.925  16.684  0.6805  0.1163 -2.0724
 1069TIP3   OH224621   2.488   2.782   3.560 -0.3315 -0.4843 -0.5849
 1069TIP3    H124622   2.417   2.742   3.510  1.1847 -1.4401 -2.0560
 1069TIP3    H224623   2.457   2.871   3.578 -1.3371 -0.4051 -2.4479
 1070TIP3   OH224624   4.818   2.671   2.204  0.8080 -0.2066 -0.2704
 1070TIP3    H124625   4.722   2.677   2.202  0.8174 -0.2080 -1.5816
 1070TIP3    H224626   4.845   2.703   2.119  2.1343  1.9491  0.8900
 1071TIP3   OH224627   4.843   6.308  16.898  0.2378 -0.4109  0.4244
 1071TIP3    H124628   4.793   6.291  16.978 -1.7510  0.3031 -0.5999
 1071TIP3    H224629   4.904   6.235  16.891 -0.7218 -1.3772  1.7011
 1072TIP3   OH224630   0.226   0.955  13.238 -0.3942 -0.2624  0.0369
 1072TIP3    H124631   0.238   0.989  13.150  1.0484  0.6916  0.5753
 1072TIP3    H224632   0.297   0.994  13.289 -0.7007 -1.4602  1.4370
 1073TIP3   OH224633   5.608   2.342   3.491 -0.0059 -0.3980  0.2586
 1073TIP3    H124634   5.585   2.433   3.468  1.6801 -0.2067 -0.7792
 1073TIP3    H224635   5.569   2.289   3.421  1.2654 -0.2147 -0.6149
 1074TIP3   OH224636   2.050   3.459   2.591 -0.4144 -0.0415  0.2096
 1074TIP3    H124637   1.978   3.505   2.549  1.2681  2.6365  0.0485
 1074TIP3    H224638   2.098   3.526   2.639  1.7526 -1.7509  0.6396
 1075TIP3   OH224639   5.580   6.682  16.146 -0.6815 -0.4024 -0.1063
 1075TIP3    H124640   5.618   6.739  16.080 -0.9904  1.5217  1.2784
 1075TIP3    H224641   5.652   6.660  16.204 -1.0171  0.6325  0.7325
 1076TIP3   OH224642   1.613   4.753  12.314  0.0508  0.3791 -0.7325
 1076TIP3    H124643   1.602   4.663  12.285 -3.0860  0.4657 -0.1913
 1076TIP3    H224644   1.530   4.775  12.355  0.8953  3.3721 -0.3849
 1077TIP3   OH224645   1.927   5.104  14.498  0.6145 -0.2677  0.3846
 1077TIP3    H124646   1.993   5.157  14.453  1.2857 -1.2387  0.1943
 1077TIP3    H224647   1.858   5.165  14.519  0.9673  0.5130 -0.6373
 1078TIP3   OH224648   3.988   6.312  13.014 -0.1817 -0.5514 -0.0342
 1078TIP3    H124649   3.923   6.377  12.992  0.4497 -0.0556 -0.4773
 1078TIP3    H224650   4.061   6.362  13.052 -0.3312 -1.1614  1.1160
 1079TIP3   OH224651   5.833   5.912  12.657  0.2230 -0.2193 -0.1083
 1079TIP3    H124652   5.756   5.895  12.711  0.6178  0.5098  0.7114
 1079TIP3    H224653   5.887   5.834  12.666  0.0162 -0.3396  0.0883
 1080TIP3   OH224654   0.585   5.033  12.104  0.0283  0.3923 -0.1433
 1080TIP3    H124655   0.631   5.061  12.183  1.0226  0.2125 -0.6430
 1080TIP3    H224656   0.508   4.986  12.137  0.4539  0.2684  0.7197
 1081TIP3   OH224657   0.093   1.989   0.160  0.3387 -0.4502 -0.0818
 1081TIP3    H124658   0.182   2.020   0.141 -0.0094  1.9016  1.7331
 1081TIP3    H224659   0.081   2.009   0.253 -2.7956  1.1214 -0.7297
 1082TIP3   OH224660   3.145   1.978   4.524  0.6688 -0.2568 -0.6039
 1082TIP3    H124661   3.117   2.067   4.547 -0.1945 -0.2048 -1.7544
 1082TIP3    H224662   3.226   1.965   4.573 -0.2576  0.3778  1.2156
 1083TIP3   OH224663   3.974   0.881   6.656 -0.3690 -0.1656 -0.3987
 1083TIP3    H124664   3.971   0.851   6.565  0.0626 -1.0414 -0.1326
 1083TIP3    H224665   3.936   0.809   6.707 -1.8687  0.8575  0.0038
 1084TIP3   OH224666   0.293   5.919  12.683 -0.4025 -0.2821 -0.9045
 1084TIP3    H124667   0.276   5.847  12.623 -0.3508 -1.0319 -0.0421
 1084TIP3    H224668   0.298   5.878  12.769  1.8273  0.4378 -0.6351
 1085TIP3   OH224669   2.017   1.390   3.475 -0.0297 -0.7463 -0.2679
 1085TIP3    H124670   2.103   1.397   3.433 -0.2531 -0.5048 -0.6922
 1085TIP3    H224671   1.983   1.305   3.445 -0.7197 -0.0274 -1.6085
 1086TIP3   OH224672   5.440   2.092   3.679 -0.3051 -0.2444 -0.4963
 1086TIP3    H124673   5.505   2.116   3.745 -0.0299 -0.8239 -0.5462
 1086TIP3    H224674   5.488   2.035   3.618 -0.3276  0.9723 -1.6828
 1087TIP3   OH224675   2.251   3.522   3.702 -0.2978 -0.2871 -0.6582
 1087TIP3    H124676   2.164   3.484   3.703 -0.4583  0.0626 -1.0094
 1087TIP3    H224677   2.236   3.616   3.692  0.0244  0.0571  1.4420
 1088TIP3   OH224678   0.872   2.138   5.993 -0.2783  0.1882  0.3608
 1088TIP3    H124679   0.927   2.216   6.003  0.4299 -0.3400  0.6496
 1088TIP3    H224680   0.789   2.161   6.035  0.2942  0.4124  1.3932
 1089TIP3   OH224681   4.976   0.162   0.781 -0.8372 -0.6107  0.0423
 1089TIP3    H124682   4.972   0.143   0.875  1.7167  0.0641  0.3653
 1089TIP3    H224683   5.069   0.157   0.760 -1.1667  1.0489 -2.0952
 1090TIP3   OH224684   0.737   0.847   2.563  0.5506 -0.2206  0.6442
 1090TIP3    H124685   0.794   0.831   2.638  1.6404  2.1457  0.4179
 1090TIP3    H224686   0.763   0.933   2.531 -1.3425 -0.2329 -1.1637
 1091TIP3   OH224687   3.645   1.841   2.538 -0.8723 -1.0511 -0.5844
 1091TIP3    H124688   3.556   1.863   2.564 -0.9196 -1.8523 -0.0069
 1091TIP3    H224689   3.679   1.789   2.611  0.3703 -0.0478 -0.4085
 1092TIP3   OH224690   5.581   4.347   0.332  0.3987  0.1550  0.1814
 1092TIP3    H124691   5.583   4.282   0.262 -2.0650 -0.7073  0.7968
 1092TIP3    H224692   5.652   4.407   0.311  0.9188 -1.0995 -2.0103
 1093TIP3   OH224693   3.733   2.268  13.953  0.2800 -0.0896 -0.5249
 1093TIP3    H124694   3.812   2.254  13.902  0.8381  0.7357  0.0890
 1093TIP3    H224695   3.662   2.248  13.892  0.9119  1.4898 -1.8562
 1094TIP3   OH224696   6.499   3.167   0.807 -0.2704  0.2471  0.0021
 1094TIP3    H124697   6.499   3.166   0.711  0.2958  0.3413 -0.0057
 1094TIP3    H224698   6.527   3.255   0.830 -0.1925  0.1589  0.2490
 1095TIP3   OH224699   1.146   1.718  16.147 -0.4049 -0.6369  0.5824
 1095TIP3    H124700   1.065   1.708  16.098  0.7636 -0.5329 -1.5179
 1095TIP3    H224701   1.198   1.641  16.121  0.8654  0.2601  0.3824
 1096TIP3   OH224702   5.144   1.045   3.501  0.0666  0.4452 -0.7655
 1096TIP3    H124703   5.063   1.084   3.468 -0.2473 -0.6472 -1.3136
 1096TIP3    H224704   5.164   0.975   3.440 -0.8196 -2.0295  1.6008
 1097TIP3   OH224705   4.459   2.241  15.589  0.1527  0.0040 -0.1469
 1097TIP3    H124706   4.454   2.152  15.623 -1.5170  0.3116  0.5429
 1097TIP3    H224707   4.454   2.230  15.494 -1.0687 -0.6286 -0.0382
 1098TIP3   OH224708   4.373   1.082   3.887 -0.0417 -0.1122  0.0200
 1098TIP3    H124709   4.451   1.052   3.934 -1.2314 -0.0810  2.1279
 1098TIP3    H224710   4.377   1.037   3.803  2.7829  0.7192 -0.3844
 1099TIP3   OH224711   6.760   6.000   0.441  0.0675 -0.2671  0.2004
 1099TIP3    H124712   6.667   5.983   0.456 -0.3833  2.6436  1.3606
 1099TIP3    H224713   6.765   6.030   0.350 -0.0904 -0.6452  0.0666
 1100TIP3   OH224714   0.080   5.205   1.239  0.2037  0.2302 -0.0398
 1100TIP3    H124715   0.076   5.224   1.145 -0.0522  0.4144  0.0051
 1100TIP3    H224716   0.078   5.110   1.244 -0.8382  0.2279 -0.1901
 1101TIP3   OH224717   0.992   3.348   2.106 -0.0818 -0.5111  0.5158
 1101TIP3    H124718   1.023   3.437   2.120  0.3639 -0.7067  0.8078
 1101TIP3    H224719   1.019   3.327   2.016 -0.2451 -0.3258  0.4251
 1102TIP3   OH224720   6.031   1.664   0.648  0.5297 -0.6148 -0.2087
 1102TIP3    H124721   6.091   1.739   0.643  0.2133 -0.3682 -0.4037
 1102TIP3    H224722   5.960   1.687   0.588 -0.0408 -0.6446  0.4494
 1103TIP3   OH224723   3.560   6.517  16.962  0.0759 -0.1452 -0.6218
 1103TIP3    H124724   3.590   6.594  17.011  0.0228  1.5714 -3.1124
 1103TIP3    H224725   3.464   6.521  16.968  0.0605  0.2123 -1.0362
 1104TIP3   OH224726   5.052   5.237   4.472 -0.2193 -0.6750 -0.1150
 1104TIP3    H124727   4.992   5.310   4.488 -0.2798 -1.2853  3.3107
 1104TIP3    H224728   5.069   5.240   4.378 -1.7237  2.5282 -0.4362
 1105TIP3   OH224729   2.812   2.422  15.572  0.5089 -0.0283  0.4646
 1105TIP3    H124730   2.856   2.385  15.496  0.9133 -0.6363  0.9888
 1105TIP3    H224731   2.882   2.436  15.636  0.0724 -0.1830  0.9826
 1106TIP3   OH224732   6.599   6.361  13.461  0.1221 -0.2900 -0.4682
 1106TIP3    H124733   6.511   6.398  13.455 -0.0845 -0.4107  1.3876
 1106TIP3    H224734   6.655   6.426  13.418 -0.6917  0.4402 -0.4649
 1107TIP3   OH224735   2.988   4.800  16.318  0.2726 -0.3372 -0.3615
 1107TIP3    H124736   2.930   4.874  16.332  2.2916  1.0414  1.2814
 1107TIP3    H224737   2.984   4.750  16.400  1.6952  0.0509 -0.0197
 1108TIP3   OH224738   6.393   1.133  15.685 -0.1131 -0.1036  0.0173
 1108TIP3    H124739   6.471   1.177  15.718  1.0605 -1.2301 -1.1849
 1108TIP3    H224740   6.327   1.203  15.682  1.1915  1.1807 -0.1600
 1109TIP3   OH224741   1.628   1.449   0.685  0.3163 -0.1834  0.0245
 1109TIP3    H124742   1.602   1.412   0.601  0.1403  1.4215 -0.6655
 1109TIP3    H224743   1.660   1.537   0.664  0.2901  0.2491  1.6229
 1110TIP3   OH224744   6.679   0.719   2.885  0.1120 -0.5274 -0.7463
 1110TIP3    H124745   6.592   0.686   2.904  0.6363 -0.7253  1.5343
 1110TIP3    H224746   6.737   0.644   2.896  0.8756  0.2222  0.5831
 1111TIP3   OH224747   6.614   5.704   2.281 -0.1508 -0.6706 -0.1142
 1111TIP3    H124748   6.685   5.657   2.239  1.3813  1.2217  0.2060
 1111TIP3    H224749   6.612   5.789   2.238 -1.0688 -0.0578  1.0583
 1112TIP3   OH224750   3.410   4.829  14.700  0.0009  0.1831 -0.2464
 1112TIP3    H124751   3.406   4.737  14.676 -2.4286  0.1946 -0.1429
 1112TIP3    H224752   3.402   4.877  14.618  1.4195  0.3536 -0.3195
 1113TIP3   OH224753   0.222   3.421  12.728  0.7621 -0.2616  0.1973
 1113TIP3    H124754   0.183   3.402  12.643 -0.0277  0.9230  0.2777
 1113TIP3    H224755   0.254   3.510  12.721  2.1441 -0.6949  0.6357
 1114TIP3   OH224756   1.499   4.848  16.819  0.9533 -0.0552 -0.2480
 1114TIP3    H124757   1.471   4.832  16.909  1.0927  0.6206 -0.0772
 1114TIP3    H224758   1.570   4.911  16.827  1.9845 -1.1253 -0.7446
 1115TIP3   OH224759   3.125   5.530  16.735  0.7291  0.6162  0.2355
 1115TIP3    H124760   3.081   5.611  16.711  0.1848  0.2700  0.0327
 1115TIP3    H224761   3.091   5.509  16.822 -2.8771 -1.8426 -1.4857
 1116TIP3   OH224762   3.824   4.800   1.310  0.3037  0.3729 -0.2219
 1116TIP3    H124763   3.829   4.735   1.240  1.4142  0.0754  0.1096
 1116TIP3    H224764   3.767   4.761   1.376  1.1221 -0.3584  0.0633
 1117TIP3   OH224765   3.087   3.767  17.105  0.1801 -0.3193 -0.5356
 1117TIP3    H124766   3.119   3.682  17.076  0.6643 -0.5129  0.4913
 1117TIP3    H224767   3.002   3.778  17.063  0.6278 -0.7847 -1.5918
 1118TIP3   OH224768   1.381   0.789  16.765 -0.1504 -0.3164  0.3147
 1118TIP3    H124769   1.450   0.761  16.826  0.8588  0.2869 -0.5083
 1118TIP3    H224770   1.424   0.854  16.709 -1.1582 -0.5578 -0.7807
 1119TIP3   OH224771   5.820   3.591   2.665 -0.1784 -0.2280  0.0096
 1119TIP3    H124772   5.855   3.507   2.638  0.4751 -0.6431  1.9374
 1119TIP3    H224773   5.769   3.571   2.744 -1.1476  0.9907 -0.2822
 1120TIP3   OH224774   5.764   2.713  10.293  0.2815 -0.0667 -0.3210
 1120TIP3    H124775   5.686   2.703  10.347  0.4993 -0.2754 -0.0355
 1120TIP3    H224776   5.823   2.643  10.323 -0.0807 -1.0095 -1.6974
 1121TIP3   OH224777   1.141   5.296   6.054 -0.3090  0.1855 -0.9269
 1121TIP3    H124778   1.161   5.213   6.096 -1.0778 -0.5831 -2.0523
 1121TIP3    H224779   1.054   5.319   6.086  1.1691  2.3388  2.0826
 1122TIP3   OH224780   3.030   3.747  12.132  0.1226 -0.1406 -0.2420
 1122TIP3    H124781   2.960   3.733  12.195 -0.1437 -0.5553 -0.6232
 1122TIP3    H224782   3.101   3.690  12.163  1.2573  2.0922  1.5630
 1123TIP3   OH224783   5.009   1.507   5.750  0.0195 -0.5314 -0.4258
 1123TIP3    H124784   5.066   1.468   5.815  0.8480 -3.4458 -2.6964
 1123TIP3    H224785   4.941   1.552   5.800  1.1519 -1.7679  2.3708
 1124TIP3   OH224786   1.117   0.043   3.918 -0.0612  0.5834 -0.1733
 1124TIP3    H124787   1.180  -0.022   3.951 -0.3699  0.8833  1.0550
 1124TIP3    H224788   1.097   0.098   3.994  1.5441  3.2718 -1.5255
 1125TIP3   OH224789   6.218   0.555  12.970 -0.3495  0.4608 -0.2910
 1125TIP3    H124790   6.287   0.506  12.925  0.3224  0.0484  1.1306
 1125TIP3    H224791   6.161   0.488  13.008  0.6077  0.6968  1.7132
 1126TIP3   OH224792   4.322   3.722  12.938  0.4057  0.9939 -0.5365
 1126TIP3    H124793   4.404   3.680  12.967  0.4653 -2.2368 -4.3648
 1126TIP3    H224794   4.350   3.780  12.867 -0.5104 -0.2749 -1.9972
 1127TIP3   OH224795   3.156   1.879   1.195  0.0320  0.5132  0.0439
 1127TIP3    H124796   3.227   1.942   1.178  1.2658 -1.6781 -4.2959
 1127TIP3    H224797   3.198   1.809   1.244  0.4940  0.0007 -1.0536
 1128TIP3   OH224798   0.891   1.566  11.565 -0.2901 -0.7678  0.1771
 1128TIP3    H124799   0.872   1.508  11.492 -1.7486 -0.6055  0.4028
 1128TIP3    H224800   0.875   1.513  11.643 -0.8004 -0.3283  0.3796
 1129TIP3   OH224801   5.853   1.494  14.370 -0.4240  0.2863  0.4548
 1129TIP3    H124802   5.785   1.517  14.306 -0.4822 -0.0870  0.3756
 1129TIP3    H224803   5.907   1.572  14.378  2.3759 -0.9675 -3.4799
 1130TIP3   OH224804   2.282   3.762  15.118 -0.1139  0.5101  0.1625
 1130TIP3    H124805   2.277   3.669  15.095  0.9990  0.9423 -2.0393
 1130TIP3    H224806   2.359   3.768  15.174  1.0253  0.3615 -1.3325
 1131TIP3   OH224807   6.698   5.265  16.765  0.0071  0.1865  0.3777
 1131TIP3    H124808   6.776   5.277  16.711 -1.7702  2.1329 -2.0470
 1131TIP3    H224809   6.654   5.189  16.726 -1.1478  1.4390 -0.9303
 1132TIP3   OH224810   0.891   6.206  12.924  0.0616  0.3655  0.8535
 1132TIP3    H124811   0.806   6.250  12.924  0.6716  1.5931  0.1601
 1132TIP3    H224812   0.899   6.169  13.012 -0.9440  0.7056  1.1033
 1133TIP3   OH224813   6.595   2.443   5.234 -0.5086  1.0553  0.1198
 1133TIP3    H124814   6.631   2.359   5.205 -0.1795  1.2449 -0.0207
 1133TIP3    H224815   6.649   2.468   5.308 -1.4375  0.5031  1.0083
 1134TIP3   OH224816   5.654   4.479   6.230  0.3023 -0.2858 -0.6458
 1134TIP3    H124817   5.736   4.495   6.182  1.9097  2.3959  2.6058
 1134TIP3    H224818   5.666   4.392   6.269  2.5230  0.7014  1.1356
 1135TIP3   OH224819   3.945   2.002   4.801  0.2492  0.1683 -0.7400
 1135TIP3    H124820   3.935   2.073   4.864  2.0255 -0.6207  0.5169
 1135TIP3    H224821   3.891   1.931   4.836  2.3958 -0.7973  0.8247
 1136TIP3   OH224822   0.333   4.537  14.836 -1.0625  0.4347 -0.3435
 1136TIP3    H124823   0.401   4.481  14.796 -1.8157  0.1734 -1.3230
 1136TIP3    H224824   0.320   4.607  14.772 -0.3247  1.5918  0.7569
 1137TIP3   OH224825   0.318   1.800  16.132  0.2952 -0.7167 -0.2458
 1137TIP3    H124826   0.316   1.868  16.065  0.2307 -0.2744  0.2034
 1137TIP3    H224827   0.374   1.835  16.201  0.9233 -1.4558 -0.3697
 1138TIP3   OH224828   0.807   3.702   5.369 -0.3020  0.0387  0.2715
 1138TIP3    H124829   0.811   3.667   5.280  0.1765  0.2057  0.2275
 1138TIP3    H224830   0.876   3.657   5.416  0.0831  0.6507  0.3068
 1139TIP3   OH224831   5.740   2.565  13.210 -0.2489 -0.1094  0.3798
 1139TIP3    H124832   5.830   2.534  13.204 -0.3935 -0.4928  0.1514
 1139TIP3    H224833   5.724   2.574  13.304  0.6843  1.9371  0.4188
 1140TIP3   OH224834   6.612   0.499   2.370 -0.3659  0.0590 -0.5563
 1140TIP3    H124835   6.643   0.413   2.343 -0.5720 -0.5207  0.9800
 1140TIP3    H224836   6.545   0.522   2.305 -1.9861 -1.9949  0.2767
 1141TIP3   OH224837   4.701   0.376  11.753  0.0959 -0.0748 -0.1253
 1141TIP3    H124838   4.638   0.332  11.696  0.5206 -0.4522 -0.3100
 1141TIP3    H224839   4.787   0.351  11.718  0.3772 -0.6814  0.9311
 1142TIP3   OH224840   2.892   5.433  11.770  0.1028 -0.0014 -0.0406
 1142TIP3    H124841   2.847   5.470  11.694 -0.2053  3.0797  1.5061
 1142TIP3    H224842   2.984   5.432  11.744 -0.2921 -2.1334 -1.5922
 1143TIP3   OH224843   2.487   1.094  16.220 -0.0129  0.2720 -0.5640
 1143TIP3    H124844   2.481   1.103  16.125 -1.2610  0.6390 -0.4688
 1143TIP3    H224845   2.462   1.180  16.254 -1.3679 -0.3652  0.1289
 1144TIP3   OH224846   0.917   6.749  17.295  0.3717 -0.0177  0.4517
 1144TIP3    H124847   0.901   6.657  17.271 -3.2214  0.8340 -1.1773
 1144TIP3    H224848   0.959   6.787  17.218 -2.2597  0.5580 -0.8254
 1145TIP3   OH224849   1.553   3.528  12.518  0.0664  0.1363 -0.5835
 1145TIP3    H124850   1.615   3.601  12.518  2.5205 -1.7761  1.0179
 1145TIP3    H224851   1.522   3.524  12.608 -0.6109 -0.3573 -0.8401
 1146TIP3   OH224852   1.359   1.627  14.152 -0.8271 -0.3332  0.3842
 1146TIP3    H124853   1.360   1.666  14.064 -0.0493  1.2249  1.0443
 1146TIP3    H224854   1.288   1.563  14.149 -0.4745 -0.7107 -1.5342
 1147TIP3   OH224855   2.243   6.359   0.370  0.0384  0.4717 -0.4633
 1147TIP3    H124856   2.252   6.357   0.465 -0.1139 -1.1459 -0.4485
 1147TIP3    H224857   2.270   6.447   0.345 -0.7230  1.1967  1.1462
 1148TIP3   OH224858   0.856   2.095  16.357 -0.1153  0.5817  0.1665
 1148TIP3    H124859   0.860   2.032  16.429  0.6722  0.8300  0.3491
 1148TIP3    H224860   0.791   2.159  16.385 -0.8643 -0.0973  0.0137
 1149TIP3   OH224861   3.263   5.893  12.759 -0.3568 -0.0245 -0.1988
 1149TIP3    H124862   3.307   5.818  12.718 -0.5632 -0.8306  0.9695
 1149TIP3    H224863   3.331   5.935  12.811 -0.5743 -0.2998  0.3182
 1150TIP3   OH224864   0.507   1.971  11.500 -0.2660  0.1048  0.0735
 1150TIP3    H124865   0.424   1.973  11.547 -1.5677 -0.7624 -2.0537
 1150TIP3    H224866   0.534   2.063  11.496 -1.8828  0.5995 -0.4253
 1151TIP3   OH224867   5.524   5.045  13.809 -0.3633 -0.2128  0.0753
 1151TIP3    H124868   5.536   5.043  13.714 -2.3292  0.4119 -0.2269
 1151TIP3    H224869   5.496   5.134  13.828  1.0760 -0.0133  1.4205
 1152TIP3   OH224870   4.563   6.121   1.247 -0.5243 -0.1191 -0.0311
 1152TIP3    H124871   4.574   6.109   1.341 -0.4698  1.8266  0.2546
 1152TIP3    H224872   4.643   6.085   1.208 -0.5879 -1.0172  0.6438
 1153TIP3   OH224873   1.201   0.730   4.029 -0.2425 -0.5478 -0.1055
 1153TIP3    H124874   1.272   0.772   4.078 -1.6289 -0.2536  1.7247
 1153TIP3    H224875   1.215   0.636   4.043  0.6523 -0.5801 -1.0587
 1154TIP3   OH224876   6.629   2.422   5.705  0.1875 -0.0406 -0.4551
 1154TIP3    H124877   6.630   2.512   5.673 -1.8639  0.1481 -0.1368
 1154TIP3    H224878   6.670   2.371   5.636  0.1638  0.9770 -1.2504
 1155TIP3   OH224879   2.453   1.460   0.529  0.2904 -0.1779 -0.3936
 1155TIP3    H124880   2.478   1.491   0.442 -1.1916  1.4493 -0.3007
 1155TIP3    H224881   2.364   1.427   0.517  0.0447  0.1438  0.5137
 1156TIP3   OH224882   4.259   5.480   0.219  0.4184  0.3240  0.3183
 1156TIP3    H124883   4.312   5.401   0.227  0.7568  0.5998  0.9832
 1156TIP3    H224884   4.241   5.489   0.126 -0.5321 -1.1060  0.3381
 1157TIP3   OH224885   4.804   0.504   2.362  0.9261 -0.0761  0.2267
 1157TIP3    H124886   4.834   0.455   2.438  1.7646  1.3700  0.8573
 1157TIP3    H224887   4.709   0.494   2.363  1.0012 -0.8198  0.9197
 1158TIP3   OH224888   0.746   5.792   2.904  0.2894  0.4253  0.6498
 1158TIP3    H124889   0.811   5.827   2.965  1.8491  0.0745 -0.7228
 1158TIP3    H224890   0.687   5.865   2.886  1.6202  1.4532  0.2691
 1159TIP3   OH224891   1.372   4.725   1.962  0.5829 -0.1581  0.3660
 1159TIP3    H124892   1.436   4.796   1.958 -0.8252  1.1318 -0.0939
 1159TIP3    H224893   1.360   4.709   2.056 -0.4126  1.5218  0.5767
 1160TIP3   OH224894   6.315   4.146   2.007 -0.3698 -0.4942 -0.3517
 1160TIP3    H124895   6.304   4.240   2.024 -1.9365 -0.8163  0.5867
 1160TIP3    H224896   6.329   4.108   2.094 -4.9600 -1.7214  0.1370
 1161TIP3   OH224897   0.301   5.168   0.212 -0.0280  0.4230  0.6097
 1161TIP3    H124898   0.274   5.131   0.296 -1.1371  0.1693  0.1566
 1161TIP3    H224899   0.362   5.238   0.236  0.2991 -0.1757  1.5806
 1162TIP3   OH224900   5.790   1.596  14.721 -0.2194  0.2368 -0.0614
 1162TIP3    H124901   5.850   1.521  14.727  0.2860  0.7044  1.0472
 1162TIP3    H224902   5.751   1.601  14.809 -0.7614  0.8588 -0.3345
 1163TIP3   OH224903   1.492   0.972   0.393  0.2000 -0.1685 -0.0643
 1163TIP3    H124904   1.523   1.022   0.317 -1.0325 -0.8016 -1.0099
 1163TIP3    H224905   1.496   0.881   0.365  0.7849 -0.4931  1.0393
 1164TIP3   OH224906   2.215   6.433   1.725 -0.2190 -0.0615  0.0492
 1164TIP3    H124907   2.244   6.344   1.745  1.0335  0.2584 -0.2672
 1164TIP3    H224908   2.164   6.424   1.644  0.9323 -0.3411 -0.6683
 1165TIP3   OH224909   1.042   3.810   1.303 -0.4002  0.5092  0.2888
 1165TIP3    H124910   1.006   3.723   1.288 -0.4695  0.5148  0.4227
 1165TIP3    H224911   0.985   3.849   1.369 -0.7179  0.8738 -0.2038
 1166TIP3   OH224912   3.660   6.308  15.528  0.1124 -0.0403 -0.5828
 1166TIP3    H124913   3.601   6.325  15.602 -0.5514  0.1950 -1.1580
 1166TIP3    H224914   3.668   6.213  15.525  0.4641 -0.0422  0.0276
 1167TIP3   OH224915   5.570   1.843  17.062  0.1978  0.0588  0.1172
 1167TIP3    H124916   5.608   1.897  17.131  0.6387 -0.6910  0.4795
 1167TIP3    H224917   5.627   1.766  17.057  1.0374  0.7510 -2.1018
 1168TIP3   OH224918   0.318   3.681  14.453  0.3065  0.4872  1.0221
 1168TIP3    H124919   0.244   3.728  14.492  0.8729  0.0933  2.6744
 1168TIP3    H224920   0.394   3.738  14.469  0.4808  0.5925 -0.0864
 1169TIP3   OH224921   5.013   4.113   2.189  0.0471 -0.5122  0.7614
 1169TIP3    H124922   4.923   4.122   2.218  0.0356 -0.7732  0.8083
 1169TIP3    H224923   5.011   4.133   2.095 -0.0931 -0.7263  0.7194
 1170TIP3   OH224924   0.036   4.056  16.459  0.2160 -0.6254  0.2161
 1170TIP3    H124925   0.069   3.978  16.504 -0.5199 -0.2774  1.3882
 1170TIP3    H224926  -0.041   4.083  16.509 -0.4599 -0.0403 -1.0897
 1171TIP3   OH224927   6.563   3.375   1.924 -0.1415 -0.2540  0.2039
 1171TIP3    H124928   6.576   3.438   1.853  0.5743 -1.3415 -0.6654
 1171TIP3    H224929   6.507   3.307   1.886 -1.1585 -0.0227  1.2255
 1172TIP3   OH224930   2.826   2.431   1.391  0.4380  0.3740  0.7554
 1172TIP3    H124931   2.826   2.386   1.475 -0.1644 -0.5423  0.2823
 1172TIP3    H224932   2.895   2.498   1.399  1.1986 -0.4787  1.5609
 1173TIP3   OH224933   2.933   2.048   2.866 -0.5870  0.8271  0.0463
 1173TIP3    H124934   2.882   1.977   2.904  0.1412  0.9449  1.3067
 1173TIP3    H224935   2.989   2.005   2.801  0.2010  0.1316  1.1460
 1174TIP3   OH224936   3.812   5.456  16.718 -0.1405  0.4827  0.0777
 1174TIP3    H124937   3.720   5.440  16.697 -0.3733  0.6997  0.9057
 1174TIP3    H224938   3.853   5.370  16.714 -0.1676  0.5064 -1.2343
 1175TIP3   OH224939   4.853   6.536  12.609  0.2012  0.3730  0.2200
 1175TIP3    H124940   4.831   6.617  12.564  2.3285  1.3468  0.8294
 1175TIP3    H224941   4.937   6.509  12.571  0.7246 -0.2114  1.7352
 1176TIP3   OH224942   1.549   2.454  15.804  0.0123  0.0797  0.0422
 1176TIP3    H124943   1.571   2.364  15.780 -0.6088  0.2905 -1.4391
 1176TIP3    H224944   1.525   2.449  15.897 -2.0726 -1.6845 -0.4966
 1177TIP3   OH224945   3.949   5.456  15.849  0.2143  0.1474 -0.5279
 1177TIP3    H124946   3.950   5.364  15.823  2.1461 -0.4258  1.3386
 1177TIP3    H224947   3.892   5.457  15.927  3.1827 -0.3200  1.8410
 1178TIP3   OH224948   6.156   2.918  11.159  0.3326  0.3964 -0.0174
 1178TIP3    H124949   6.182   2.873  11.240 -0.7086 -1.0317 -0.4495
 1178TIP3    H224950   6.207   2.876  11.090  0.4496  0.9062 -0.2462
 1179TIP3   OH224951   5.219   1.375  14.633  0.3636 -0.3416  0.1428
 1179TIP3    H124952   5.228   1.316  14.708  0.0197  0.2382  0.6579
 1179TIP3    H224953   5.276   1.338  14.566  0.9433 -0.6931  0.8100
 1180TIP3   OH224954   0.276   3.742  13.331  0.3019  0.3609 -0.1821
 1180TIP3    H124955   0.300   3.831  13.354  0.5698 -0.0048  1.0446
 1180TIP3    H224956   0.183   3.747  13.307  0.1314  0.8576  0.5655
 1181TIP3   OH224957   2.060   3.382  10.696  0.6209 -0.4946  0.0254
 1181TIP3    H124958   2.032   3.473  10.701  1.5411 -0.1312 -1.1475
 1181TIP3    H224959   1.982   3.334  10.667  0.4353  0.0835 -0.4494
 1182TIP3   OH224960   3.268   4.299  11.446  0.0148 -0.2839 -0.2121
 1182TIP3    H124961   3.275   4.250  11.364 -1.6904  1.3434 -1.4274
 1182TIP3    H224962   3.335   4.368  11.439 -0.4162  0.1198 -0.4736
 1183TIP3   OH224963   2.765   1.274  12.969 -0.1788  0.0557 -0.0547
 1183TIP3    H124964   2.853   1.283  13.004  0.6289 -1.3937 -1.5923
 1183TIP3    H224965   2.720   1.355  12.996  1.5548  0.7651  0.8449
 1184TIP3   OH224966   4.300   2.659   4.225  0.0251 -0.2593  0.4777
 1184TIP3    H124967   4.281   2.687   4.314 -0.8318 -0.9068  0.5034
 1184TIP3    H224968   4.329   2.739   4.181  0.6320  0.0271  1.3743
 1185TIP3   OH224969   0.407   2.612   2.639  0.1257 -0.2857  0.3709
 1185TIP3    H124970   0.362   2.665   2.705 -0.8525 -0.8085  0.1443
 1185TIP3    H224971   0.428   2.673   2.569 -0.4403 -0.0753  0.3784
 1186TIP3   OH224972   1.982   0.406  17.063  0.5895  0.4035  1.1997
 1186TIP3    H124973   2.075   0.416  17.043  0.1972 -1.1663 -2.0489
 1186TIP3    H224974   1.947   0.495  17.058  1.2593  0.6117 -2.0602
 1187TIP3   OH224975   6.320   0.771   5.733 -0.6049 -0.1397 -0.1985
 1187TIP3    H124976   6.382   0.767   5.806  0.3081 -0.4125 -0.9598
 1187TIP3    H224977   6.236   0.794   5.773  0.2236  1.4362  0.7206
 1188TIP3   OH224978   2.951   1.949   0.536  0.1869 -0.8331 -0.2816
 1188TIP3    H124979   2.955   1.962   0.631  1.9730  0.8940 -0.5212
 1188TIP3    H224980   3.038   1.918   0.512  0.5331  0.9639 -1.5717
 1189TIP3   OH224981   2.835   1.909   1.732  0.1880 -0.5064 -0.0933
 1189TIP3    H124982   2.839   1.864   1.816  1.3191  0.0748  0.1799
 1189TIP3    H224983   2.863   1.999   1.751  2.1750 -0.8006 -1.3839
 1190TIP3   OH224984   5.151   0.421  12.716  0.1230 -0.5307  0.0438
 1190TIP3    H124985   5.090   0.349  12.700 -0.6588  0.2961 -0.7609
 1190TIP3    H224986   5.237   0.378  12.724 -0.4500 -1.6343  0.5087
 1191TIP3   OH224987   0.492   1.087   0.968 -0.1580 -0.5906  0.3205
 1191TIP3    H124988   0.500   1.007   0.916 -1.9693 -0.4514 -0.2254
 1191TIP3    H224989   0.398   1.102   0.976  0.0632  2.5077 -1.2250
 1192TIP3   OH224990   3.226   2.524  13.554 -0.1810 -0.4499 -0.0979
 1192TIP3    H124991   3.230   2.457  13.622  0.2483  0.7467  1.1120
 1192TIP3    H224992   3.211   2.476  13.473  2.2395 -2.2165  0.3907
 1193TIP3   OH224993   6.145   1.261  10.814  0.0789  0.8583  0.4329
 1193TIP3    H124994   6.204   1.203  10.862  1.1327  0.9063 -0.7203
 1193TIP3    H224995   6.191   1.346  10.813 -0.2995  1.0609  0.0444
 1194TIP3   OH224996   3.133   2.933  13.090  0.4409 -0.0857  0.3238
 1194TIP3    H124997   3.131   2.838  13.105  0.4464 -0.0656  0.4494
 1194TIP3    H224998   3.076   2.946  13.013  1.2110 -0.3005 -0.2921
 1195TIP3   OH224999   1.461   2.453  16.080  0.9207  0.6178  0.2860
 1195TIP3    H125000   1.374   2.473  16.047  2.2843  0.8624 -3.7930
 1195TIP3    H225001   1.490   2.534  16.124 -0.6403  0.6834  1.2509
 1196TIP3   OH225002   1.221   5.587  15.835 -0.2246 -0.2810 -0.0808
 1196TIP3    H125003   1.194   5.619  15.748  0.2557 -0.7217 -0.3985
 1196TIP3    H225004   1.316   5.595  15.835 -0.2629  0.2478  0.6314
 1197TIP3   OH225005   6.419   0.551  17.246 -0.2092  0.5361  0.1107
 1197TIP3    H125006   6.504   0.570  17.288 -0.2578 -0.4041  0.6577
 1197TIP3    H225007   6.417   0.608  17.170  1.5851 -0.4644 -0.7506
 1198TIP3   OH225008   3.536   1.677  14.581  0.1044  0.2103  0.7817
 1198TIP3    H125009   3.474   1.666  14.509  0.2986 -1.5930  0.8381
 1198TIP3    H225010   3.606   1.614  14.562  0.3432 -0.0342  2.3318
 1199TIP3   OH225011   1.095   4.727  16.822  0.2697  0.0282  0.3493
 1199TIP3    H125012   1.010   4.708  16.782  0.5346  0.9386 -0.6713
 1199TIP3    H225013   1.093   4.822  16.838  1.4020  0.1979 -0.4361
 1200TIP3   OH225014   6.748   2.048   3.328  0.3653  0.3119 -0.9788
 1200TIP3    H125015   6.700   1.975   3.367 -2.4121  2.2008 -0.5881
 1200TIP3    H225016   6.799   2.085   3.401  1.5653 -1.0057 -1.1171
 1201TIP3   OH225017   1.721   3.603   6.275  0.6414 -0.4084  0.2837
 1201TIP3    H125018   1.710   3.524   6.327 -1.2821 -0.1624  0.2989
 1201TIP3    H225019   1.814   3.626   6.286  1.0815 -2.2921  0.7570
 1202TIP3   OH225020   6.081   6.649  17.196 -0.1757 -0.3628 -0.2702
 1202TIP3    H125021   5.990   6.620  17.184 -1.0221  1.6102  0.9238
 1202TIP3    H225022   6.076   6.716  17.264  2.2747 -0.5914  0.2209
 1203TIP3   OH225023   6.111   1.835  11.150 -0.0769 -0.0988 -0.0786
 1203TIP3    H125024   6.125   1.796  11.064 -0.3497 -0.2611 -0.0503
 1203TIP3    H225025   6.180   1.901  11.159 -1.2383  1.3578 -1.2648
 1204TIP3   OH225026   3.188   3.786   3.081 -0.5049 -0.1525 -0.1595
 1204TIP3    H125027   3.228   3.707   3.116  1.0380 -0.1561 -1.7749
 1204TIP3    H225028   3.170   3.765   2.989  0.8938  1.6387 -0.9099
 1205TIP3   OH225029   2.535   2.721  13.343  0.9152  0.0355  0.4190
 1205TIP3    H125030   2.525   2.626  13.338 -1.0692  0.1454  1.3966
 1205TIP3    H225031   2.456   2.751  13.387  0.6751  2.3203 -1.3745
 1206TIP3   OH225032   1.603   3.470  16.744  0.0730  0.0522 -0.0005
 1206TIP3    H125033   1.563   3.537  16.800  1.3156 -0.5647  1.7182
 1206TIP3    H225034   1.536   3.450  16.679 -0.1474  3.3364 -0.9458
 1207TIP3   OH225035   0.670   2.039  12.229  0.5138  0.1811 -0.5545
 1207TIP3    H125036   0.587   2.035  12.277 -0.1040  0.7404 -1.5319
 1207TIP3    H225037   0.657   1.980  12.154  1.2824 -0.3090 -0.3148
 1208TIP3   OH225038   5.242   0.711  14.871 -0.1833 -0.0183  0.1635
 1208TIP3    H125039   5.265   0.656  14.796 -2.0843  0.8684 -1.1311
 1208TIP3    H225040   5.311   0.777  14.874 -1.3948  1.5108 -2.4943
 1209TIP3   OH225041   2.672   0.564  13.018 -0.3279 -0.3583 -0.0290
 1209TIP3    H125042   2.653   0.585  12.927  1.5308 -0.3098 -0.4460
 1209TIP3    H225043   2.593   0.589  13.066 -2.2795 -2.5154 -1.8848
 1210TIP3   OH225044   4.171   6.072  14.904  0.4280 -0.0420 -0.6198
 1210TIP3    H125045   4.115   6.013  14.956  0.4450  0.8413  0.4487
 1210TIP3    H225046   4.112   6.141  14.874  0.6638  0.1173 -0.7209
 1211TIP3   OH225047   6.119   6.552  12.517  0.1539 -0.7727  0.2823
 1211TIP3    H125048   6.200   6.507  12.542  1.4997  0.8853 -0.8888
 1211TIP3    H225049   6.126   6.639  12.556 -1.0051 -0.5598  0.0559
 1212TIP3   OH225050   3.400   5.672   2.509 -0.3486  0.3639  0.3568
 1212TIP3    H125051   3.370   5.587   2.541 -0.9887 -0.7901 -2.9150
 1212TIP3    H225052   3.480   5.689   2.557 -1.0243 -1.3353  2.2093
 1213TIP3   OH225053   4.866   6.209   0.949 -0.3473 -0.2665  0.2234
 1213TIP3    H125054   4.817   6.285   0.915  0.4601 -0.5506 -1.7040
 1213TIP3    H225055   4.846   6.139   0.887  1.1584 -0.8380  0.3490
 1214TIP3   OH225056   4.852   6.063   3.456  0.0482  0.1506  0.2606
 1214TIP3    H125057   4.900   6.137   3.495 -1.2865  0.9625  0.4139
 1214TIP3    H225058   4.912   5.989   3.464  0.3924  0.5966  2.5680
 1215TIP3   OH225059   6.184   2.435  16.308 -0.4791 -0.4586 -0.3759
 1215TIP3    H125060   6.205   2.365  16.369  0.9530 -0.0536 -0.3488
 1215TIP3    H225061   6.098   2.466  16.335  0.2844 -0.0062  1.7323
 1216TIP3   OH225062   3.082   0.338  15.355 -0.1072  0.9296  0.4606
 1216TIP3    H125063   3.090   0.343  15.260  0.3609  0.8270  0.4906
 1216TIP3    H225064   3.026   0.412  15.378 -0.7703  0.5590  0.0440
 1217TIP3   OH225065   3.930   6.450   4.026  0.1585  0.0476 -0.5563
 1217TIP3    H125066   3.998   6.392   3.990  2.8573  1.6385  1.6411
 1217TIP3    H225067   3.954   6.462   4.117 -0.6212  4.0709 -0.7010
 1218TIP3   OH225068   1.950   6.426  11.022  0.0064  0.4269 -0.5100
 1218TIP3    H125069   1.990   6.346  11.054  0.5908  0.8917 -0.0630
 1218TIP3    H225070   1.935   6.410  10.928 -0.4223 -0.4141 -0.3044
 1219TIP3   OH225071   0.763   0.441   5.842 -0.2217 -0.0680  0.2265
 1219TIP3    H125072   0.858   0.430   5.846 -0.3287 -2.2290 -1.5268
 1219TIP3    H225073   0.728   0.365   5.889 -1.0585 -0.2667 -0.6870
 1220TIP3   OH225074   0.298   4.638  13.475 -0.1630 -0.2116 -0.2742
 1220TIP3    H125075   0.306   4.576  13.547 -2.3645  1.7715  1.8581
 1220TIP3    H225076   0.218   4.613  13.430 -0.8537  0.7677  0.3621
 1221TIP3   OH225077   5.740   3.804   2.246 -0.5985 -0.1792 -0.0522
 1221TIP3    H125078   5.769   3.834   2.333 -2.8135  0.7118  0.4540
 1221TIP3    H225079   5.804   3.841   2.186  0.0674  0.5946  1.0826
 1222TIP3   OH225080   1.736   0.084  16.532 -0.3079 -0.3168  0.3648
 1222TIP3    H125081   1.692   0.069  16.449 -1.7665 -1.9422  1.3338
 1222TIP3    H225082   1.782   0.001  16.550  1.5443  0.6464  0.3457
 1223TIP3   OH225083   2.553   1.776   4.372  0.4824 -0.4681 -0.5938
 1223TIP3    H125084   2.463   1.750   4.351  0.6597 -0.7730 -1.0066
 1223TIP3    H225085   2.597   1.777   4.287  0.9543 -0.6508 -0.3534
 1224TIP3   OH225086   5.576   4.882  14.762  0.3131  1.4741 -0.0168
 1224TIP3    H125087   5.516   4.956  14.771 -0.8064  0.9625 -2.4440
 1224TIP3    H225088   5.547   4.837  14.683  1.1776 -1.3654  1.1416
 1225TIP3   OH225089   4.064   6.571   1.548  0.1766  0.5455  0.6957
 1225TIP3    H125090   4.079   6.657   1.508  0.1148 -0.1517 -0.8750
 1225TIP3    H225091   4.152   6.534   1.558  0.1406  0.4174  0.5319
 1226TIP3   OH225092   1.350   3.858  15.339  0.0678  0.4392  0.5369
 1226TIP3    H125093   1.327   3.894  15.424 -3.6765 -3.9175  1.7789
 1226TIP3    H225094   1.271   3.869  15.286  0.3588 -1.6938 -0.4573
 1227TIP3   OH225095   2.055   6.122   0.575  0.6742  0.2997 -0.1976
 1227TIP3    H125096   2.146   6.128   0.547  0.6608 -0.0462 -0.3177
 1227TIP3    H225097   2.016   6.055   0.519  0.3166  0.5241 -0.2208
 1228TIP3   OH225098   3.429   0.285  16.682  1.0070 -0.0511  0.5086
 1228TIP3    H125099   3.414   0.228  16.606 -0.7217  0.8016  0.1514
 1228TIP3    H225100   3.344   0.287  16.727  1.0853  1.9919  0.6523
 1229TIP3   OH225101   0.105   6.250   0.620  0.0750 -0.5726 -0.4908
 1229TIP3    H125102   0.127   6.305   0.695  2.8606 -0.0878 -1.5510
 1229TIP3    H225103   0.017   6.217   0.639 -0.1400  1.1840  1.9674
 1230TIP3   OH225104   2.925   2.755   5.931  0.6586 -0.3490 -0.3713
 1230TIP3    H125105   3.004   2.727   5.978  0.6898 -0.6677 -0.6141
 1230TIP3    H225106   2.863   2.683   5.943  0.2577  0.0690  0.1572
 1231TIP3   OH225107   1.415   0.885   1.917  0.2472  0.6393 -0.1669
 1231TIP3    H125108   1.446   0.880   2.008 -0.4977 -0.5058  0.0327
 1231TIP3    H225109   1.322   0.905   1.924  0.0165 -0.2320 -0.6596
 1232TIP3   OH225110   4.840   6.565  12.047 -0.2526 -0.1518  0.5856
 1232TIP3    H125111   4.935   6.555  12.035 -0.2011  0.1054  0.7828
 1232TIP3    H225112   4.827   6.659  12.057 -0.3854 -0.2805  1.7712
 1233TIP3   OH225113   1.522   4.300   3.747 -0.4683  0.1861  0.7542
 1233TIP3    H125114   1.450   4.244   3.777 -1.1986 -0.4190 -1.8302
 1233TIP3    H225115   1.597   4.240   3.738 -0.7710 -0.0640 -0.3183
 1234TIP3   OH225116   1.435   1.446   0.929 -0.4986  0.2981  0.3360
 1234TIP3    H125117   1.425   1.447   0.834  0.0217  0.7065  0.2792
 1234TIP3    H225118   1.512   1.502   0.946  0.1838 -0.7701  0.8987
 1235TIP3   OH225119   2.121   0.647  14.878 -0.1356 -0.1932  0.1798
 1235TIP3    H125120   2.148   0.581  14.941 -0.3564  0.3294  0.8292
 1235TIP3    H225121   2.197   0.704  14.868 -0.2826  0.0433  0.3948
 1236TIP3   OH225122   2.644   3.847   3.180  0.5410  0.2691 -0.0390
 1236TIP3    H125123   2.730   3.879   3.155 -0.3617 -0.3145 -4.6826
 1236TIP3    H225124   2.589   3.926   3.185  0.2648  0.3133 -2.5745
 1237TIP3   OH225125   1.733   1.094  12.143 -0.3534 -0.0755  0.2907
 1237TIP3    H125126   1.751   1.175  12.096 -0.9814 -0.3778 -0.4860
 1237TIP3    H225127   1.776   1.026  12.091 -0.9894 -0.4031  0.1797
 1238TIP3   OH225128   2.243   0.064  16.969  0.5909  0.1237  0.0052
 1238TIP3    H125129   2.268   0.152  16.941 -2.2857  1.0609 -0.0139
 1238TIP3    H225130   2.229   0.072  17.064  2.1284 -0.8368  0.3350
 1239TIP3   OH225131   4.249   1.098  12.223 -0.1326  0.3984 -0.1019
 1239TIP3    H125132   4.254   1.013  12.266 -0.5978 -0.1575 -1.1016
 1239TIP3    H225133   4.296   1.086  12.141 -1.4024  0.6833 -0.9011
 1240TIP3   OH225134   1.839   0.656  13.175  0.5773  0.6458  0.1737
 1240TIP3    H125135   1.747   0.639  13.153  0.6908  0.2998 -0.0409
 1240TIP3    H225136   1.850   0.750  13.162 -0.0384  0.8864  1.2874
 1241TIP3   OH225137   0.601   0.806  12.194 -0.0614 -0.2777 -0.1878
 1241TIP3    H125138   0.681   0.775  12.153  2.2949  2.9508  1.5344
 1241TIP3    H225139   0.630   0.875  12.254 -4.2534  1.8257 -0.2359
 1242TIP3   OH225140   0.372   0.307  12.553  0.6710  0.1749 -0.1150
 1242TIP3    H125141   0.416   0.314  12.468  0.1781  0.1085 -0.3818
 1242TIP3    H225142   0.414   0.372  12.608  0.7010  0.5241 -0.5448
 1243TIP3   OH225143   2.006   0.137  13.977 -0.7641 -0.1774  0.7222
 1243TIP3    H125144   1.978   0.052  13.941 -2.3380  0.7116 -0.2945
 1243TIP3    H225145   2.049   0.115  14.059  2.0761 -2.2527 -1.1200
 1244TIP3   OH225146   0.689   2.986   2.306  0.2007  0.4147 -0.8621
 1244TIP3    H125147   0.703   3.044   2.380  0.3164 -0.2231 -0.3728
 1244TIP3    H225148   0.778   2.961   2.279  0.3164 -3.9203  2.4629
 1245TIP3   OH225149   1.136   4.325  11.335 -0.5909 -0.1144  0.9406
 1245TIP3    H125150   1.151   4.390  11.267 -1.4608 -1.3127 -0.4567
 1245TIP3    H225151   1.154   4.371  11.417  0.1577  1.4632 -0.0681
 1246TIP3   OH225152   6.247   0.598   3.798 -0.1234 -0.6572 -0.1795
 1246TIP3    H125153   6.154   0.593   3.820 -0.1117  0.3949  0.1823
 1246TIP3    H225154   6.292   0.557   3.872 -0.2259  0.3017  0.4248
 1247TIP3   OH225155   4.691   3.903   0.910  0.1853 -0.0640  0.2569
 1247TIP3    H125156   4.635   3.873   0.838 -2.7171  1.7418  1.5820
 1247TIP3    H225157   4.736   3.980   0.875  0.0507 -0.1526 -0.1155
 1248TIP3   OH225158   3.914   3.895  11.863  0.7537  0.0459 -0.0695
 1248TIP3    H125159   3.868   3.922  11.942  2.1108  0.4982  0.6124
 1248TIP3    H225160   3.890   3.803  11.851 -0.7816  0.4356 -0.1154
 1249TIP3   OH225161   1.757   3.781   1.986  0.4871  0.5916 -1.1712
 1249TIP3    H125162   1.792   3.694   2.007 -0.7521  0.5225  0.7879
 1249TIP3    H225163   1.834   3.834   1.969  1.3584 -0.3982 -0.4221
 1250TIP3   OH225164   4.237   0.100  17.212 -0.2806  0.2409 -0.3976
 1250TIP3    H125165   4.159   0.116  17.160 -0.3478 -0.6949 -0.6077
 1250TIP3    H225166   4.268   0.014  17.183 -0.7443 -0.6702  1.5894
 1251TIP3   OH225167   6.643   5.118  15.545  0.6264  0.3482 -0.0762
 1251TIP3    H125168   6.619   5.141  15.455  1.0555  1.1852  0.0146
 1251TIP3    H225169   6.737   5.134  15.550  0.3660  1.8680  0.9567
 1252TIP3   OH225170   0.999   2.070  14.155 -0.1089  0.0349  0.5123
 1252TIP3    H125171   1.029   2.161  14.157 -0.7273  0.2273  1.9353
 1252TIP3    H225172   1.016   2.042  14.065  0.8713  1.2858  0.2730
 1253TIP3   OH225173   3.406   2.231   4.875  0.0919  0.0168  0.0230
 1253TIP3    H125174   3.497   2.223   4.904 -0.5400 -1.5069  1.8216
 1253TIP3    H225175   3.408   2.215   4.781  1.6051 -0.6356  0.1441
 1254TIP3   OH225176   5.040   1.953  10.982 -0.4002  0.6816 -0.2745
 1254TIP3    H125177   5.073   1.953  11.072 -1.0956  0.4992 -0.0167
 1254TIP3    H225178   5.051   1.862  10.953  1.7509  1.1456 -1.1077
 1255TIP3   OH225179   2.467   4.575  16.017  0.8913 -0.5042  0.6328
 1255TIP3    H125180   2.492   4.549  16.106  2.2998 -0.6895  0.2097
 1255TIP3    H225181   2.417   4.501  15.984  0.8168 -0.6581  1.0778
 1256TIP3   OH225182   5.846   3.300  17.201  0.4584  0.3365 -0.1832
 1256TIP3    H125183   5.876   3.323  17.113 -0.9757 -0.1321 -0.8193
 1256TIP3    H225184   5.757   3.335  17.206 -0.1629 -1.2537  0.3917
 1257TIP3   OH225185   2.011   6.677   4.954  0.0922  0.0049  0.0114
 1257TIP3    H125186   2.017   6.769   4.979 -0.7882 -0.2480  1.2297
 1257TIP3    H225187   1.960   6.678   4.873  1.4799  0.6995 -0.8892
 1258TIP3   OH225188   0.487   0.857  16.351  0.5586 -0.3814 -0.2690
 1258TIP3    H125189   0.559   0.884  16.294  1.8240 -1.0798  0.9404
 1258TIP3    H225190   0.497   0.911  16.429  0.0112 -0.7728  0.0794
 1259TIP3   OH225191   4.170   6.236   3.604 -0.2112 -0.2040  0.1495
 1259TIP3    H125192   4.182   6.221   3.698 -1.1293  4.4563  1.2477
 1259TIP3    H225193   4.255   6.271   3.575 -1.0622  2.2815  0.3769
 1260TIP3   OH225194   5.118   0.006  15.193  0.0215  0.0978  0.2107
 1260TIP3    H125195   5.128  -0.085  15.221 -2.0084 -0.3771 -0.3792
 1260TIP3    H225196   5.182   0.054  15.244 -1.9159 -0.9964  4.0956
 1261TIP3   OH225197   1.335   5.465   4.045 -0.5881  0.2889 -0.1865
 1261TIP3    H125198   1.378   5.386   4.077  0.6399 -0.4199 -3.1967
 1261TIP3    H225199   1.241   5.449   4.059 -0.2138 -0.3595  1.8918
 1262TIP3   OH225200   0.716   3.635  12.035 -0.0883 -0.0539  0.3127
 1262TIP3    H125201   0.785   3.701  12.045  1.8014 -2.0336  0.8685
 1262TIP3    H225202   0.711   3.619  11.940 -2.2709  2.4999 -0.1415
 1263TIP3   OH225203   0.698   0.769  11.791  0.5535 -0.4891  0.3737
 1263TIP3    H125204   0.603   0.769  11.799  0.3996  0.6780 -1.0706
 1263TIP3    H225205   0.729   0.726  11.870 -1.1975 -1.5871  0.4941
 1264TIP3   OH225206   3.292   0.843  11.575 -0.3657  0.7220 -0.2274
 1264TIP3    H125207   3.243   0.885  11.504 -2.0788 -2.0485 -0.8545
 1264TIP3    H225208   3.353   0.784  11.530 -1.5845 -1.1895  0.5162
 1265TIP3   OH225209   4.170   1.188  14.091  0.3149 -0.3417  0.5873
 1265TIP3    H125210   4.220   1.213  14.013  0.4729 -0.3185  0.6941
 1265TIP3    H225211   4.217   1.111  14.125  0.8928  0.2850  1.2663
 1266TIP3   OH225212   2.277   0.309  16.450  0.2626  0.6437 -0.0359
 1266TIP3    H125213   2.219   0.239  16.481  0.2210 -0.1049 -1.7041
 1266TIP3    H225214   2.239   0.389  16.487 -0.4715 -0.0649  0.8122
 1267TIP3   OH225215   5.914   1.939   5.367 -0.1780 -0.2697  0.1685
 1267TIP3    H125216   5.893   2.025   5.405 -0.9083 -0.0011 -0.7894
 1267TIP3    H225217   5.889   1.876   5.435 -2.3389  0.1502 -0.1606
 1268TIP3   OH225218   5.919   1.139   0.521 -0.3024  0.3514  0.1343
 1268TIP3    H125219   5.830   1.105   0.527  0.1800 -1.1604 -0.7702
 1268TIP3    H225220   5.914   1.209   0.455 -1.3774  2.4533  2.2844
 1269TIP3   OH225221   0.705   1.859  11.636 -0.2766  0.1987 -0.4622
 1269TIP3    H125222   0.742   1.932  11.686  0.1975 -0.1777 -0.2532
 1269TIP3    H225223   0.630   1.897  11.590 -1.4466  0.3043  1.4297
 1270TIP3   OH225224   5.177   0.239  17.001  0.5636  0.1117 -0.3240
 1270TIP3    H125225   5.269   0.216  17.014  1.2172  2.9190  0.7498
 1270TIP3    H225226   5.179   0.317  16.946 -1.1559  0.4974  0.1027
 1271TIP3   OH225227   2.173   4.512  15.787 -0.2785 -0.3718  0.6849
 1271TIP3    H125228   2.164   4.602  15.818 -2.1120 -0.8191  1.5971
 1271TIP3    H225229   2.093   4.495  15.737  0.2977 -1.3339  0.0405
 1272TIP3   OH225230   1.839   4.904  11.341 -0.1140 -0.0581  0.2517
 1272TIP3    H125231   1.887   4.966  11.286  0.6683  1.3026  2.3484
 1272TIP3    H225232   1.826   4.827  11.285 -0.4209  1.6504 -2.1893
 1273TIP3   OH225233   4.754   4.421   2.835 -0.4956 -0.2649  0.1624
 1273TIP3    H125234   4.796   4.361   2.773 -0.7347  0.2775 -0.5440
 1273TIP3    H225235   4.802   4.503   2.826 -0.3425 -0.2674  0.9212
 1274TIP3   OH225236   6.485   3.137   0.527 -0.5011 -0.3161 -0.1900
 1274TIP3    H125237   6.445   3.050   0.530 -0.0106 -0.5328  0.2419
 1274TIP3    H225238   6.427   3.189   0.472 -1.8795 -0.3607  1.1620
 1275TIP3   OH225239   3.689   3.435   4.212  0.3773 -0.3323 -0.0707
 1275TIP3    H125240   3.710   3.372   4.281  0.8160  0.3614  0.4396
 1275TIP3    H225241   3.599   3.463   4.231  1.5881  2.4301  2.3220
 1276TIP3   OH225242   5.405   2.945  14.931  0.2227  1.2546  0.1121
 1276TIP3    H125243   5.429   2.853  14.921 -1.9472  0.6483 -0.0010
 1276TIP3    H225244   5.489   2.991  14.943  1.2321 -0.9958  2.6570
 1277TIP3   OH225245   1.418   1.404  15.374  0.0329 -0.0756 -0.2005
 1277TIP3    H125246   1.480   1.477  15.381  2.2069 -1.2251 -4.2739
 1277TIP3    H225247   1.340   1.442  15.334  0.3604  0.3703 -0.4197
 1278TIP3   OH225248   2.493   4.937  12.515  0.0784 -0.0398 -0.4156
 1278TIP3    H125249   2.530   4.859  12.558  0.0683  0.1921  0.0194
 1278TIP3    H225250   2.564   4.969  12.459 -0.7805 -1.8993 -2.7138
 1279TIP3   OH225251   0.636   0.245   3.643  0.0615  0.0949  0.3658
 1279TIP3    H125252   0.673   0.276   3.725  0.3132  1.8401 -0.3717
 1279TIP3    H225253   0.591   0.321   3.606  0.4354 -0.4858 -1.3873
 1280TIP3   OH225254   3.446   1.702  15.988  0.5542 -0.0989  0.3585
 1280TIP3    H125255   3.406   1.685  16.074  0.1009  0.5611  0.2908
 1280TIP3    H225256   3.477   1.617  15.958 -0.7258 -0.6213  0.4685
 1281TIP3   OH225257   6.075   4.658  16.350 -0.0926  0.4336 -0.1782
 1281TIP3    H125258   6.005   4.593  16.343  0.9529 -0.8449  0.7694
 1281TIP3    H225259   6.154   4.611  16.324  0.5287  1.6694 -0.6024
 1282TIP3   OH225260   2.803   0.364   5.193  0.0613  0.3392  0.1359
 1282TIP3    H125261   2.831   0.430   5.130  2.3812  1.4858  2.1775
 1282TIP3    H225262   2.844   0.283   5.163  0.0357  0.5753 -0.5496
 1283TIP3   OH225263   4.249   2.483  11.338  0.1932 -0.4188 -0.0491
 1283TIP3    H125264   4.294   2.401  11.318 -0.6333 -0.8291 -0.2629
 1283TIP3    H225265   4.181   2.490  11.271  0.0020  0.2425  0.2089
 1284TIP3   OH225266   2.661   2.784   3.773  0.4373 -0.0578 -0.3145
 1284TIP3    H125267   2.609   2.778   3.853  0.2590  1.0485 -0.3195
 1284TIP3    H225268   2.597   2.783   3.702  0.4428  0.7238 -0.3459
 1285TIP3   OH225269   2.834   4.321  13.678  0.4450 -0.7144  0.3830
 1285TIP3    H125270   2.801   4.385  13.614 -0.3285 -1.4672  0.0124
 1285TIP3    H225271   2.857   4.374  13.754  0.8838  0.1415 -0.3198
 1286TIP3   OH225272   6.507   3.274   3.157 -0.1066  0.5393  0.0985
 1286TIP3    H125273   6.431   3.308   3.109 -0.4324  0.3185  0.4453
 1286TIP3    H225274   6.477   3.269   3.248  0.6357  1.3410  0.3922
 1287TIP3   OH225275   4.155   1.051  15.458 -0.1009 -0.8639  0.0122
 1287TIP3    H125276   4.236   1.036  15.408  0.4019 -1.3715  0.9491
 1287TIP3    H225277   4.095   0.984  15.425  0.9104 -2.5996  1.5068
 1288TIP3   OH225278   5.958   0.034  15.709 -0.6405 -0.2159 -0.8848
 1288TIP3    H125279   6.045   0.072  15.713 -1.4907  1.7828 -0.4281
 1288TIP3    H225280   5.950  -0.015  15.791 -0.5300  0.9796 -0.1369
 1289TIP3   OH225281   5.707   0.928  12.596  0.3919 -0.0821 -0.8111
 1289TIP3    H125282   5.680   0.941  12.687 -1.7189  1.8234 -1.6088
 1289TIP3    H225283   5.654   0.855  12.565 -1.2978  1.2883 -1.3244
 1290TIP3   OH225284   0.693   4.248  11.758  0.2033 -0.1526  0.6876
 1290TIP3    H125285   0.691   4.172  11.700 -0.9052 -1.9665  2.8964
 1290TIP3    H225286   0.764   4.302  11.726  0.7338 -1.8988 -1.2722
 1291TIP3   OH225287   3.324   1.298   0.424 -0.0943 -0.4443  0.1354
 1291TIP3    H125288   3.306   1.307   0.517  0.2812  0.6583  0.1151
 1291TIP3    H225289   3.418   1.283   0.419  0.1598  1.0713 -0.1281
 1292TIP3   OH225290   1.969   4.906  15.850 -0.1293  0.2479 -0.5375
 1292TIP3    H125291   1.978   4.918  15.945  1.1906  1.2978 -0.7738
 1292TIP3    H225292   2.044   4.853  15.825 -0.4491  0.0152 -1.0195
 1293TIP3   OH225293   5.916   3.062   5.590 -0.5683  0.3732  0.1725
 1293TIP3    H125294   5.853   3.001   5.551 -1.4699  0.4730  1.4234
 1293TIP3    H225295   6.002   3.027   5.566 -1.0754  0.4482 -1.8822
 1294TIP3   OH225296   2.337   3.338  16.001  0.7570 -0.0010 -0.4672
 1294TIP3    H125297   2.336   3.252  16.042 -1.2218 -0.2046 -0.8457
 1294TIP3    H225298   2.317   3.321  15.909  1.5566  0.7729 -0.8008
 1295TIP3   OH225299   1.933   0.598   5.038 -0.2752 -0.4681  0.3418
 1295TIP3    H125300   2.010   0.571   4.988 -0.1941  0.7328 -0.2136
 1295TIP3    H225301   1.969   0.647   5.113 -0.4755  2.0362 -1.0730
 1296TIP3   OH225302   4.652   4.742  16.822 -0.2531 -0.3228 -0.0060
 1296TIP3    H125303   4.648   4.720  16.915  0.7766 -1.7718 -0.2676
 1296TIP3    H225304   4.620   4.832  16.817 -1.0391 -0.4772  1.6420
 1297TIP3   OH225305   4.086   6.657  14.202 -0.0991  0.0024  0.0478
 1297TIP3    H125306   4.010   6.650  14.259  0.3892 -0.5407  0.6475
 1297TIP3    H225307   4.095   6.570  14.163 -1.1560  0.6757 -1.8480
 1298TIP3   OH225308   6.033   1.125   5.807 -0.6394 -0.8127 -0.0907
 1298TIP3    H125309   5.982   1.051   5.772  1.9919 -2.6635 -0.2842
 1298TIP3    H225310   6.121   1.112   5.772  0.0320  2.2224  0.2559
 1299TIP3   OH225311   4.182   6.023  14.592  0.2316  0.1406  0.1127
 1299TIP3    H125312   4.099   6.072  14.583 -0.0239 -0.2786  0.1676
 1299TIP3    H225313   4.165   5.940  14.549  0.8715  0.3374 -0.5241
 1300TIP3   OH225314   0.204   3.644   3.995  0.1876  0.4847  0.3765
 1300TIP3    H125315   0.138   3.637   3.926  0.0536 -0.8097  0.6037
 1300TIP3    H225316   0.288   3.648   3.949  0.2092 -1.8095  0.1095
 1301TIP3   OH225317   6.205   1.882   0.613  0.6572 -0.3342 -0.3285
 1301TIP3    H125318   6.283   1.860   0.562  1.8445  2.4850  0.0805
 1301TIP3    H225319   6.238   1.899   0.701 -0.5013  0.3657 -0.0147
 1302TIP3   OH225320   3.051   5.898  16.705  0.1607 -0.0944  0.3073
 1302TIP3    H125321   3.003   5.938  16.633 -1.0022 -0.5318  0.8182
 1302TIP3    H225322   3.126   5.856  16.664 -1.8389 -2.6153 -1.0595
 1303TIP3   OH225323   2.669   2.120   5.947 -0.1947 -0.1681  0.7150
 1303TIP3    H125324   2.609   2.069   5.893  2.0929 -0.3968 -1.8097
 1303TIP3    H225325   2.611   2.172   6.003 -2.6568 -3.0116  1.1021
 1304TIP3   OH225326   2.525   5.797  15.975  0.3584  0.3728  0.1269
 1304TIP3    H125327   2.444   5.749  15.960  0.1395  0.2139  1.6752
 1304TIP3    H225328   2.511   5.883  15.936 -1.7729  1.4542  2.9447
 1305TIP3   OH225329   3.421   4.581   3.584  0.0260 -0.4048 -0.2557
 1305TIP3    H125330   3.341   4.535   3.608 -0.1349  0.4488  0.8984
 1305TIP3    H225331   3.489   4.546   3.642  0.2563 -0.3613 -0.4937
 1306TIP3   OH225332   4.270   6.664  15.980  0.2993  0.2846  0.3640
 1306TIP3    H125333   4.365   6.673  15.981  0.2083  1.4321  0.6157
 1306TIP3    H225334   4.252   6.588  16.036  1.0260  0.6438  1.1012
 1307TIP3   OH225335   2.842   2.676  14.469 -0.0501  0.4818  0.3753
 1307TIP3    H125336   2.785   2.663  14.544 -0.6026  0.9540  0.0450
 1307TIP3    H225337   2.816   2.760  14.432 -1.0679 -0.5608 -1.4307
 1308TIP3   OH225338   4.167   5.797  14.438 -0.3438  0.2117 -0.0315
 1308TIP3    H125339   4.136   5.716  14.479  0.2676  0.0742  0.1683
 1308TIP3    H225340   4.215   5.768  14.360 -0.9735  0.4395 -0.5160
 1309TIP3   OH225341   1.061   0.650   3.094  0.5908 -0.1952 -0.0740
 1309TIP3    H125342   1.130   0.585   3.084  0.6010 -0.6076  2.1822
 1309TIP3    H225343   0.998   0.610   3.154 -0.2990  1.1778 -0.0442
 1310TIP3   OH225344   3.841   0.580   5.163  0.4858  0.4459  0.1396
 1310TIP3    H125345   3.864   0.574   5.255  2.7983  0.3611 -0.3985
 1310TIP3    H225346   3.924   0.592   5.117 -0.5366 -0.0270 -1.9892
 1311TIP3   OH225347   2.152   2.031  16.001 -0.2077  0.2625  0.1810
 1311TIP3    H125348   2.143   2.022  16.096 -1.3314  0.8446  0.1524
 1311TIP3    H225349   2.228   2.087  15.989  0.7024 -0.8146  0.6768
 1312TIP3   OH225350   2.607   1.695  11.471 -0.2359 -0.4699  0.4326
 1312TIP3    H125351   2.516   1.716  11.489 -0.3800  2.4001 -2.5999
 1312TIP3    H225352   2.603   1.623  11.409 -0.5017 -0.1349  0.0507
 1313TIP3   OH225353   4.003   3.621   1.963  0.9921  0.4496  0.0005
 1313TIP3    H125354   4.046   3.569   1.895  1.8731  2.1205 -0.8051
 1313TIP3    H225355   3.929   3.568   1.992  1.6935 -1.0985 -0.9510
 1314TIP3   OH225356   4.787   6.459   0.327 -0.6065 -0.5092  0.0608
 1314TIP3    H125357   4.835   6.440   0.247  1.2540 -1.7625  1.3935
 1314TIP3    H225358   4.721   6.523   0.301 -0.9365 -1.8450 -2.7201
 1315TIP3   OH225359   6.585   4.409  16.387 -0.0476  0.3487  0.2222
 1315TIP3    H125360   6.564   4.388  16.296 -2.3807  0.3145  0.7006
 1315TIP3    H225361   6.538   4.343  16.438 -1.4268  2.2434  1.5193
 1316TIP3   OH225362   2.958   0.116   2.084 -0.0132 -0.3541 -0.0478
 1316TIP3    H125363   2.913   0.178   2.141  0.2213  0.4822 -0.7416
 1316TIP3    H225364   2.903   0.112   2.005  1.7095  1.7136 -1.4754
 1317TIP3   OH225365   1.252   1.366   2.313  0.3627 -0.2330 -0.4056
 1317TIP3    H125366   1.315   1.305   2.352  1.1346 -2.8084 -4.9026
 1317TIP3    H225367   1.305   1.423   2.258 -0.8608  0.7715 -0.5787
 1318TIP3   OH225368   3.500   5.513  13.419  0.1959 -0.6288 -0.3457
 1318TIP3    H125369   3.574   5.526  13.478  1.0541 -0.5402 -1.4245
 1318TIP3    H225370   3.521   5.565  13.342 -0.9401 -0.6947 -0.7221
 1319TIP3   OH225371   1.488   1.274  16.135 -0.6187 -0.6202 -0.2580
 1319TIP3    H125372   1.565   1.271  16.077 -0.5754 -0.7676 -0.1954
 1319TIP3    H225373   1.424   1.217  16.092  0.0889 -2.2690  0.7831
 1320TIP3   OH225374   6.091   0.223   2.009  0.2967 -0.2890 -0.3555
 1320TIP3    H125375   6.145   0.152   2.042 -0.7883 -1.2707 -0.6314
 1320TIP3    H225376   6.045   0.257   2.086  0.6802  0.0008 -0.2523
 1321TIP3   OH225377   1.183   5.415  16.796 -0.2109  0.1545  0.5289
 1321TIP3    H125378   1.095   5.380  16.810 -1.6455  2.2225 -2.1540
 1321TIP3    H225379   1.185   5.496  16.847  0.1414  0.1297  0.5578
 1322TIP3   OH225380   1.813   0.371   4.041  0.0662  0.0607  0.8082
 1322TIP3    H125381   1.860   0.293   4.071  0.3026 -0.5683 -1.0384
 1322TIP3    H225382   1.721   0.344   4.041  0.0181  0.2170  1.3796
 1323TIP3   OH225383   4.910   5.996  14.555  0.2311 -0.1364  0.2634
 1323TIP3    H125384   4.897   6.017  14.463 -0.1983 -1.3043  0.0443
 1323TIP3    H225385   4.963   5.916  14.554  3.0121  1.5378  1.0785
 1324TIP3   OH225386   0.302   0.292   0.075  0.0160 -0.2794 -0.2024
 1324TIP3    H125387   0.383   0.326   0.037 -2.5425  2.5749 -3.8052
 1324TIP3    H225388   0.274   0.359   0.137 -0.0811 -0.7777  0.3002
 1325TIP3   OH225389   0.452   2.107   3.290  0.0486  0.1150 -0.4461
 1325TIP3    H125390   0.468   2.195   3.325  1.5649 -1.1730  2.4544
 1325TIP3    H225391   0.403   2.062   3.359  2.4543 -2.3566 -0.1654
 1326TIP3   OH225392   2.233   4.803   5.661 -0.3231  0.5259 -0.4506
 1326TIP3    H125393   2.324   4.781   5.638 -0.6018 -0.6467 -0.4994
 1326TIP3    H225394   2.241   4.855   5.740  0.4837  1.9720 -1.4431
 1327TIP3   OH225395   5.753   4.926  16.973  0.5885 -0.2736 -0.1849
 1327TIP3    H125396   5.816   4.912  17.044  0.9757 -0.8685 -0.6361
 1327TIP3    H225397   5.803   4.970  16.904 -0.1725  1.7527  0.5018
 1328TIP3   OH225398   5.509   3.807   4.673  0.1555  0.4396 -0.3267
 1328TIP3    H125399   5.570   3.819   4.745 -1.4850  0.7007  1.0719
 1328TIP3    H225400   5.486   3.714   4.676 -0.0470  0.4866 -0.4035
 1329TIP3   OH225401   6.675   2.903   6.336  0.5828 -0.4628  0.6675
 1329TIP3    H125402   6.748   2.920   6.277  0.6415 -0.9005  0.6108
 1329TIP3    H225403   6.705   2.937   6.421  0.2191  0.8223  0.3124
 1330TIP3   OH225404   0.132   6.075  14.248 -0.0435  0.5723  0.9194
 1330TIP3    H125405   0.042   6.100  14.267  0.1765  0.2872  2.5720
 1330TIP3    H225406   0.129   6.036  14.161 -1.7722 -0.6291  1.4637
 1331TIP3   OH225407   3.900   0.192  16.494  0.0431  0.3958 -0.2592
 1331TIP3    H125408   3.916   0.263  16.557 -1.3037  0.9104 -0.4596
 1331TIP3    H225409   3.985   0.149  16.484  0.6083  1.2125  0.8056
 1332TIP3   OH225410   4.841   6.254   5.719  0.1936  0.1317  0.1694
 1332TIP3    H125411   4.808   6.282   5.633 -0.8305 -1.7637 -0.1286
 1332TIP3    H225412   4.847   6.159   5.711  0.4296 -0.0419  2.1029
 1333TIP3   OH225413   4.193   6.228  11.559 -0.0171  0.0801  0.1766
 1333TIP3    H125414   4.174   6.236  11.465  1.0152 -2.2235 -0.3168
 1333TIP3    H225415   4.159   6.141  11.582  1.6532 -0.2856  1.3922
 1334TIP3   OH225416   5.272   6.699   3.827 -0.0214 -0.6052  0.5979
 1334TIP3    H125417   5.329   6.761   3.873 -0.2194  0.0233  0.0053
 1334TIP3    H225418   5.185   6.739   3.829  0.0015 -0.4509 -0.4930
 1335TIP3   OH225419   2.552   3.027  16.444  0.4504  0.0186 -0.0589
 1335TIP3    H125420   2.527   3.092  16.377  0.0958 -0.7012 -0.6414
 1335TIP3    H225421   2.510   3.058  16.524  1.1590  1.0793 -0.0775
 1336TIP3   OH225422   4.560   0.211   1.066 -0.0565 -0.1906  0.5993
 1336TIP3    H125423   4.626   0.142   1.066  2.4508  2.0551 -0.6967
 1336TIP3    H225424   4.521   0.207   0.979  1.4968  1.1896 -0.2085
 1337TIP3   OH225425   3.140   2.484  15.194  0.5286  0.0586  0.1798
 1337TIP3    H125426   3.099   2.531  15.266  1.6614  0.5422  0.5412
 1337TIP3    H225427   3.202   2.547  15.157  0.5247 -0.4478 -0.7128
 1338TIP3   OH225428   0.013   4.516   5.750  0.4216  0.4299 -0.6181
 1338TIP3    H125429   0.006   4.441   5.809  1.2446  0.4546 -0.4727
 1338TIP3    H225430   0.107   4.531   5.742  0.2836  1.0424 -1.1617
 1339TIP3   OH225431   5.776   2.974   4.503  0.2805 -0.5618 -0.1700
 1339TIP3    H125432   5.716   3.004   4.571  1.3865  0.3852  0.4337
 1339TIP3    H225433   5.734   2.896   4.466 -0.7272 -0.6338  1.0575
 1340TIP3   OH225434   3.834   4.402   6.802  0.6365  0.7422  0.2634
 1340TIP3    H125435   3.905   4.437   6.749  0.1654  1.0208 -0.1863
 1340TIP3    H225436   3.878   4.350   6.870  1.3014  1.4767  0.4071
 1341TIP3   OH225437   6.128   6.636   2.370  0.9395 -0.3804 -0.5580
 1341TIP3    H125438   6.126   6.641   2.274  0.3329  0.6554 -0.5068
 1341TIP3    H225439   6.212   6.593   2.389  0.9496 -0.8480 -1.5500
 1342TIP3   OH225440   2.534   1.661  17.393  0.3322 -0.1791 -0.2800
 1342TIP3    H125441   2.522   1.567  17.409 -0.5092 -0.6642 -3.2157
 1342TIP3    H225442   2.445   1.697  17.398  0.3787  0.0761 -1.1966
 1343TIP3   OH225443   4.475   4.074   5.579  0.2372 -0.4510  0.2009
 1343TIP3    H125444   4.424   3.996   5.598  2.0639 -1.3246  1.8642
 1343TIP3    H225445   4.540   4.045   5.514  0.5485 -0.1584  0.3765
 1344TIP3   OH225446   5.768   5.320   5.612 -0.3542  0.2036 -0.0020
 1344TIP3    H125447   5.798   5.247   5.558  0.2689 -0.6350  1.4198
 1344TIP3    H225448   5.674   5.305   5.621 -0.2954 -0.1979 -0.0391
 1345TIP3   OH225449   0.117   5.441   4.567  0.1420 -0.4335 -0.0872
 1345TIP3    H125450   0.097   5.374   4.502  0.2461 -0.5839  0.0345
 1345TIP3    H225451   0.200   5.479   4.538 -0.5000  0.4555 -0.8029
 1346TIP3   OH225452   0.078   0.508  12.658 -0.6034  0.0828  0.1473
 1346TIP3    H125453   0.081   0.413  12.668 -0.7092  0.2832  2.7585
 1346TIP3    H225454   0.144   0.541  12.718  0.4245  1.6804 -1.7399
 1347TIP3   OH225455   3.604   6.071  15.684 -0.6198  0.0910  0.6086
 1347TIP3    H125456   3.566   6.142  15.736 -1.2631  0.0177  0.2572
 1347TIP3    H225457   3.644   6.013  15.748 -1.9626 -0.3377  1.1006
 1348TIP3   OH225458   1.335   3.906   3.543 -0.4511  0.1860  0.1859
 1348TIP3    H125459   1.341   3.969   3.614  1.9224  0.4344 -0.1597
 1348TIP3    H225460   1.426   3.883   3.522 -0.8235  1.5787 -4.0124
 1349TIP3   OH225461   1.225   3.832   0.870 -0.9179  0.0377  0.0037
 1349TIP3    H125462   1.262   3.791   0.792  1.3078 -1.0459  1.5195
 1349TIP3    H225463   1.135   3.800   0.873  0.3507 -4.1326  0.5060
 1350TIP3   OH225464   5.420   1.181   2.678  0.5759 -0.1861  0.3833
 1350TIP3    H125465   5.347   1.191   2.740 -1.7354  0.9133 -2.3061
 1350TIP3    H225466   5.380   1.148   2.598  2.8171  1.6324 -1.6422
 1351TIP3   OH225467   0.696   6.496  13.368 -0.3089 -0.2091 -0.1501
 1351TIP3    H125468   0.755   6.438  13.319  1.0546 -0.3765  1.5999
 1351TIP3    H225469   0.656   6.440  13.435  1.4042  0.8745  1.8979
 1352TIP3   OH225470   1.791   2.832   1.786 -0.4496 -0.6385  0.0178
 1352TIP3    H125471   1.776   2.761   1.722 -0.0001 -0.5403 -0.2005
 1352TIP3    H225472   1.883   2.821   1.812 -0.4128 -0.2102  0.0718
 1353TIP3   OH225473   6.620   5.452  14.828  0.0222 -0.7613  0.2387
 1353TIP3    H125474   6.710   5.426  14.812  0.3047  0.8484 -0.9917
 1353TIP3    H225475   6.627   5.532  14.881 -0.5815  0.5076 -1.5180
 1354TIP3   OH225476   5.500   0.678   2.763  0.3927 -0.3450 -0.1681
 1354TIP3    H125477   5.508   0.607   2.827 -1.7055  0.0674  0.6091
 1354TIP3    H225478   5.584   0.724   2.768  1.9701 -2.8932 -0.9384
 1355TIP3   OH225479   3.397   4.881   3.029 -1.5156  0.0146  0.0698
 1355TIP3    H125480   3.440   4.804   2.990  0.3653  1.1470 -0.2055
 1355TIP3    H225481   3.407   4.869   3.123 -2.1434 -0.5462  0.0796
 1356TIP3   OH225482   3.195   1.869  14.617 -0.5145 -0.1520 -0.9516
 1356TIP3    H125483   3.116   1.876  14.564 -1.1725 -1.0953 -0.1340
 1356TIP3    H225484   3.208   1.775  14.629  0.7292 -0.0186 -1.0361
 1357TIP3   OH225485   5.367   3.901  14.978 -0.4030 -0.4428 -0.1711
 1357TIP3    H125486   5.356   3.850  14.898 -0.8952 -0.9349  0.1979
 1357TIP3    H225487   5.327   3.985  14.958 -2.1851 -1.1598  0.1123
 1358TIP3   OH225488   1.654   4.346  16.685 -0.7472 -0.4664 -0.2515
 1358TIP3    H125489   1.647   4.321  16.593 -1.0022  2.1046 -1.0344
 1358TIP3    H225490   1.747   4.341  16.704 -0.7158 -1.2364 -0.5640
 1359TIP3   OH225491   5.521   5.820  13.654 -0.1393 -0.3875  0.1739
 1359TIP3    H125492   5.517   5.772  13.571  0.4585 -1.0660  0.5214
 1359TIP3    H225493   5.574   5.897  13.634 -2.1661  0.8416 -0.7075
 1360TIP3   OH225494   4.108   4.809  11.334 -0.5461 -0.0748  0.1038
 1360TIP3    H125495   4.168   4.738  11.360 -0.0415 -0.1593 -1.2063
 1360TIP3    H225496   4.023   4.766  11.325 -0.0772 -0.7370 -1.5289
 1361TIP3   OH225497   5.159   5.261   2.670 -0.0335 -0.5450  0.2625
 1361TIP3    H125498   5.117   5.221   2.746  0.0328  1.9900  1.7333
 1361TIP3    H225499   5.091   5.316   2.631  0.0793 -1.4406 -1.2781
 1362TIP3   OH225500   6.337   0.973   1.980 -0.3501 -0.3157  0.2773
 1362TIP3    H125501   6.378   0.887   1.987  1.2425  0.0264 -2.8354
 1362TIP3    H225502   6.407   1.034   2.003 -0.8684  0.1658  0.5673
 1363TIP3   OH225503   3.757   4.780  14.167 -0.3102 -0.2959  0.4372
 1363TIP3    H125504   3.804   4.833  14.231 -1.9516  2.8400 -0.7455
 1363TIP3    H225505   3.807   4.790  14.086  0.6824 -2.6730  0.6637
 1364TIP3   OH225506   5.908   4.337  11.670 -0.7994 -0.3356  0.2830
 1364TIP3    H125507   5.983   4.369  11.720 -1.7914 -1.2680  2.5274
 1364TIP3    H225508   5.835   4.391  11.699 -1.7012 -1.9165  1.0750
 1365TIP3   OH225509   1.605   1.845   2.701 -0.1409 -0.3967 -0.3168
 1365TIP3    H125510   1.650   1.929   2.714 -0.3022 -0.2264 -0.8535
 1365TIP3    H225511   1.538   1.864   2.636  0.0828 -1.0394 -0.7434
 1366TIP3   OH225512   1.831   1.143  11.559 -0.6463  0.0828  0.0468
 1366TIP3    H125513   1.915   1.104  11.583 -0.7389 -0.4460 -0.4541
 1366TIP3    H225514   1.854   1.224  11.514 -0.4516  0.6619  1.1538
 1367TIP3   OH225515   4.699   1.908  13.427  0.0944 -0.1551  0.0540
 1367TIP3    H125516   4.741   1.921  13.512  0.6959  0.2209 -0.2974
 1367TIP3    H225517   4.771   1.896  13.366 -0.3400 -0.6148 -0.3816
 1368TIP3   OH225518   1.788   2.956   2.335  0.4132  0.8476 -0.0262
 1368TIP3    H125519   1.732   2.982   2.261 -0.9770 -0.4751  0.5240
 1368TIP3    H225520   1.778   3.027   2.398  0.6197  1.3773 -0.5745
 1369TIP3   OH225521   1.746   0.131   5.645 -0.3570 -0.1812  0.2016
 1369TIP3    H125522   1.728   0.223   5.663 -1.1544 -0.0743 -1.0111
 1369TIP3    H225523   1.761   0.092   5.731 -0.1977  1.0353  0.7441
 1370TIP3   OH225524   2.021   1.904  11.151 -0.4294  0.3511  0.1588
 1370TIP3    H125525   2.099   1.949  11.118 -0.4948  1.1065  1.0053
 1370TIP3    H225526   1.949   1.940  11.099 -0.2656 -0.0945 -0.3862
 1371TIP3   OH225527   2.444   4.738  12.086 -0.1295 -0.3262  0.2656
 1371TIP3    H125528   2.427   4.831  12.099  0.0014 -0.3881  0.8776
 1371TIP3    H225529   2.379   4.694  12.141  1.6359 -0.5799  2.2787
 1372TIP3   OH225530   0.889   2.371  14.758 -0.0692  0.4238 -0.8027
 1372TIP3    H125531   0.840   2.388  14.678 -0.3214  4.0883 -0.0579
 1372TIP3    H225532   0.822   2.370  14.827  0.3556 -0.6209 -0.3860
 1373TIP3   OH225533   3.824   0.824  16.744 -0.3966  0.2334 -0.4257
 1373TIP3    H125534   3.752   0.872  16.786 -1.2120 -0.3113 -1.1596
 1373TIP3    H225535   3.828   0.861  16.656 -0.2371 -0.2202 -0.6065
 1374TIP3   OH225536   4.331   6.261   4.637  0.2142 -0.3241 -0.0622
 1374TIP3    H125537   4.282   6.287   4.714  0.0518  0.1202 -0.3125
 1374TIP3    H225538   4.300   6.318   4.567 -1.6058 -2.4583 -1.1388
 1375TIP3   OH225539   1.112   2.387   0.081 -0.0081 -0.1069 -0.0096
 1375TIP3    H125540   1.168   2.447   0.132  0.3534 -1.1985  0.9226
 1375TIP3    H225541   1.139   2.401  -0.010  1.6341 -0.4161  0.3877
 1376TIP3   OH225542   0.924   3.763   6.058 -0.1977 -0.0930 -0.7016
 1376TIP3    H125543   0.849   3.768   6.118 -1.0577  2.4217 -1.8300
 1376TIP3    H225544   0.996   3.805   6.105  0.6604 -2.6737  0.4554
 1377TIP3   OH225545   2.017   3.044   4.584 -0.3098  0.0364 -0.3077
 1377TIP3    H125546   2.079   2.990   4.633  1.0011  1.0171 -0.8449
 1377TIP3    H225547   1.992   2.990   4.509  2.3656  0.7325 -1.8334
 1378TIP3   OH225548   1.601   5.233   5.684 -0.4339 -0.2991 -0.3136
 1378TIP3    H125549   1.510   5.241   5.712 -0.3145  0.3173 -0.0780
 1378TIP3    H225550   1.596   5.199   5.595 -0.8879 -0.4533 -0.2315
 1379TIP3   OH225551   2.805   1.699  15.879 -0.9169  0.0966 -0.1430
 1379TIP3    H125552   2.824   1.716  15.971 -2.1078  0.4167  0.0656
 1379TIP3    H225553   2.830   1.781  15.834  0.0862 -0.2186 -0.1887
 1380TIP3   OH225554   2.208   4.234   2.277 -0.0059  0.4005 -0.3308
 1380TIP3    H125555   2.280   4.243   2.215 -0.8304 -0.5720 -1.4650
 1380TIP3    H225556   2.223   4.150   2.320 -0.5759  0.0726 -0.7514
 1381TIP3   OH225557   5.361   3.595  16.907  0.4318  0.3305  0.9908
 1381TIP3    H125558   5.454   3.572  16.911  0.7789  1.8010  1.7904
 1381TIP3    H225559   5.358   3.682  16.868 -0.5583  0.5961  1.6087
 1382TIP3   OH225560   2.180   0.063   3.680  0.3066  1.2044 -0.7928
 1382TIP3    H125561   2.114   0.132   3.693  0.1354  1.0174 -0.6665
 1382TIP3    H225562   2.167   0.034   3.590  0.8243  1.8030 -1.0631
 1383TIP3   OH225563   4.380   1.614  14.770  0.1506  0.2985 -1.1058
 1383TIP3    H125564   4.395   1.694  14.821  0.8033  0.1275 -1.0154
 1383TIP3    H225565   4.327   1.642  14.695  0.3560  0.8089 -1.0631
 1384TIP3   OH225566   3.075   1.156  11.660  0.2067  0.0773  0.1543
 1384TIP3    H125567   3.060   1.144  11.566 -1.0905 -1.5626  0.5204
 1384TIP3    H225568   3.161   1.198  11.666  0.0869  0.6704 -1.7668
 1385TIP3   OH225569   2.762   5.726  13.790 -0.1462 -0.1214 -0.7059
 1385TIP3    H125570   2.679   5.699  13.831  0.0799  0.4150  0.1403
 1385TIP3    H225571   2.817   5.648  13.793  0.1891  0.1376  0.8930
 1386TIP3   OH225572   5.635   3.606   0.698  0.0134 -0.1866 -0.6570
 1386TIP3    H125573   5.699   3.626   0.630 -0.3315  1.7082 -0.4875
 1386TIP3    H225574   5.550   3.622   0.658 -0.1604  2.3297  0.5345
 1387TIP3   OH225575   5.014   1.831   3.597  0.6061  0.2594  0.1460
 1387TIP3    H125576   5.087   1.857   3.652 -0.3498  1.2771  0.9729
 1387TIP3    H225577   4.946   1.897   3.613 -0.7590 -1.0350 -0.0481
 1388TIP3   OH225578   0.988   2.926  14.160  0.1440  0.2083 -0.2799
 1388TIP3    H125579   1.015   2.869  14.232 -0.7448  0.1211 -0.0040
 1388TIP3    H225580   0.912   2.882  14.121 -0.9669  1.5017  0.3478
 1389TIP3   OH225581   3.477   0.587   2.084  0.0631  0.3197 -0.1911
 1389TIP3    H125582   3.563   0.547   2.100 -0.9497 -1.8264  0.3042
 1389TIP3    H225583   3.424   0.559   2.159 -1.1315  1.4490 -0.5837
 1390TIP3   OH225584   5.496   0.573   4.482  0.0492 -0.2077 -0.6517
 1390TIP3    H125585   5.499   0.665   4.509  0.4662  0.3706 -2.5163
 1390TIP3    H225586   5.586   0.553   4.455 -0.1658 -0.9974 -0.8026
 1391TIP3   OH225587   1.306   3.854  16.133 -0.5285 -0.0350 -0.4693
 1391TIP3    H125588   1.375   3.847  16.199 -0.7273 -0.0355 -0.2596
 1391TIP3    H225589   1.327   3.787  16.068 -0.9391 -0.7893  0.1592
 1392TIP3   OH225590   4.740   5.904   0.301  0.2910 -0.3200  0.1701
 1392TIP3    H125591   4.746   5.996   0.328  0.1062  0.2411 -1.5445
 1392TIP3    H225592   4.716   5.908   0.208  1.0366 -2.0993 -0.1404
 1393TIP3   OH225593   5.463   6.299   3.047  0.4647 -0.0621  0.1734
 1393TIP3    H125594   5.529   6.351   3.091  1.7499 -1.2204 -0.3084
 1393TIP3    H225595   5.452   6.341   2.962  1.7596 -0.7334 -0.3542
 1394TIP3   OH225596   5.022   4.368  13.113 -0.1325 -0.3348 -0.1338
 1394TIP3    H125597   4.949   4.371  13.051  0.3001  1.4857 -0.6037
 1394TIP3    H225598   4.989   4.314  13.185 -2.8447  2.2252  0.7588
 1395TIP3   OH225599   0.616   4.586   2.134  0.2295  0.4334 -0.4104
 1395TIP3    H125600   0.594   4.522   2.202  2.2804  0.2583  0.1575
 1395TIP3    H225601   0.611   4.671   2.178  0.0970  0.4489 -0.4537
 1396TIP3   OH225602   4.132   1.133   0.802 -0.1850  0.0258  0.5642
 1396TIP3    H125603   4.041   1.141   0.828 -0.6318  3.4029 -1.4834
 1396TIP3    H225604   4.174   1.213   0.835  1.3404 -0.1106 -0.9098
 1397TIP3   OH225605   5.272   1.465   2.521 -0.0069 -0.2389  0.3282
 1397TIP3    H125606   5.291   1.469   2.427 -1.9057  0.6592 -0.0550
 1397TIP3    H225607   5.358   1.474   2.563  0.7653  0.4895 -1.3143
 1398TIP3   OH225608   0.421   3.447   1.165  0.6243  0.5549  0.0873
 1398TIP3    H125609   0.423   3.392   1.243  0.4514  0.6861  0.1832
 1398TIP3    H225610   0.507   3.488   1.162  0.7529  0.2818  0.0184
 1399TIP3   OH225611   0.551   2.225   5.492  0.1344 -0.0803 -0.3321
 1399TIP3    H125612   0.599   2.264   5.419 -0.6111 -0.1290 -0.8616
 1399TIP3    H225613   0.466   2.200   5.455  0.6461 -2.4321 -0.0838
 1400TIP3   OH225614   1.423   6.297  11.614  0.0957  0.5584 -0.3336
 1400TIP3    H125615   1.491   6.340  11.665  0.3306  0.5992 -0.6757
 1400TIP3    H225616   1.341   6.323  11.655  0.3136 -0.0490  0.5107
 1401TIP3   OH225617   5.847   2.416   2.488 -0.0872 -0.3381 -0.3426
 1401TIP3    H125618   5.803   2.370   2.416 -0.5304  0.0505 -0.3244
 1401TIP3    H225619   5.778   2.431   2.553 -0.0631  0.7726 -0.5537
 1402TIP3   OH225620   1.159   3.435   2.765  0.3694  0.0936 -0.3851
 1402TIP3    H125621   1.250   3.425   2.736 -0.0201  0.2913 -1.7544
 1402TIP3    H225622   1.165   3.483   2.848  1.5621 -0.9546  0.1703
 1403TIP3   OH225623   0.936   2.343  13.611 -0.6937 -0.2989  0.5321
 1403TIP3    H125624   0.964   2.265  13.563 -1.2740 -0.0474 -0.2459
 1403TIP3    H225625   0.905   2.310  13.696 -0.1944 -0.8195  0.5153
 1404TIP3   OH225626   2.581   3.958   1.156 -0.2771 -0.5388 -0.2432
 1404TIP3    H125627   2.633   4.000   1.088 -1.3799  0.0641 -0.7469
 1404TIP3    H225628   2.645   3.913   1.211  0.8386  0.7490 -0.4284
 1405TIP3   OH225629   2.910   1.035  16.197  0.1633  0.8448 -0.2838
 1405TIP3    H125630   2.917   0.968  16.129  2.3856 -0.0693  0.7408
 1405TIP3    H225631   2.851   1.101  16.160 -1.4186 -1.2178 -1.6875
 1406TIP3   OH225632   3.441   2.757   2.522  0.2255 -0.1607  0.1891
 1406TIP3    H125633   3.484   2.691   2.467  0.0409  1.3190 -1.8158
 1406TIP3    H225634   3.348   2.743   2.506  0.0994 -0.5019  1.1281
 1407TIP3   OH225635   6.152   0.973   0.267  0.0062  0.3684  0.1140
 1407TIP3    H125636   6.204   0.984   0.346 -0.2306  0.7297  0.2217
 1407TIP3    H225637   6.062   0.993   0.294 -0.2678 -0.6560  0.0390
 1408TIP3   OH225638   6.684   3.973  14.306 -0.5654  0.0777  0.2520
 1408TIP3    H125639   6.725   4.059  14.298 -0.0932 -0.2923 -2.0021
 1408TIP3    H225640   6.600   3.982  14.261 -0.8147 -0.4801  0.5891
 1409TIP3   OH225641   6.609   0.694  14.189 -0.5084 -0.1984 -0.2720
 1409TIP3    H125642   6.535   0.636  14.201 -1.0557  0.6908  0.8051
 1409TIP3    H225643   6.593   0.736  14.104 -0.4505 -1.0932 -0.7355
 1410TIP3   OH225644   0.509   3.881  14.497  0.0698 -0.1119 -0.0783
 1410TIP3    H125645   0.595   3.923  14.505  1.2771 -2.2889 -0.8414
 1410TIP3    H225646   0.475   3.880  14.586  1.2287 -0.0014  0.3828
 1411TIP3   OH225647   5.921   2.018  15.110  0.2584 -0.4764  0.4784
 1411TIP3    H125648   5.896   1.972  15.191  1.6598 -0.1540  1.1419
 1411TIP3    H225649   6.010   2.049  15.128  0.0133  0.9458 -0.6276
 1412TIP3   OH225650   2.248   5.657  14.288 -0.2242  0.0454  0.4290
 1412TIP3    H125651   2.174   5.717  14.299  0.0343  0.5509 -0.5202
 1412TIP3    H225652   2.314   5.708  14.240 -0.8584 -1.6567 -2.4720
 1413TIP3   OH225653   0.208   4.013   2.815  0.0590  0.2034 -0.1946
 1413TIP3    H125654   0.169   4.010   2.903 -2.3175 -1.6091 -1.2051
 1413TIP3    H225655   0.147   3.963   2.760  2.8471 -1.0598 -2.3721
 1414TIP3   OH225656   3.956   5.077   0.444 -0.3527  0.1433  0.4639
 1414TIP3    H125657   3.983   5.169   0.441 -0.4752  0.1690  0.1484
 1414TIP3    H225658   3.921   5.066   0.533 -0.6470  0.4916  0.3944
 1415TIP3   OH225659   6.172   0.979  16.721  0.5425 -0.2075  0.8613
 1415TIP3    H125660   6.082   0.961  16.749 -0.2400  2.2693  0.1610
 1415TIP3    H225661   6.183   0.923  16.643 -1.0197  0.6476 -0.0365
 1416TIP3   OH225662   6.451   5.032   1.876  0.4270 -0.2352  0.0893
 1416TIP3    H125663   6.458   4.951   1.827  1.5145  1.0966 -2.0880
 1416TIP3    H225664   6.358   5.053   1.875  0.4306 -0.2218 -1.4793
 1417TIP3   OH225665   0.045   3.261  11.691 -0.2978 -0.0120 -0.2986
 1417TIP3    H125666  -0.026   3.247  11.629 -1.0225  0.1053  0.4902
 1417TIP3    H225667   0.085   3.344  11.664 -1.6283  0.8675  0.3467
 1418TIP3   OH225668   1.269   3.733  11.747  0.0132 -0.3489  0.0923
 1418TIP3    H125669   1.327   3.765  11.816 -0.2933 -1.0033  0.6671
 1418TIP3    H225670   1.247   3.811  11.696  0.6143  0.0668  0.4540
 1419TIP3   OH225671   4.802   2.550   0.772  0.3563 -0.0041  0.1832
 1419TIP3    H125672   4.813   2.534   0.679  1.7809 -0.9678  0.4976
 1419TIP3    H225673   4.712   2.523   0.791  0.1035  0.0815 -0.8639
 1420TIP3   OH225674   0.876   3.350   4.822  0.0107 -0.5555  0.9859
 1420TIP3    H125675   0.814   3.362   4.894  0.4196 -0.9806  1.4172
 1420TIP3    H225676   0.929   3.429   4.824 -0.8919  0.0925  0.2250
 1421TIP3   OH225677   0.505   5.379   3.672 -0.0252 -0.0422  0.9839
 1421TIP3    H125678   0.454   5.459   3.685 -0.7285 -0.4159  0.5753
 1421TIP3    H225679   0.583   5.391   3.726 -1.0870  0.0473  2.5565
 1422TIP3   OH225680   3.759   5.657  16.470  0.2274  0.2233 -0.6262
 1422TIP3    H125681   3.797   5.598  16.535 -3.4836 -1.2091  0.5151
 1422TIP3    H225682   3.739   5.601  16.395 -2.1954  0.1856 -0.0216
 1423TIP3   OH225683   1.998   0.259  15.890  0.1811  0.0821 -0.4238
 1423TIP3    H125684   1.926   0.280  15.950 -0.6548 -1.1595 -0.9572
 1423TIP3    H225685   2.071   0.312  15.922 -1.2114  2.1435 -0.4475
 1424TIP3   OH225686   1.008   3.238   4.357  0.0229 -0.4376  0.1808
 1424TIP3    H125687   1.092   3.198   4.332  0.8820  0.4043  1.5941
 1424TIP3    H225688   1.031   3.324   4.392 -1.6508  0.7311 -1.3887
 1425TIP3   OH225689   2.775   1.613   2.825  0.1246 -0.1760 -0.5220
 1425TIP3    H125690   2.745   1.703   2.808  0.1966 -0.3775 -1.8665
 1425TIP3    H225691   2.847   1.623   2.887  2.2561  1.0629 -2.9923
 1426TIP3   OH225692   0.777   6.116  13.628  0.1647  0.2422  0.1054
 1426TIP3    H125693   0.826   6.104  13.547  0.2761  1.0449  0.0477
 1426TIP3    H225694   0.803   6.042  13.683  0.4323 -0.0599 -0.4187
 1427TIP3   OH225695   1.486   2.240   2.144 -0.3408 -0.0729 -0.1913
 1427TIP3    H125696   1.441   2.275   2.067  0.4802  1.2253 -0.1135
 1427TIP3    H225697   1.572   2.282   2.142 -0.0472 -0.5805  1.0376
 1428TIP3   OH225698   0.892   4.177  17.315  0.4176  0.2434  0.2231
 1428TIP3    H125699   0.927   4.190  17.227 -0.9813 -0.4967 -0.4777
 1428TIP3    H225700   0.892   4.264  17.354  0.9362  0.6016 -0.5603
 1429TIP3   OH225701   2.115   4.792  14.024 -0.4286 -0.2535  0.1314
 1429TIP3    H125702   2.026   4.799  13.987 -0.7575  1.6164  1.1564
 1429TIP3    H225703   2.110   4.839  14.107  1.3813 -0.6894  0.5270
 1430TIP3   OH225704   5.989   0.429  17.005 -0.0288  0.1576  0.2457
 1430TIP3    H125705   5.905   0.459  16.971 -0.5225 -0.3879  0.9567
 1430TIP3    H225706   6.034   0.509  17.032 -1.6460  0.3079  2.8407
 1431TIP3   OH225707   3.371   5.665  12.994 -0.3765  0.0227 -0.5524
 1431TIP3    H125708   3.318   5.595  13.032 -1.0196  0.5979 -0.3625
 1431TIP3    H225709   3.442   5.678  13.056 -0.2623 -0.4512 -0.5822
 1432TIP3   OH225710   1.319   5.065   4.661  0.2077  0.3962 -0.1478
 1432TIP3    H125711   1.309   4.988   4.716 -2.8131 -0.1135 -1.2145
 1432TIP3    H225712   1.368   5.127   4.715  0.7827 -1.4564  1.5661
 1433TIP3   OH225713   4.654   4.140  15.596  0.1493  0.1730 -0.0241
 1433TIP3    H125714   4.662   4.211  15.660 -1.2561 -0.5346  0.9723
 1433TIP3    H225715   4.670   4.060  15.647  0.8791 -0.3030 -0.9636
 1434TIP3   OH225716   4.004   4.843  16.823  0.6005  0.3748  0.0359
 1434TIP3    H125717   4.059   4.918  16.802  1.3254  0.2175  1.2146
 1434TIP3    H225718   3.989   4.850  16.918 -0.0232 -0.4974  0.0189
 1435TIP3   OH225719   1.894   6.405  15.521 -0.5555  0.5031 -0.1001
 1435TIP3    H125720   1.876   6.319  15.483  0.3022  0.4856 -0.5116
 1435TIP3    H225721   1.809   6.449  15.523 -1.0037 -0.3573  0.1298
 1436TIP3   OH225722   1.552   3.711  12.078  0.2600  0.4359  0.1961
 1436TIP3    H125723   1.537   3.643  12.143 -0.0595 -0.0059 -0.3243
 1436TIP3    H225724   1.626   3.680  12.026  0.3264  0.6416  0.1664
 1437TIP3   OH225725   0.474   5.954  13.447  0.0372  0.7756  0.1890
 1437TIP3    H125726   0.456   5.943  13.540  0.6306  1.7300  0.4267
 1437TIP3    H225727   0.567   5.934  13.438 -0.1950 -0.1084 -0.3439
 1438TIP3   OH225728   0.842   3.854   4.032 -0.2030  0.0754  0.6069
 1438TIP3    H125729   0.815   3.776   3.984  0.1542 -0.3558  1.0909
 1438TIP3    H225730   0.938   3.848   4.034 -0.0880  1.1634 -0.3992
 1439TIP3   OH225731   0.450   5.620   0.236 -0.2188 -0.6124 -0.5804
 1439TIP3    H125732   0.439   5.648   0.327 -0.2014 -1.2354 -0.3847
 1439TIP3    H225733   0.407   5.688   0.185 -0.5800 -0.4647 -0.0859
 1440TIP3   OH225734   1.342   5.475  14.412  0.3177 -0.3289 -0.2520
 1440TIP3    H125735   1.268   5.480  14.352 -0.1884 -1.0539  0.2876
 1440TIP3    H225736   1.346   5.562  14.452  0.1938 -0.0729 -0.7829
 1441TIP3   OH225737   6.558   2.818  16.033  0.3446  0.3261 -0.4367
 1441TIP3    H125738   6.565   2.787  16.123 -1.1891  0.9864 -0.0647
 1441TIP3    H225739   6.551   2.913  16.040 -0.9897  0.3062 -1.1490
 1442TIP3   OH225740   5.624   4.133   0.766  0.4526  0.3904  0.2084
 1442TIP3    H125741   5.655   4.179   0.687  0.2023 -0.2336 -0.2650
 1442TIP3    H225742   5.673   4.050   0.766 -1.3773 -0.7575 -0.7251
 1443TIP3   OH225743   6.567   1.291   3.903  0.1931 -0.2721  0.3669
 1443TIP3    H125744   6.633   1.247   3.851 -0.6724  0.2588 -1.2615
 1443TIP3    H225745   6.599   1.381   3.912  0.5662 -0.4791  1.1819
 1444TIP3   OH225746   5.300   3.495  12.073  0.0500  0.0127 -0.3157
 1444TIP3    H125747   5.247   3.563  12.114  2.2486  2.4104 -1.1547
 1444TIP3    H225748   5.297   3.516  11.980  1.7198 -0.3320 -0.4687
 1445TIP3   OH225749   5.907   4.457   1.348 -0.2334 -0.0536 -0.3897
 1445TIP3    H125750   5.929   4.375   1.303  0.0084  0.2218 -0.7809
 1445TIP3    H225751   5.968   4.521   1.312  0.0693  0.1436  0.4404
 1446TIP3   OH225752   4.361   2.425  16.783 -0.0837  0.5603 -0.0455
 1446TIP3    H125753   4.277   2.410  16.740  0.0590 -1.2435  0.2362
 1446TIP3    H225754   4.340   2.479  16.859 -0.8311  0.9095 -0.4816
 1447TIP3   OH225755   1.943   1.624  11.564  0.1315  0.3906 -0.4379
 1447TIP3    H125756   1.979   1.672  11.490  1.2043  0.1015 -0.1229
 1447TIP3    H225757   1.966   1.677  11.640 -1.1539  0.8003 -0.3100
 1448TIP3   OH225758   5.548   1.472   3.177 -0.1158 -0.0717 -0.2071
 1448TIP3    H125759   5.540   1.518   3.094 -0.5530 -1.0909 -0.7539
 1448TIP3    H225760   5.564   1.381   3.152  0.2621 -0.3001  0.8315
 1449TIP3   OH225761   2.706   4.288  17.242 -0.2632  0.5905  0.0953
 1449TIP3    H125762   2.631   4.315  17.296  2.6115  1.3480  4.2559
 1449TIP3    H225763   2.753   4.370  17.225  0.9624 -0.1322 -0.0915
 1450TIP3   OH225764   5.624   4.870   5.503  0.2179  0.3396  0.7171
 1450TIP3    H125765   5.663   4.805   5.444  3.3970 -0.6685  3.6164
 1450TIP3    H225766   5.679   4.948   5.492  1.8050 -0.3266  3.1766
 1451TIP3   OH225767   1.724   0.044   4.238  0.1239 -0.6051 -0.5574
 1451TIP3    H125768   1.703  -0.048   4.253  0.3307 -0.7882 -1.3688
 1451TIP3    H225769   1.689   0.064   4.151  2.2549 -0.6160 -1.4797
 1452TIP3   OH225770   1.869   3.929  15.796 -0.0617 -0.3873 -0.4076
 1452TIP3    H125771   1.847   3.859  15.734  0.1642 -0.3151 -0.5691
 1452TIP3    H225772   1.883   4.006  15.742  0.9541 -0.5159 -0.3529
 1453TIP3   OH225773   2.046   0.872   4.802  0.4251 -0.5899  0.1763
 1453TIP3    H125774   2.027   0.788   4.759  0.1716 -0.6643  0.4239
 1453TIP3    H225775   1.973   0.884   4.863  0.4518 -0.1770  0.1269
 1454TIP3   OH225776   0.263   0.663   4.081  0.2607  0.1773  0.2491
 1454TIP3    H125777   0.178   0.623   4.064  0.0156  0.8270 -0.0830
 1454TIP3    H225778   0.253   0.705   4.166  0.0020  0.8877 -0.1215
 1455TIP3   OH225779   5.403   4.771  13.371 -0.0903 -0.3328  0.4569
 1455TIP3    H125780   5.317   4.733  13.352  0.2460 -1.8782  1.8521
 1455TIP3    H225781   5.461   4.735  13.304 -0.4128  0.3516 -0.2069
 1456TIP3   OH225782   0.602   0.678   0.342 -0.1886 -0.7496 -0.0561
 1456TIP3    H125783   0.635   0.741   0.406 -0.6631 -1.7195  1.1836
 1456TIP3    H225784   0.529   0.722   0.299 -0.0547 -0.2027  0.2698
 1457TIP3   OH225785   5.736   0.665   2.382 -0.2504  0.1432 -0.0972
 1457TIP3    H125786   5.710   0.747   2.340  0.3101  0.9892  1.1488
 1457TIP3    H225787   5.758   0.606   2.309  1.1777  1.7173 -1.0088
 1458TIP3   OH225788   2.387   3.332   1.861 -0.1864  0.3578 -0.0524
 1458TIP3    H125789   2.375   3.422   1.832  2.1786  0.4818 -0.8417
 1458TIP3    H225790   2.468   3.333   1.910 -0.1410 -1.3369 -0.0391
 1459TIP3   OH225791   4.168   2.938  14.300 -0.0937  0.2998 -0.0950
 1459TIP3    H125792   4.224   2.942  14.378  0.7483  2.1201 -0.7372
 1459TIP3    H225793   4.119   3.020  14.301 -0.7860 -0.0922 -0.9676
 1460TIP3   OH225794   2.993   0.541  15.698 -0.2849 -0.1139  0.3256
 1460TIP3    H125795   2.963   0.467  15.751  0.3651 -0.0825  0.7360
 1460TIP3    H225796   2.928   0.547  15.628 -1.7006  0.4608  1.6384
 1461TIP3   OH225797   1.997   3.623  16.631  0.2690 -0.6897 -0.5833
 1461TIP3    H125798   1.976   3.702  16.680  0.6645 -0.4398 -0.8094
 1461TIP3    H225799   2.071   3.649  16.575  0.4015 -1.2170 -0.6550
 1462TIP3   OH225800   2.561   1.377   3.289  0.3759 -0.3310  0.4961
 1462TIP3    H125801   2.561   1.304   3.351  0.5896 -1.4385 -0.7554
 1462TIP3    H225802   2.566   1.335   3.203  3.3264  1.1927 -0.2107
 1463TIP3   OH225803   5.003   6.596   1.985  0.0446  0.5613  1.0145
 1463TIP3    H125804   5.076   6.653   2.010 -0.9613  1.8496  1.0990
 1463TIP3    H225805   4.948   6.651   1.929 -0.4195 -0.6664  0.2236
 1464TIP3   OH225806   0.022   2.668   1.724 -0.3956 -0.1591  0.3456
 1464TIP3    H125807   0.017   2.664   1.820 -0.7202 -1.9199  0.2977
 1464TIP3    H225808   0.058   2.755   1.705  3.6882 -1.2074  2.2280
 1465TIP3   OH225809   1.577   3.090   3.730  0.0115 -0.5422 -0.2972
 1465TIP3    H125810   1.653   3.147   3.739 -1.9836  2.1693  1.0174
 1465TIP3    H225811   1.587   3.049   3.644  2.8165 -0.2071 -0.2137
 1466TIP3   OH225812   2.184   6.297  13.537 -0.2421 -0.2242 -0.2950
 1466TIP3    H125813   2.254   6.337  13.589 -0.0878 -1.0051  0.1172
 1466TIP3    H225814   2.215   6.208  13.520 -0.5197 -0.1464 -1.3053
 1467TIP3   OH225815   5.747   4.611  16.914 -0.1785  0.4860 -0.2057
 1467TIP3    H125816   5.717   4.700  16.894  1.2003  1.2718  0.9294
 1467TIP3    H225817   5.825   4.599  16.859 -0.1735  0.1113 -0.1183
 1468TIP3   OH225818   2.736   1.303  16.373 -0.0473 -0.1000  0.1884
 1468TIP3    H125819   2.776   1.294  16.286 -1.0608 -0.4532 -0.2622
 1468TIP3    H225820   2.705   1.393  16.376 -2.1737 -0.7126 -0.8339
 1469TIP3   OH225821   3.379   4.196   4.959  0.1924  0.3881  0.5462
 1469TIP3    H125822   3.288   4.168   4.955  0.3840 -0.1270 -0.4387
 1469TIP3    H225823   3.422   4.149   4.888  1.1463  0.9270  0.7474
 1470TIP3   OH225824   5.040   4.131   5.385  0.3862  0.0055  0.2685
 1470TIP3    H125825   5.092   4.096   5.458  1.7067 -0.1686 -0.7190
 1470TIP3    H225826   4.958   4.083   5.390  0.6280 -0.3426  1.3594
 1471TIP3   OH225827   4.578   6.534   4.477  0.0040 -0.2749  0.1601
 1471TIP3    H125828   4.584   6.566   4.387 -0.4238 -1.9107 -0.4908
 1471TIP3    H225829   4.585   6.613   4.531  0.2835  0.7412 -1.2941
 1472TIP3   OH225830   3.493   3.045   3.441  0.6537 -0.2529  0.0987
 1472TIP3    H125831   3.499   2.995   3.359  2.0307  0.1056 -0.0519
 1472TIP3    H225832   3.545   3.124   3.424 -2.1125  1.6995  0.0417
 1473TIP3   OH225833   4.698   4.658  15.105 -0.0468  0.6168  0.4239
 1473TIP3    H125834   4.749   4.679  15.184 -2.0518 -0.3709  2.0742
 1473TIP3    H225835   4.700   4.738  15.053  1.8028  1.1175  1.1740
 1474TIP3   OH225836   1.718   2.797   4.631  0.2246 -0.0811  0.2155
 1474TIP3    H125837   1.784   2.748   4.581 -1.4138  0.9309 -3.2140
 1474TIP3    H225838   1.642   2.739   4.634  0.5443 -0.5119  2.5871
 1475TIP3   OH225839   1.431   1.616  12.189  0.1210  0.2671 -1.2248
 1475TIP3    H125840   1.380   1.660  12.256  0.2312 -2.1574  0.5759
 1475TIP3    H225841   1.499   1.569  12.237  0.6057 -1.0561 -3.0774
 1476TIP3   OH225842   5.814   2.201   2.763 -0.0109  0.0197 -0.3364
 1476TIP3    H125843   5.790   2.252   2.686  1.5613 -0.3430 -1.1047
 1476TIP3    H225844   5.730   2.175   2.802 -0.9370 -1.3978 -2.9999
 1477TIP3   OH225845   0.780   2.655   1.664 -0.0744 -0.5962 -0.1809
 1477TIP3    H125846   0.733   2.676   1.583 -2.4571 -2.3228  0.6403
 1477TIP3    H225847   0.865   2.697   1.654 -0.4598 -0.3411 -3.3570
 1478TIP3   OH225848   4.039   3.906  15.913  0.4097 -0.1295 -0.1353
 1478TIP3    H125849   4.068   3.846  15.982  1.8839 -0.3990 -0.9240
 1478TIP3    H225850   4.086   3.876  15.835  1.0867  1.9591 -0.5908
 1479TIP3   OH225851   1.086   0.700  17.000 -0.4573  0.0050  0.5536
 1479TIP3    H125852   1.178   0.690  17.023 -0.3566 -1.7049 -0.4469
 1479TIP3    H225853   1.045   0.735  17.079  0.6275 -1.5025  1.8473
 1480TIP3   OH225854   5.037   6.318  17.116  0.0661  0.2111 -0.0346
 1480TIP3    H125855   4.986   6.314  17.197 -0.8319 -1.4775 -0.6361
 1480TIP3    H225856   5.128   6.306  17.144 -0.3775 -2.2199  0.6484
 1481TIP3   OH225857   6.333   4.019  12.956 -0.1804  0.0503 -1.0039
 1481TIP3    H125858   6.383   4.101  12.962  1.3777 -0.8855 -0.8056
 1481TIP3    H225859   6.323   3.990  13.047 -0.4973 -0.1218 -1.0919
 1482TIP3   OH225860   5.206   5.915  14.306  0.4585 -0.0585  0.0155
 1482TIP3    H125861   5.174   6.004  14.290  1.1337  0.1698 -0.1021
 1482TIP3    H225862   5.293   5.927  14.345  0.9467 -0.6685 -0.8537
 1483TIP3   OH225863   3.402   2.311   1.997  0.2290 -0.1886  0.6299
 1483TIP3    H125864   3.377   2.302   2.089  0.4277 -0.7656  0.6340
 1483TIP3    H225865   3.329   2.274   1.948 -1.1957  2.6560  0.3902
 1484TIP3   OH225866   0.305   1.206  12.568 -0.2727  0.1458 -0.4452
 1484TIP3    H125867   0.315   1.301  12.561 -0.4998  0.1096 -1.3820
 1484TIP3    H225868   0.228   1.186  12.515 -1.3777 -0.3560  1.2511
 1485TIP3   OH225869   4.182   1.496  17.200 -0.3442 -0.8980 -0.0915
 1485TIP3    H125870   4.164   1.583  17.164 -0.0406 -1.7582 -2.4721
 1485TIP3    H225871   4.108   1.480  17.260 -1.0818  0.4623 -0.5811
 1486TIP3   OH225872   3.429   3.691   4.031 -0.1398 -0.0290  0.1263
 1486TIP3    H125873   3.350   3.741   4.052  1.0952  1.1151  2.3902
 1486TIP3    H225874   3.439   3.700   3.937 -1.9420  0.9581 -0.0155
 1487TIP3   OH225875   5.448   5.262   5.636  0.7501  0.2245 -0.2607
 1487TIP3    H125876   5.421   5.170   5.635 -0.2621  0.4951  0.4338
 1487TIP3    H225877   5.369   5.311   5.612  0.8892  0.9800  0.7395
 1488TIP3   OH225878   3.102   0.528   3.329 -0.7892 -0.5475  0.0174
 1488TIP3    H125879   3.022   0.513   3.278  0.0005 -0.3974 -1.3099
 1488TIP3    H225880   3.106   0.623   3.339 -1.1916 -0.6008  0.8161
 1489TIP3   OH225881   6.692   5.816   3.758  0.4870  0.1324  0.4099
 1489TIP3    H125882   6.764   5.778   3.708 -0.6086  1.2663 -2.2078
 1489TIP3    H225883   6.636   5.742   3.780  0.4595 -0.3068 -1.0299
 1490TIP3   OH225884   4.604   0.952   3.999  0.4847  0.5384  0.7472
 1490TIP3    H125885   4.633   0.937   3.909 -0.9650  1.5160  0.0729
 1490TIP3    H225886   4.669   0.908   4.053  0.6262 -1.3394 -0.8226
 1491TIP3   OH225887   5.347   6.489  15.324 -0.1061 -0.7831  0.5298
 1491TIP3    H125888   5.369   6.528  15.409  2.3240  0.0875 -0.4280
 1491TIP3    H225889   5.371   6.396  15.334 -2.7191 -1.4319  1.7034
 1492TIP3   OH225890   4.647   2.766  15.116  0.2879  0.6644  0.2130
 1492TIP3    H125891   4.664   2.857  15.140 -1.6851  0.7242  1.6353
 1492TIP3    H225892   4.570   2.769  15.060  1.0957 -0.0551 -1.0099
 1493TIP3   OH225893   2.945   4.680   4.242 -0.2679 -0.5189  0.1557
 1493TIP3    H125894   2.860   4.716   4.220  0.1210  1.3097  1.4095
 1493TIP3    H225895   2.959   4.705   4.334  1.6608 -0.6548 -0.0559
 1494TIP3   OH225896   0.504   3.292  13.361 -0.3773  0.0790 -0.0886
 1494TIP3    H125897   0.446   3.355  13.404 -0.4204  0.0767 -0.1449
 1494TIP3    H225898   0.503   3.317  13.269 -1.6700 -0.9880 -0.4026
 1495TIP3   OH225899   4.025   6.522   1.896  0.4944 -0.2883 -0.0422
 1495TIP3    H125900   4.045   6.564   1.979 -1.9863  0.3865  0.3030
 1495TIP3    H225901   4.071   6.438   1.899 -1.2880 -1.3051  3.0611
 1496TIP3   OH225902   1.680   4.667  12.586 -0.2338 -0.4208 -0.1981
 1496TIP3    H125903   1.681   4.653  12.491  0.4516  0.7993 -0.3941
 1496TIP3    H225904   1.725   4.751  12.598 -2.5899  0.7765  0.9653
 1497TIP3   OH225905   6.015   5.552  15.473 -0.1083 -0.8111  0.0965
 1497TIP3    H125906   5.990   5.488  15.540  1.3702 -0.8490  0.6613
 1497TIP3    H225907   6.094   5.594  15.509  0.3111 -0.3410 -1.3121
 1498TIP3   OH225908   6.015   4.418  17.347  0.8920  0.3053  0.0218
 1498TIP3    H125909   5.975   4.481  17.407 -0.1734  1.0139 -1.3807
 1498TIP3    H225910   6.092   4.463  17.313  1.6918 -0.2235  1.0438
 1499TIP3   OH225911   3.953   4.669  12.747 -0.3922 -0.1791 -0.1577
 1499TIP3    H125912   3.995   4.611  12.811 -2.1523 -0.5154  0.7323
 1499TIP3    H225913   3.883   4.712  12.795 -0.4018  1.1883 -1.3407
 1500TIP3   OH225914   5.448   3.971   3.154 -0.1921  0.2287  0.1583
 1500TIP3    H125915   5.423   4.060   3.180  0.0673 -0.0697  1.5424
 1500TIP3    H225916   5.480   3.931   3.235  0.8703 -0.7274 -0.7007
 1501TIP3   OH225917   2.549   1.324   5.311  0.1306 -0.0430  0.5729
 1501TIP3    H125918   2.467   1.277   5.326  0.4607 -1.6454 -2.1440
 1501TIP3    H225919   2.533   1.377   5.233  1.6003 -0.2077  0.1342
 1502TIP3   OH225920   5.418   1.234   1.834  0.2338 -1.0406 -0.3099
 1502TIP3    H125921   5.392   1.244   1.743  1.9477  0.9254 -0.6685
 1502TIP3    H225922   5.342   1.195   1.877 -2.7859  2.8542 -1.5282
 1503TIP3   OH225923   3.780   2.927  15.124  0.5421  0.0977  0.0963
 1503TIP3    H125924   3.770   2.886  15.038 -1.5945 -0.7608  0.6950
 1503TIP3    H225925   3.704   2.984  15.133 -0.2299 -1.1347  2.0785
 1504TIP3   OH225926   2.028   5.699  11.957 -0.2243 -0.3316 -0.4799
 1504TIP3    H125927   1.989   5.731  11.876  0.1720  0.9559 -0.1829
 1504TIP3    H225928   2.122   5.709  11.944 -0.1953  1.1718  0.6166
 1505TIP3   OH225929   2.941   5.533  11.293  0.4499 -0.7737 -0.2833
 1505TIP3    H125930   2.849   5.519  11.269  0.1219  0.0575  0.4396
 1505TIP3    H225931   2.991   5.489  11.224 -0.4722 -0.1882 -1.3468
 1506TIP3   OH225932   3.647   5.250  17.006  0.2309  0.2991 -0.2353
 1506TIP3    H125933   3.613   5.247  17.095  0.3509  1.5849 -0.1388
 1506TIP3    H225934   3.570   5.245  16.950  0.1659 -0.6892 -0.0836
 1507TIP3   OH225935   2.876   0.681  11.999 -0.6564  0.5016  0.4438
 1507TIP3    H125936   2.929   0.602  11.994 -0.1785  0.8912 -0.9553
 1507TIP3    H225937   2.877   0.704  12.092 -1.7325 -1.7312  1.0804
 1508TIP3   OH225938   5.946   1.895   3.282 -0.3386 -0.2313  0.2371
 1508TIP3    H125939   5.967   1.836   3.210 -0.1120 -1.4425  1.2539
 1508TIP3    H225940   5.972   1.847   3.361  0.6315  1.5441  1.0768
 1509TIP3   OH225941   6.196   5.213   2.212  0.2578  0.3326 -0.0222
 1509TIP3    H125942   6.235   5.283   2.263  1.5541  0.7417 -1.4957
 1509TIP3    H225943   6.180   5.251   2.126  0.6340 -1.0496 -0.7434
 1510TIP3   OH225944   5.296   1.166  11.964  0.3050 -0.6150 -0.1117
 1510TIP3    H125945   5.217   1.113  11.960 -0.7873  0.7988  1.5619
 1510TIP3    H225946   5.330   1.153  12.052  0.0862  1.2972  0.3092
 1511TIP3   OH225947   6.376   0.881  13.659  0.7708 -0.5453  0.4575
 1511TIP3    H125948   6.400   0.802  13.611  0.7235 -0.0865 -0.3349
 1511TIP3    H225949   6.282   0.890  13.646  0.6515 -0.7256  1.1243
 1512TIP3   OH225950   3.658   3.263  16.350  0.2753  0.2813  0.0524
 1512TIP3    H125951   3.682   3.298  16.435 -2.0318  0.8070  0.5510
 1512TIP3    H225952   3.676   3.169  16.357  2.4047  0.6669  0.2177
 1513TIP3   OH225953   6.651   0.335  11.323  0.3270  0.2992  0.3547
 1513TIP3    H125954   6.702   0.322  11.243 -0.6306 -1.6013  0.0103
 1513TIP3    H225955   6.681   0.420  11.357  1.3685  0.7409 -1.5433
 1514TIP3   OH225956   3.710   5.627  11.707  0.0006 -0.3394 -0.7039
 1514TIP3    H125957   3.741   5.632  11.617  1.2162  0.5654 -0.2715
 1514TIP3    H225958   3.642   5.694  11.713 -1.7642 -1.9762 -1.5233
 1515TIP3   OH225959   1.193   3.938   6.591 -0.5275  0.0362  0.5358
 1515TIP3    H125960   1.138   3.960   6.667  0.5756 -0.8670  1.6423
 1515TIP3    H225961   1.159   3.993   6.520 -1.5302  0.9851  1.7005
 1516TIP3   OH225962   4.768   0.349  15.807 -0.2724 -0.1329 -0.2254
 1516TIP3    H125963   4.809   0.417  15.861  1.3747 -0.3678 -1.1237
 1516TIP3    H225964   4.755   0.392  15.722  0.4008 -0.8181 -0.6761
 1517TIP3   OH225965   5.626   6.292  13.698  0.4792  0.2109 -0.2435
 1517TIP3    H125966   5.598   6.338  13.777  1.0460 -0.2249  0.2181
 1517TIP3    H225967   5.564   6.320  13.631  1.1284  2.0905 -0.1251
 1518TIP3   OH225968   2.239   4.897   3.102  0.3596 -0.0405  0.2487
 1518TIP3    H125969   2.298   4.971   3.117  0.7473 -0.6022  1.5881
 1518TIP3    H225970   2.268   4.860   3.019  1.0205  0.5111  0.2237
 1519TIP3   OH225971   2.122   6.083  13.942  0.5427  0.1012  0.3283
 1519TIP3    H125972   2.066   6.009  13.965  1.0188 -0.1447  0.6994
 1519TIP3    H225973   2.135   6.075  13.848  0.5421 -0.2516  0.3571
 1520TIP3   OH225974   4.128   4.629  14.263 -0.0478  1.0900 -0.2441
 1520TIP3    H125975   4.047   4.611  14.215  0.0408  2.1498 -0.8151
 1520TIP3    H225976   4.196   4.628  14.196  0.8372 -2.0755  0.4997
 1521TIP3   OH225977   3.208   4.371   2.794 -0.0589  0.0640 -0.3259
 1521TIP3    H125978   3.124   4.343   2.832  0.5650 -1.1861  0.1886
 1521TIP3    H225979   3.247   4.290   2.761  0.0634  0.9057 -2.3933
 1522TIP3   OH225980   0.578   1.679  14.565  0.2200 -0.0414  0.0404
 1522TIP3    H125981   0.548   1.697  14.476 -1.0396  0.9869  0.6297
 1522TIP3    H225982   0.573   1.584  14.574 -0.9380 -0.0629 -0.5750
 1523TIP3   OH225983   1.054   4.717  16.075  0.2372  0.3804  0.3511
 1523TIP3    H125984   1.084   4.803  16.045 -0.5619 -0.0712 -2.0197
 1523TIP3    H225985   1.007   4.681  15.999  1.4023 -2.5697  0.8844
 1524TIP3   OH225986   5.964   0.136  16.281 -0.5666 -0.6218 -0.2412
 1524TIP3    H125987   5.932   0.138  16.191  1.5093 -0.4607 -1.0377
 1524TIP3    H225988   5.904   0.192  16.330 -1.7836 -0.7848 -1.4999
 1525TIP3   OH225989   4.483   1.169  14.660 -0.3074 -0.1233 -0.0275
 1525TIP3    H125990   4.571   1.142  14.685  0.2949 -0.2507 -2.1096
 1525TIP3    H225991   4.483   1.265  14.667 -0.1395 -0.1543  0.3771
 1526TIP3   OH225992   3.158   5.775   4.940  0.0266 -0.5054  0.0107
 1526TIP3    H125993   3.214   5.840   4.983  1.5079 -1.0915 -0.9292
 1526TIP3    H225994   3.080   5.824   4.914  0.2397  0.4316  1.0541
 1527TIP3   OH225995   3.852   3.576  13.920 -0.1697 -0.5294 -0.4886
 1527TIP3    H125996   3.912   3.503  13.934 -0.7229 -1.0704 -0.9106
 1527TIP3    H225997   3.904   3.640  13.871 -0.5620 -1.9346 -2.8694
 1528TIP3   OH225998   6.216   0.694   5.183  0.1442 -0.0562  0.5805
 1528TIP3    H125999   6.137   0.645   5.208  0.1546 -0.3108  0.1215
 1528TIP3    H226000   6.229   0.756   5.254  0.7493 -1.4372  1.7261
 1529TIP3   OH226001   6.258   1.356   0.420 -0.3029  0.0680 -0.1054
 1529TIP3    H126002   6.242   1.437   0.372  0.1018 -0.6793 -1.5446
 1529TIP3    H226003   6.318   1.382   0.490 -0.3646  1.0548 -0.4025
 1530TIP3   OH226004   5.006   6.486  14.380  0.4131  0.3497 -0.6596
 1530TIP3    H126005   5.060   6.466  14.456  0.1264 -0.5230 -0.6771
 1530TIP3    H226006   5.067   6.495  14.308  0.5258 -0.7737 -0.7088
 1531TIP3   OH226007   3.717   1.172  15.502  0.3898 -0.2961 -0.0179
 1531TIP3    H126008   3.671   1.096  15.466 -0.4991 -0.1328  0.7486
 1531TIP3    H226009   3.650   1.239  15.512  1.2115  0.6744 -0.8735
 1532TIP3   OH226010   4.201   6.746   6.691 -0.1503  0.3529 -0.3698
 1532TIP3    H126011   4.292   6.764   6.714  0.0354  0.0655 -0.8720
 1532TIP3    H226012   4.168   6.830   6.657 -0.0202  0.4082 -0.3586
 1533TIP3   OH226013   0.623   2.335   5.074  0.2963 -0.0670 -0.3194
 1533TIP3    H126014   0.602   2.377   4.991  1.1318 -0.6548 -0.8438
 1533TIP3    H226015   0.562   2.262   5.081  0.5028 -0.2722 -0.6315
 1534TIP3   OH226016   4.886   5.002  13.637  0.3942  0.4545  0.5230
 1534TIP3    H126017   4.921   4.914  13.650  0.1117  0.3037  0.2908
 1534TIP3    H226018   4.938   5.058  13.694  1.7655  0.4276 -0.6552
 1535TIP3   OH226019   0.553   6.138  16.675 -0.5171  0.0453  0.3093
 1535TIP3    H126020   0.560   6.135  16.770 -1.1856 -0.1711  0.3589
 1535TIP3    H226021   0.522   6.050  16.650  1.0353 -0.3832 -0.2466
 1536TIP3   OH226022   0.737   0.368   1.218 -0.0264 -0.7351 -0.2968
 1536TIP3    H126023   0.744   0.413   1.302 -0.6540 -0.6977 -0.2636
 1536TIP3    H226024   0.709   0.279   1.241 -0.0479 -0.7690 -0.4538
 1537TIP3   OH226025   3.235   3.303  12.253 -0.6837 -0.0223 -0.5195
 1537TIP3    H126026   3.276   3.218  12.271 -1.9005 -0.8928 -1.6837
 1537TIP3    H226027   3.197   3.294  12.166  0.1490  2.1390 -1.1831
 1538TIP3   OH226028   0.742   4.986   6.038  0.1688  0.1586 -0.9602
 1538TIP3    H126029   0.707   5.065   5.997  0.5683  0.8241 -0.0566
 1538TIP3    H226030   0.798   5.018   6.109  1.3150 -0.9002 -1.3381
 1539TIP3   OH226031   3.767   2.270  16.457  0.2739 -0.6459  0.4068
 1539TIP3    H126032   3.712   2.346  16.432  0.0429 -0.5202  1.2803
 1539TIP3    H226033   3.854   2.293  16.425  0.4527  0.5053  1.6365
 1540TIP3   OH226034   0.156   1.536  16.870 -0.0365  0.3093  0.1259
 1540TIP3    H126035   0.179   1.552  16.779  1.6698  0.9343  0.6192
 1540TIP3    H226036   0.179   1.617  16.916 -0.1121 -0.2613  1.2187
 1541TIP3   OH226037   0.581   5.865  14.550  0.6928  0.6274  0.2666
 1541TIP3    H126038   0.599   5.895  14.461  0.3806 -0.9984 -0.3871
 1541TIP3    H226039   0.594   5.942  14.605  0.1086  1.8752 -1.2740
 1542TIP3   OH226040   1.808   5.349   6.012 -0.5909  0.0255 -0.0775
 1542TIP3    H126041   1.809   5.259   5.981 -0.6656 -0.0822  0.2244
 1542TIP3    H226042   1.800   5.341   6.108  0.3856  0.3315  0.0380
 1543TIP3   OH226043   0.141   6.475   5.622 -0.7644 -0.4150  1.0127
 1543TIP3    H126044   0.074   6.542   5.638 -0.9715 -0.3924  0.1021
 1543TIP3    H226045   0.211   6.497   5.684 -1.5980 -0.4535  1.9908
 1544TIP3   OH226046   1.845   4.658   5.065  0.5595 -0.1944  0.3695
 1544TIP3    H126047   1.772   4.687   5.119  1.0169 -0.0289  0.9111
 1544TIP3    H226048   1.809   4.654   4.977  0.2782  1.2972  0.3982
 1545TIP3   OH226049   1.295   3.598  15.427 -0.2058 -0.4366 -0.4425
 1545TIP3    H126050   1.340   3.666  15.376 -1.4271  1.7244  1.1864
 1545TIP3    H226051   1.355   3.581  15.500  0.1761 -1.3027 -0.9379
 1546TIP3   OH226052   3.263   1.339  16.704  0.2353  0.4183  0.2358
 1546TIP3    H126053   3.288   1.431  16.698 -0.1219  0.4961 -0.1792
 1546TIP3    H226054   3.266   1.308  16.613  0.5194 -0.0225  0.3974
 1547TIP3   OH226055   2.649   3.302  12.655  0.5979 -0.3586 -0.1043
 1547TIP3    H126056   2.608   3.351  12.727  1.0236 -0.5597  0.2820
 1547TIP3    H226057   2.631   3.210  12.676  0.3529 -0.4009 -0.4881
 1548TIP3   OH226058   3.270   2.579  14.294 -0.4626 -0.0328 -0.2569
 1548TIP3    H126059   3.194   2.618  14.250 -0.9700  2.5164  2.5232
 1548TIP3    H226060   3.343   2.636  14.270  0.2830 -1.4078 -1.4397
 1549TIP3   OH226061   4.028   3.268   3.131 -0.2201  0.3498  0.0480
 1549TIP3    H126062   4.055   3.193   3.078 -1.2064 -0.3803  0.5573
 1549TIP3    H226063   4.082   3.262   3.210  0.4541  0.8024 -0.3606
 1550TIP3   OH226064   5.661   5.914  14.538  0.6234  0.3678 -0.1438
 1550TIP3    H126065   5.742   5.874  14.505  1.6016  0.9814  1.3850
 1550TIP3    H226066   5.636   5.860  14.613  0.8828  1.4343  0.7516
 1551TIP3   OH226067   6.420   6.320   4.300 -0.4575  0.2375  0.1825
 1551TIP3    H126068   6.467   6.389   4.346  1.1078 -1.1032  0.6733
 1551TIP3    H226069   6.464   6.312   4.215 -0.5121 -0.2579  0.1953
 1552TIP3   OH226070   2.367   2.625   2.614  0.3284  0.0265  0.1644
 1552TIP3    H126071   2.439   2.580   2.570 -0.8467 -0.2550 -1.5869
 1552TIP3    H226072   2.407   2.704   2.651  1.6051 -0.3436 -0.3634
 1553TIP3   OH226073   0.877   0.040   2.069  0.3215  0.7090  0.0160
 1553TIP3    H126074   0.871   0.001   1.982 -0.4993 -0.6124  0.6375
 1553TIP3    H226075   0.964   0.081   2.070  0.7819 -0.1743 -1.0473
 1554TIP3   OH226076   1.723   6.718   1.609 -0.1525  0.4459  0.3791
 1554TIP3    H126077   1.735   6.695   1.701  1.5830  2.0970  0.6446
 1554TIP3    H226078   1.719   6.814   1.608 -0.5056  0.4584 -1.2333
 1555TIP3   OH226079   2.502   4.136   0.220  0.4770 -0.3520 -0.1900
 1555TIP3    H126080   2.566   4.198   0.184  0.3131 -0.2631 -0.3323
 1555TIP3    H226081   2.509   4.148   0.315  0.2773  0.0622 -0.2235
 1556TIP3   OH226082   3.522   4.441   2.514 -0.6307  0.1553  0.1549
 1556TIP3    H126083   3.610   4.419   2.484 -1.2724 -2.0587 -0.2952
 1556TIP3    H226084   3.523   4.420   2.608 -0.2547  1.6572  0.5096
 1557TIP3   OH226085   5.149   1.279  14.202  0.6619 -0.2367  0.3423
 1557TIP3    H126086   5.142   1.200  14.256  5.6704 -0.8532  0.5370
 1557TIP3    H226087   5.145   1.246  14.112 -0.6997 -0.1557  0.3524
 1558TIP3   OH226088   4.463   0.496   1.696 -0.4698 -1.0019  0.4553
 1558TIP3    H126089   4.368   0.506   1.702 -0.4566 -1.0726  0.7837
 1558TIP3    H226090   4.479   0.476   1.604 -0.5451  1.5217 -0.1987
 1559TIP3   OH226091   2.078   0.772  11.413 -0.1076  0.0896 -0.0612
 1559TIP3    H126092   2.075   0.679  11.390 -0.3100  0.2371 -0.6521
 1559TIP3    H226093   2.166   0.786  11.447  0.9687  0.2785 -2.6685
 1560TIP3   OH226094   3.254   1.678   1.347  0.2660 -0.0540 -0.0815
 1560TIP3    H126095   3.219   1.697   1.434 -0.4086 -2.6163  0.2833
 1560TIP3    H226096   3.348   1.664   1.361  0.4295  0.9845 -0.0513
 1561TIP3   OH226097   5.076   1.773  15.295  0.3639 -0.1020 -0.0121
 1561TIP3    H126098   5.127   1.730  15.364 -0.6782 -1.2496  0.0966
 1561TIP3    H226099   5.012   1.706  15.269 -0.4316  0.9484 -0.8113
 1562TIP3   OH226100   3.130   3.622   5.565 -0.5753  0.4286 -0.1759
 1562TIP3    H126101   3.212   3.650   5.524  0.2575 -0.9657  0.4506
 1562TIP3    H226102   3.116   3.533   5.532 -2.0780  0.7995 -0.5934
 1563TIP3   OH226103   2.605   4.152  13.720 -0.1504 -0.2365  0.2597
 1563TIP3    H126104   2.689   4.199  13.718 -0.1765 -0.1486 -2.2262
 1563TIP3    H226105   2.627   4.066  13.757  0.8221  0.1229  0.5609
 1564TIP3   OH226106   4.156   2.086  11.597  0.1104 -0.0364  0.1076
 1564TIP3    H126107   4.187   1.995  11.595 -0.2603 -0.1595 -1.2070
 1564TIP3    H226108   4.112   2.097  11.512 -1.1080  0.9247  0.8451
 1565TIP3   OH226109   0.474   4.713   0.305  1.1522  0.0176  0.1570
 1565TIP3    H126110   0.567   4.726   0.325  0.9243  0.8742  0.7681
 1565TIP3    H226111   0.441   4.660   0.378  1.5113 -1.8561 -0.9720
 1566TIP3   OH226112   2.265   3.123   5.535  0.2466  0.1814 -0.0439
 1566TIP3    H126113   2.194   3.107   5.597 -0.3209  1.7035 -0.2556
 1566TIP3    H226114   2.281   3.218   5.541  0.1791  0.3696 -2.1815
 1567TIP3   OH226115   1.108   2.588   2.129  0.4401  0.8152  0.1803
 1567TIP3    H126116   1.086   2.499   2.102  2.1488  0.4111 -0.0270
 1567TIP3    H226117   1.157   2.577   2.211  2.4144  1.3405 -0.8535
 1568TIP3   OH226118   0.476   3.813  11.400  0.7293 -0.6926 -0.3701
 1568TIP3    H126119   0.420   3.736  11.388  0.0323 -0.4033  0.8375
 1568TIP3    H226120   0.431   3.883  11.351  1.2318 -0.9742 -1.2584
 1569TIP3   OH226121   2.244   0.359   2.868  0.0831  0.2649  0.2066
 1569TIP3    H126122   2.158   0.390   2.840  0.5159  0.3770 -1.1052
 1569TIP3    H226123   2.297   0.439   2.874  0.0001  0.2396  1.4046
 1570TIP3   OH226124   5.294   0.637   0.129  0.3057  0.8914 -0.0498
 1570TIP3    H126125   5.325   0.680   0.049 -0.6609  0.4598 -0.6797
 1570TIP3    H226126   5.199   0.637   0.120  0.2209  0.1788  0.7567
 1571TIP3   OH226127   1.775   5.176   3.703  0.3413  0.3007  0.6711
 1571TIP3    H126128   1.871   5.166   3.708  0.3267 -0.5806 -0.3823
 1571TIP3    H226129   1.759   5.268   3.724  1.3948  0.3813  1.1911
 1572TIP3   OH226130   2.700   5.659   5.320 -0.2257 -0.5603 -0.1898
 1572TIP3    H126131   2.609   5.689   5.325  0.3698  1.4165 -0.1990
 1572TIP3    H226132   2.735   5.673   5.407  1.2202  2.9953 -1.1550
 1573TIP3   OH226133   3.718   5.120  14.053  0.0603 -0.3613  0.5687
 1573TIP3    H126134   3.694   5.124  14.146  0.4406 -1.2228  0.7171
 1573TIP3    H226135   3.692   5.032  14.026 -1.2424  0.3215 -0.4894
 1574TIP3   OH226136   0.470   2.410   1.438 -0.3268  0.0073 -0.3619
 1574TIP3    H126137   0.434   2.363   1.514  1.3918  0.4065  0.7560
 1574TIP3    H226138   0.395   2.458   1.402 -1.0908  0.2149  1.3989
 1575TIP3   OH226139   1.561   1.555   1.576  0.3285  0.4373 -0.0960
 1575TIP3    H126140   1.482   1.506   1.601 -0.7764  2.0572 -0.2727
 1575TIP3    H226141   1.626   1.487   1.557 -1.0562 -0.9565 -0.0609
 1576TIP3   OH226142   4.417   6.678  12.964  0.1140 -0.1414 -0.2211
 1576TIP3    H126143   4.357   6.694  12.891 -1.2106 -0.9362  0.6390
 1576TIP3    H226144   4.364   6.695  13.043  1.2665 -0.0610  0.5594
 1577TIP3   OH226145   6.133   5.994  13.719 -0.1773 -0.6136 -0.8449
 1577TIP3    H126146   6.128   6.089  13.730  0.7284 -0.5884 -0.6206
 1577TIP3    H226147   6.225   5.972  13.734 -0.6854 -1.7570  0.8154
 1578TIP3   OH226148   2.331   3.646   6.942  0.8617  0.3807  0.7062
 1578TIP3    H126149   2.252   3.669   6.990  0.4004 -0.7738  0.5127
 1578TIP3    H226150   2.401   3.651   7.007  0.6507  1.4642  0.8636
 1579TIP3   OH226151   1.502   4.782  16.440 -0.0005  0.2101 -0.2928
 1579TIP3    H126152   1.490   4.700  16.489  0.9764  0.4086  0.3159
 1579TIP3    H226153   1.447   4.845  16.485 -0.8420 -0.1273 -0.8296
 1580TIP3   OH226154   2.686   2.321  13.124  0.0923  0.2914 -0.4569
 1580TIP3    H126155   2.684   2.311  13.219 -1.0371 -0.9101 -0.5795
 1580TIP3    H226156   2.755   2.385  13.108 -0.9281  1.9440  1.3004
 1581TIP3   OH226157   4.627   1.603  12.470  0.4913  0.2414  0.1864
 1581TIP3    H126158   4.538   1.623  12.440  0.3004 -0.0017  0.5794
 1581TIP3    H226159   4.668   1.689  12.480  1.1292  0.2954 -2.4045
 1582TIP3   OH226160   2.512   6.668   0.973 -0.1653 -0.3346  0.2888
 1582TIP3    H126161   2.601   6.700   0.958  0.3898  1.2189  5.0373
 1582TIP3    H226162   2.522   6.574   0.985  1.4166  0.0331  2.7369
 1583TIP3   OH226163   5.809   0.035   4.624 -0.4433 -0.2093 -0.4151
 1583TIP3    H126164   5.897   0.068   4.643 -0.5501  0.1282 -0.5008
 1583TIP3    H226165   5.814   0.005   4.533 -0.1898 -0.9593 -0.1568
 1584TIP3   OH226166   3.508   3.532  15.750 -0.1101  0.2163  0.3113
 1584TIP3    H126167   3.537   3.477  15.677  0.5391  0.4188  0.4099
 1584TIP3    H226168   3.532   3.482  15.828 -1.3521 -0.2783  0.3919
 1585TIP3   OH226169   3.266   0.662  13.350  0.0590  0.5090  0.8826
 1585TIP3    H126170   3.304   0.698  13.270 -0.0250 -1.8618 -0.3115
 1585TIP3    H226171   3.341   0.629  13.400 -0.0705 -0.6664  0.3453
 1586TIP3   OH226172   1.791   6.198   0.999  0.3658 -0.5401 -0.3532
 1586TIP3    H126173   1.855   6.170   0.934  0.4137 -2.3695  0.4116
 1586TIP3    H226174   1.798   6.133   1.069 -2.6354 -1.1200 -0.4440
 1587TIP3   OH226175   4.085   6.320  11.233  0.1687 -0.5165 -0.1393
 1587TIP3    H126176   4.109   6.399  11.184  0.1162  0.0949  0.7768
 1587TIP3    H226177   3.995   6.302  11.207  0.2053 -0.3202 -0.4104
 1588TIP3   OH226178   0.360   3.604  13.708  0.1065 -0.2077  0.4352
 1588TIP3    H126179   0.446   3.562  13.706  0.6213  0.8447 -1.2403
 1588TIP3    H226180   0.337   3.608  13.801  1.6279 -0.9487  0.8654
 1589TIP3   OH226181   4.508   1.516  11.241 -0.3621 -0.3366  0.4979
 1589TIP3    H126182   4.574   1.585  11.238 -0.8082  0.0893  0.3590
 1589TIP3    H226183   4.470   1.523  11.329 -2.5174  1.6285 -0.4661
 1590TIP3   OH226184   2.217   5.933  15.011  0.6069  0.6531  0.3969
 1590TIP3    H126185   2.138   5.905  15.058  0.2485  2.0853  0.6940
 1590TIP3    H226186   2.212   5.889  14.926 -0.5453  0.7727  0.3943
 1591TIP3   OH226187   5.590   6.704   5.831  0.3126 -0.2981 -0.2064
 1591TIP3    H126188   5.599   6.630   5.771  0.4658 -1.4307  1.1561
 1591TIP3    H226189   5.664   6.760   5.812  1.3922 -1.5632  0.1438
 1592TIP3   OH226190   1.609   1.373  10.937  0.0579  0.4912  0.7823
 1592TIP3    H126191   1.633   1.291  10.979  1.5819  2.4095  4.0494
 1592TIP3    H226192   1.515   1.382  10.955 -0.5249 -1.2433 -1.1108
 1593TIP3   OH226193   5.623   4.425  16.640  0.2485 -0.3534 -0.1972
 1593TIP3    H126194   5.643   4.406  16.548  2.4059  1.0733 -0.0975
 1593TIP3    H226195   5.537   4.467  16.638  0.6934  0.5587 -1.7111
 1594TIP3   OH226196   0.165   1.409   3.783  0.0799 -0.0406  0.3098
 1594TIP3    H126197   0.232   1.433   3.718  0.7167 -0.0327  0.9634
 1594TIP3    H226198   0.177   1.314   3.795  0.3643  0.0676  0.8683
 1595TIP3   OH226199   3.577   0.235   1.370 -0.2985  0.1882  0.1534
 1595TIP3    H126200   3.641   0.170   1.399 -1.5203 -1.0110  0.2595
 1595TIP3    H226201   3.544   0.274   1.450 -1.6994 -1.1968  0.2989
 1596TIP3   OH226202   6.361   4.857   2.619  0.4369  0.1037 -0.0031
 1596TIP3    H126203   6.436   4.865   2.678 -0.2006 -0.7359  0.9582
 1596TIP3    H226204   6.287   4.886   2.671 -0.5324 -2.9473  0.5272
 1597TIP3   OH226205   1.888   3.946  17.343  0.0489 -0.2679 -0.3537
 1597TIP3    H126206   1.810   3.958  17.397 -0.3622 -0.7784 -0.8221
 1597TIP3    H226207   1.915   4.035  17.320  0.2101 -0.0423  0.6478
 1598TIP3   OH226208   4.164   5.603  17.343 -0.0288  0.6109 -0.0591
 1598TIP3    H126209   4.099   5.582  17.276  0.0077 -0.9950  0.3758
 1598TIP3    H226210   4.120   5.665  17.401 -0.9270  0.0921 -0.1698
 1599TIP3   OH226211   5.915   5.081   1.551  0.6802  0.1020 -0.2894
 1599TIP3    H126212   5.937   5.168   1.586 -0.7231  0.2873  0.2051
 1599TIP3    H226213   5.921   5.023   1.627 -2.8952  0.5910  0.5615
 1600TIP3   OH226214   4.813   2.643   4.923  0.2996  0.0260  0.1356
 1600TIP3    H126215   4.893   2.668   4.969  0.1479  0.9737 -0.0907
 1600TIP3    H226216   4.844   2.591   4.848  0.7037  0.3163  0.0956
 1601TIP3   OH226217   4.351   1.888  16.787 -0.0963 -0.1517  0.5205
 1601TIP3    H126218   4.395   1.960  16.832  1.0131  0.0982 -0.8789
 1601TIP3    H226219   4.417   1.818  16.784  0.3873  0.2959 -1.7718
 1602TIP3   OH226220   4.056   2.033  15.305 -0.5315 -0.0070 -0.1999
 1602TIP3    H126221   4.090   2.064  15.221 -1.3253  1.3683 -0.0346
 1602TIP3    H226222   4.134   2.023  15.360 -0.1075  0.0882 -0.7751
 1603TIP3   OH226223   5.222   6.656  13.403 -0.4855 -0.0062 -0.0483
 1603TIP3    H126224   5.211   6.583  13.342 -2.0025  1.5501 -1.7510
 1603TIP3    H226225   5.316   6.674  13.401 -0.4853  0.0546 -2.0972
 1604TIP3   OH226226   1.787   0.804  16.252  0.4198 -0.3897 -0.1216
 1604TIP3    H126227   1.749   0.875  16.201 -1.8113 -0.7942  0.8315
 1604TIP3    H226228   1.778   0.832  16.343  1.5893 -0.9259  0.1709
 1605TIP3   OH226229   1.166   3.234  16.616 -0.5862 -0.0185 -0.2316
 1605TIP3    H126230   1.214   3.275  16.688 -1.8766  0.1207  0.5831
 1605TIP3    H226231   1.113   3.305  16.579 -0.2619 -0.1902 -1.0384
 1606TIP3   OH226232   3.117   3.804   5.889  0.0125  0.4988  0.5784
 1606TIP3    H126233   3.153   3.892   5.901  1.2509  0.0884  0.0274
 1606TIP3    H226234   3.042   3.801   5.949 -0.2940  2.0516  0.3337
 1607TIP3   OH226235   4.249   2.608  14.818 -0.4202  0.1684 -0.0649
 1607TIP3    H126236   4.205   2.540  14.869  2.1360 -0.7980  0.9915
 1607TIP3    H226237   4.264   2.569  14.732  0.4873 -0.3928  0.3412
 1608TIP3   OH226238   1.456   1.634   5.538 -0.0142  0.0191  0.0851
 1608TIP3    H126239   1.407   1.592   5.608  0.1718  0.3220  0.4018
 1608TIP3    H226240   1.404   1.711   5.515 -0.3499 -0.3710 -0.4875
 1609TIP3   OH226241   6.469   2.362   3.808 -0.0300 -0.2863 -0.3978
 1609TIP3    H126242   6.508   2.399   3.887  0.7776 -1.3042 -0.2877
 1609TIP3    H226243   6.403   2.301   3.840 -2.4944  2.1272 -0.5957
 1610TIP3   OH226244   4.428   5.190  11.577 -0.2133  0.3807  0.1412
 1610TIP3    H126245   4.398   5.263  11.523 -3.0521 -0.8998 -0.1807
 1610TIP3    H226246   4.362   5.182  11.646  0.7063 -1.0990  0.9114
 1611TIP3   OH226247   3.885   2.677   1.987  0.0590  0.0745  0.0247
 1611TIP3    H126248   3.921   2.613   1.926 -0.6611  0.0672 -0.4049
 1611TIP3    H226249   3.808   2.634   2.024 -0.5350  0.7430 -0.3971
 1612TIP3   OH226250   2.496   0.053  14.336  0.2485  0.7368 -0.2197
 1612TIP3    H126251   2.444   0.133  14.341 -1.7562 -0.5651  1.7508
 1612TIP3    H226252   2.480   0.019  14.247  0.0871  1.8125 -0.6177
 1613TIP3   OH226253   4.332   3.849  11.247  0.1360 -0.5144  0.2665
 1613TIP3    H126254   4.307   3.937  11.219  1.1918 -0.4884 -0.7153
 1613TIP3    H226255   4.391   3.819  11.177  1.6904 -1.0637  1.7502
 1614TIP3   OH226256   4.180   6.179   0.711 -0.0049  0.1889  0.4741
 1614TIP3    H126257   4.151   6.089   0.695 -1.3025  1.1037 -3.5784
 1614TIP3    H226258   4.101   6.225   0.738  0.3299  0.4281  1.0635
 1615TIP3   OH226259   4.022   6.582   6.548 -0.2002  0.3436 -0.6086
 1615TIP3    H126260   4.086   6.609   6.615  1.2265 -1.6368 -1.0644
 1615TIP3    H226261   3.941   6.625   6.574  0.8608  1.4678  1.0905
 1616TIP3   OH226262   1.982   5.548   3.113 -0.6800  0.0230  0.7081
 1616TIP3    H126263   1.887   5.549   3.102 -0.5043 -0.3990 -1.0552
 1616TIP3    H226264   2.014   5.617   3.055  0.0646  0.8854  2.0618
 1617TIP3   OH226265   0.277   5.715   0.521  0.2690 -0.3147 -0.4234
 1617TIP3    H126266   0.282   5.807   0.547 -0.7141 -0.7626  1.5881
 1617TIP3    H226267   0.366   5.681   0.532  0.4560  0.1859 -0.3810
 1618TIP3   OH226268   2.771   0.289  11.481  0.1818  0.2242  0.3906
 1618TIP3    H126269   2.723   0.278  11.563  0.7223  0.5413  0.7574
 1618TIP3    H226270   2.703   0.303  11.415 -0.2005  1.7266  1.0696
 1619TIP3   OH226271   2.577   4.082  12.654 -0.1628 -0.0740 -0.0305
 1619TIP3    H126272   2.546   4.008  12.705 -0.6985  0.2623  0.1389
 1619TIP3    H226273   2.561   4.159  12.709  0.7229  0.1372 -0.0541
 1620TIP3   OH226274   5.781   6.469  15.116 -0.7072  0.1572  0.4469
 1620TIP3    H126275   5.687   6.453  15.105 -0.5927  1.1380 -2.9285
 1620TIP3    H226276   5.821   6.383  15.101 -0.9635  0.1784 -0.3938
 1621TIP3   OH226277   1.657   6.675  14.846  0.2841  0.8799 -0.5360
 1621TIP3    H126278   1.718   6.605  14.825 -2.5491 -1.6511 -0.9823
 1621TIP3    H226279   1.658   6.680  14.942  1.6090  1.3641 -0.5519
 1622TIP3   OH226280   3.458   5.159   0.444 -0.2609  0.7212 -0.4679
 1622TIP3    H126281   3.507   5.083   0.410 -0.4242  1.8913 -3.7196
 1622TIP3    H226282   3.400   5.122   0.510  1.3964 -1.5607 -0.1479
 1623TIP3   OH226283   0.976   2.949   5.400 -0.3378  0.4426 -0.2229
 1623TIP3    H126284   0.970   2.857   5.423 -1.8549  0.6446  0.2907
 1623TIP3    H226285   0.969   2.952   5.305 -1.1656  0.0830 -0.1753
 1624TIP3   OH226286   5.917   3.038  11.434  0.0457 -0.4456 -0.0972
 1624TIP3    H126287   5.962   3.056  11.352 -0.3130  0.6488 -0.0640
 1624TIP3    H226288   5.827   3.065  11.419 -0.1910 -0.9056  0.4350
 1625TIP3   OH226289   0.429   0.597  12.262 -0.1600 -0.7100 -0.2005
 1625TIP3    H126290   0.351   0.631  12.307 -0.1472  0.2647 -0.8853
 1625TIP3    H226291   0.490   0.671  12.262 -0.2055 -0.6343 -1.9248
 1626TIP3   OH226292   6.614   1.225   5.574  0.0343  0.0874  0.2729
 1626TIP3    H126293   6.687   1.172   5.543  0.9180  1.3390  0.1435
 1626TIP3    H226294   6.608   1.296   5.511 -1.3432 -0.0234  0.2594
 1627TIP3   OH226295   2.227   5.677  13.808  0.1088  0.3162  0.2778
 1627TIP3    H126296   2.255   5.588  13.831 -0.5340  0.0249 -0.0360
 1627TIP3    H226297   2.133   5.677  13.823  0.0977  0.9424  0.2406
 1628TIP3   OH226298   3.577   0.947  16.901 -0.3877  0.1544  0.2851
 1628TIP3    H126299   3.518   1.006  16.852  0.6929  1.9594  1.0494
 1628TIP3    H226300   3.541   0.946  16.989 -0.0663  0.1464  0.4168
 1629TIP3   OH226301   5.061   0.795   0.375  0.4021  0.4002  1.1775
 1629TIP3    H126302   5.013   0.783   0.457 -2.3744 -0.7556 -0.4618
 1629TIP3    H226303   5.001   0.844   0.319  1.0240 -1.1707 -1.0131
 1630TIP3   OH226304   2.829   2.616   1.176  0.3050  0.2385  0.3140
 1630TIP3    H126305   2.749   2.608   1.124  0.2275 -1.8913  0.6904
 1630TIP3    H226306   2.895   2.566   1.129  1.8102  2.8312 -0.5544
 1631TIP3   OH226307   4.648   4.310   4.400 -0.5653  0.0853  0.3766
 1631TIP3    H126308   4.647   4.264   4.316 -0.5223 -0.0203  0.4341
 1631TIP3    H226309   4.675   4.400   4.378 -0.4479  0.0299  0.2917
 1632TIP3   OH226310   0.209   6.274  11.231 -0.0082 -0.4043  0.1397
 1632TIP3    H126311   0.230   6.222  11.309 -0.8287  0.9258  1.2828
 1632TIP3    H226312   0.240   6.220  11.158  0.5194 -1.8194  1.3517
 1633TIP3   OH226313   1.010   4.827   5.720  0.0637 -1.1068  0.7053
 1633TIP3    H126314   0.914   4.833   5.717  0.1532  1.9360 -1.6816
 1633TIP3    H226315   1.033   4.862   5.806 -0.9706 -0.2261  0.6559
 1634TIP3   OH226316   2.067   1.569   3.083  0.2994  0.3270 -0.2232
 1634TIP3    H126317   2.055   1.579   2.988 -1.3821 -1.8493 -0.3315
 1634TIP3    H226318   2.135   1.633   3.106 -1.2948  3.0278 -2.3748
 1635TIP3   OH226319   0.325   4.568   3.604  0.3362  0.2215 -0.5003
 1635TIP3    H126320   0.232   4.570   3.626  0.3704  0.9128 -0.3816
 1635TIP3    H226321   0.333   4.501   3.537 -0.1298 -0.3612  0.0117
 1636TIP3   OH226322   6.065   1.650  11.393 -0.6049 -0.4290 -0.3158
 1636TIP3    H126323   6.105   1.647  11.306  0.4475 -1.5928  0.1867
 1636TIP3    H226324   6.134   1.684  11.450 -1.0702 -0.3268  0.1947
 1637TIP3   OH226325   5.559   1.657   1.421  0.1049 -0.3630  0.3169
 1637TIP3    H126326   5.570   1.562   1.414 -1.5661 -0.6502  1.0802
 1637TIP3    H226327   5.612   1.692   1.350  0.4889 -1.8905 -0.1991
 1638TIP3   OH226328   4.697   3.072   5.952  0.4916  0.4019 -0.0195
 1638TIP3    H126329   4.767   3.062   5.887  2.1660  1.1688  1.5849
 1638TIP3    H226330   4.737   3.122   6.023 -1.1559 -0.7257  1.7973
 1639TIP3   OH226331   6.213   0.282  17.242 -0.0053 -0.3463  0.5319
 1639TIP3    H126332   6.257   0.367  17.250  3.1889 -1.5983 -1.6291
 1639TIP3    H226333   6.160   0.290  17.163  0.5383 -0.4313  0.1537
 1640TIP3   OH226334   3.107   3.351  17.028 -0.6318 -0.7984 -0.7881
 1640TIP3    H126335   3.103   3.273  16.973 -1.5983 -0.7796 -0.7585
 1640TIP3    H226336   3.057   3.417  16.981 -0.1483 -0.3071 -0.6260
 1641TIP3   OH226337   0.005   3.707   5.026  0.1425  0.1744 -0.4619
 1641TIP3    H126338   0.050   3.791   5.030 -3.9644  2.5668  1.2152
 1641TIP3    H226339  -0.031   3.703   4.937  1.8008 -0.8067 -1.1448
 1642TIP3   OH226340   6.418   5.366  13.419  0.6351 -0.5830  0.2234
 1642TIP3    H126341   6.349   5.328  13.473 -0.4674  0.0454 -0.6901
 1642TIP3    H226342   6.498   5.350  13.468 -0.0745 -1.9145  1.0126
 1643TIP3   OH226343   6.503   0.456  15.658 -0.3180 -0.0426  0.1851
 1643TIP3    H126344   6.505   0.497  15.745  2.6069  0.4819  0.0022
 1643TIP3    H226345   6.488   0.529  15.598  0.8732  0.1670  0.1085
 1644TIP3   OH226346   2.557   2.383   3.801  0.0307  0.2911  0.0072
 1644TIP3    H126347   2.584   2.292   3.795  1.1644  0.6160 -0.0083
 1644TIP3    H226348   2.467   2.379   3.834  0.8490 -0.7491  2.3147
 1645TIP3   OH226349   4.020   0.892  15.282 -0.5132 -0.0619 -0.0062
 1645TIP3    H126350   3.944   0.946  15.259  0.7986  1.5865 -0.6620
 1645TIP3    H226351   4.053   0.859  15.199 -0.6276 -0.9483  0.2939
 1646TIP3   OH226352   0.467   3.135   2.900  0.0545 -0.9251  0.3635
 1646TIP3    H126353   0.515   3.184   2.967  1.8118  0.6365 -1.8878
 1646TIP3    H226354   0.485   3.044   2.920  0.6258 -0.5046  1.9302
 1647TIP3   OH226355   3.856   3.193   3.556 -0.0210  0.4608  0.7122
 1647TIP3    H126356   3.941   3.236   3.554  0.9298 -1.3189  0.2476
 1647TIP3    H226357   3.877   3.100   3.569 -2.0090  0.2528  3.1062
 1648TIP3   OH226358   4.539   5.083  17.391 -0.4668 -0.2779  0.4922
 1648TIP3    H126359   4.602   5.063  17.321 -0.7534  1.8739 -0.4808
 1648TIP3    H226360   4.541   5.007  17.448  2.0719 -0.8268 -0.2023
 1649TIP3   OH226361   0.954   5.775  12.282 -0.1677 -0.0899  0.3714
 1649TIP3    H126362   0.941   5.706  12.348 -3.9364 -0.4064 -0.4411
 1649TIP3    H226363   0.949   5.857  12.331 -1.6654 -0.3491  0.6927
 1650TIP3   OH226364   5.579   4.701  12.096  0.0357 -0.0441  0.2754
 1650TIP3    H126365   5.498   4.653  12.109  0.6207 -1.8809 -2.1501
 1650TIP3    H226366   5.558   4.767  12.030  0.4225 -0.3284 -0.1409
 1651TIP3   OH226367   0.823   5.363  15.587  0.2029 -0.0045  0.4584
 1651TIP3    H126368   0.869   5.279  15.581 -1.1808 -0.8233  0.8099
 1651TIP3    H226369   0.854   5.413  15.511  2.0900 -0.2731  0.9980
 1652TIP3   OH226370   5.479   4.034   0.224  0.1460 -0.0422 -0.2953
 1652TIP3    H126371   5.552   4.083   0.186 -0.3754  1.6743  0.8265
 1652TIP3    H226372   5.479   3.951   0.176  3.3954 -0.5219  0.2730
 1653TIP3   OH226373   4.280   6.714   4.576 -0.3463  0.1621  0.4161
 1653TIP3    H126374   4.224   6.773   4.626  0.5383  0.6399  0.8486
 1653TIP3    H226375   4.270   6.629   4.620  1.1192  0.7658  1.9955
 1654TIP3   OH226376   3.489   4.214  17.322  0.0745 -0.6019  0.2575
 1654TIP3    H126377   3.579   4.183  17.317  0.5024  0.6530 -0.0664
 1654TIP3    H226378   3.438   4.145  17.279  0.8876 -1.2394  0.2882
 1655TIP3   OH226379   3.889   3.844  16.323  0.0653 -0.5739  0.2159
 1655TIP3    H126380   3.982   3.824  16.310  0.8788  1.3111  2.4754
 1655TIP3    H226381   3.881   3.937  16.302 -1.2789 -0.6588  0.2635
 1656TIP3   OH226382   4.297   0.769  15.538  0.1320 -0.8680  0.0025
 1656TIP3    H126383   4.228   0.822  15.577  0.8997  1.1461 -1.2180
 1656TIP3    H226384   4.378   0.814  15.560  0.8315 -1.5644 -1.0283
 1657TIP3   OH226385   5.075   0.054   3.470  0.0654  0.6570 -0.2516
 1657TIP3    H126386   5.140   0.079   3.404 -0.0868 -0.4005 -0.8136
 1657TIP3    H226387   5.099  -0.035   3.496 -1.2819  0.1625 -0.6265
 1658TIP3   OH226388   6.538   3.600  15.164  0.3702 -0.1086 -0.3314
 1658TIP3    H126389   6.496   3.683  15.188 -0.3824 -0.8086  0.8894
 1658TIP3    H226390   6.564   3.612  15.073  3.6687  2.8425  0.7613
 1659TIP3   OH226391   0.830   3.540  11.798 -0.1871  0.3995 -0.1295
 1659TIP3    H126392   0.897   3.484  11.837 -0.3831  1.0338  1.1419
 1659TIP3    H226393   0.878   3.597  11.738  0.0744 -0.7787 -1.0790
 1660TIP3   OH226394   2.876   0.068   0.062 -0.3121  0.1396 -0.7452
 1660TIP3    H126395   2.925   0.095   0.139  0.6789  1.1282 -1.6858
 1660TIP3    H226396   2.943   0.040  -0.000 -0.9317  1.3451 -1.9978
 1661TIP3   OH226397   3.476   0.684  16.270 -0.6724  0.6112 -0.5400
 1661TIP3    H126398   3.555   0.630  16.262 -0.3081  0.8572  0.9739
 1661TIP3    H226399   3.480   0.717  16.360 -2.7896  0.1891 -0.2498
 1662TIP3   OH226400   0.322   6.022   3.457  0.3875 -0.4070  0.2890
 1662TIP3    H126401   0.226   6.017   3.456  0.3954 -0.6082 -0.5640
 1662TIP3    H226402   0.342   6.102   3.505 -0.2283 -0.1248  0.0881
 1663TIP3   OH226403   5.548   0.351  14.165  0.1079  0.4999  0.2226
 1663TIP3    H126404   5.517   0.266  14.196 -0.2000  0.9762  1.2599
 1663TIP3    H226405   5.576   0.335  14.075  1.0952 -0.9498  0.7493
 1664TIP3   OH226406   0.056   4.068   5.652  0.0088 -0.3425  0.1062
 1664TIP3    H126407  -0.034   4.100   5.656 -0.5785 -1.7250 -1.0978
 1664TIP3    H226408   0.050   3.977   5.681  0.8058 -0.8221 -1.1592
 1665TIP3   OH226409   3.410   6.720   1.718 -0.5457  0.0227  0.0763
 1665TIP3    H126410   3.431   6.803   1.760  0.2207 -1.3269  2.5264
 1665TIP3    H226411   3.480   6.661   1.745 -1.7455 -1.7760 -0.5401
 1666TIP3   OH226412   0.208   5.052   2.336  0.1654 -0.0661 -0.1339
 1666TIP3    H126413   0.225   5.084   2.424 -0.8222  1.7833 -0.5731
 1666TIP3    H226414   0.294   5.054   2.293  0.1913  1.9751 -0.0885
 1667TIP3   OH226415   3.905   1.110   5.230  0.1107 -0.1487 -0.0924
 1667TIP3    H126416   3.869   1.090   5.317  1.1224  0.4507  0.4851
 1667TIP3    H226417   3.830   1.104   5.171 -0.9641  1.0939  1.0691
 1668TIP3   OH226418   5.791   0.504   6.498 -0.6852 -0.1110 -0.1744
 1668TIP3    H126419   5.883   0.515   6.523 -0.3854 -2.4777  0.0502
 1668TIP3    H226420   5.745   0.573   6.545  0.8262  0.2953  0.8015
 1669TIP3   OH226421   6.043   1.166  13.414  0.3596 -0.2989  0.0467
 1669TIP3    H126422   6.099   1.117  13.474  0.7581  2.0877  1.7390
 1669TIP3    H226423   6.104   1.216  13.360 -0.0621 -1.2033 -1.3315
 1670TIP3   OH226424   6.052   2.723  13.947  0.1581 -0.1052  0.2908
 1670TIP3    H126425   6.128   2.705  14.002 -0.9370 -0.3481  1.7681
 1670TIP3    H226426   6.054   2.818  13.935  1.0271 -0.1734 -0.2115
 1671TIP3   OH226427   4.111   1.179   4.793  0.4450 -0.1778 -0.3716
 1671TIP3    H126428   4.123   1.257   4.846  2.7432 -1.9491  1.9917
 1671TIP3    H226429   4.037   1.133   4.833  1.3176 -0.8528  0.5162
 1672TIP3   OH226430   4.087   1.443   5.977  0.0409 -0.1590 -0.8890
 1672TIP3    H126431   4.176   1.468   6.001 -0.1042  1.0526 -1.5619
 1672TIP3    H226432   4.034   1.467   6.053  0.2619 -0.7987 -0.5234
 1673TIP3   OH226433   3.537   1.028  17.285 -0.2988  0.4850 -0.4065
 1673TIP3    H126434   3.614   1.050  17.232 -0.9136  0.2017 -1.4313
 1673TIP3    H226435   3.543   1.087  17.361  1.2869  0.0057 -0.1207
 1674TIP3   OH226436   3.870   5.700  14.409  0.0430  0.5921 -0.4285
 1674TIP3    H126437   3.905   5.709  14.320 -0.9875  0.6734 -0.8313
 1674TIP3    H226438   3.921   5.763  14.461  0.3352  0.8727 -1.0492
 1675TIP3   OH226439   0.860   6.508   3.110 -0.4884  0.1442  0.3835
 1675TIP3    H126440   0.954   6.497   3.093 -0.8188 -1.6136 -0.5086
 1675TIP3    H226441   0.844   6.601   3.094  0.9299  0.2888 -0.3873
 1676TIP3   OH226442   5.740   5.741   2.085  0.7490 -0.5420  0.4124
 1676TIP3    H126443   5.703   5.801   2.020  3.5207  1.4517  0.4857
 1676TIP3    H226444   5.682   5.748   2.160  1.1735  2.4796  0.5621
 1677TIP3   OH226445   0.785   5.456   1.909 -0.1853 -0.2468  0.1758
 1677TIP3    H126446   0.762   5.365   1.926 -0.3525  0.1265  2.2570
 1677TIP3    H226447   0.758   5.472   1.818 -2.7387 -1.4919  0.6348
 1678TIP3   OH226448   6.187   3.552  15.799  0.0627 -0.2181  0.2403
 1678TIP3    H126449   6.113   3.581  15.747 -1.9021  1.7479  3.7820
 1678TIP3    H226450   6.262   3.600  15.763 -0.7589 -0.4580 -1.9160
 1679TIP3   OH226451   2.677   5.753  14.741  0.6885  0.4608  0.4748
 1679TIP3    H126452   2.757   5.736  14.792  0.6740  1.6571  0.9323
 1679TIP3    H226453   2.647   5.838  14.772 -0.8365 -0.0165  0.3810
 1680TIP3   OH226454   4.552   5.972   3.160 -0.0755 -0.3746 -0.9278
 1680TIP3    H126455   4.465   5.984   3.122 -1.3759  0.6083  2.0992
 1680TIP3    H226456   4.541   5.989   3.253  3.1555 -1.4009 -0.2157
 1681TIP3   OH226457   2.971   0.225   4.791  0.3727  0.1684 -0.1535
 1681TIP3    H126458   2.991   0.136   4.762  1.2960  0.3661 -0.1559
 1681TIP3    H226459   2.994   0.226   4.884  1.8493  0.8081 -0.4910
 1682TIP3   OH226460   5.311   1.402  11.192  0.2965  0.3906  0.3873
 1682TIP3    H126461   5.222   1.392  11.158  1.1102 -0.6748 -1.6049
 1682TIP3    H226462   5.326   1.322  11.243  0.0133  0.7494  1.0541
 1683TIP3   OH226463   2.172   2.070  17.267 -0.0947 -0.8946  0.2475
 1683TIP3    H126464   2.232   2.102  17.199 -1.3903 -0.8954 -0.9486
 1683TIP3    H226465   2.156   2.146  17.323  0.2764 -0.6484  0.0255
 1684TIP3   OH226466   0.028   2.166  13.074  0.2330  0.5829  0.2252
 1684TIP3    H126467   0.035   2.120  12.991 -0.7889  0.9836 -0.1018
 1684TIP3    H226468  -0.060   2.145  13.106  0.6099  0.4343  1.2089
 1685TIP3   OH226469   0.937   1.224   0.781  0.3633  0.0264 -0.4890
 1685TIP3    H126470   0.972   1.154   0.836 -1.0563 -0.3555 -0.0291
 1685TIP3    H226471   1.013   1.277   0.758  1.3159 -1.1054 -0.0318
 1686TIP3   OH226472   1.288   0.299  11.794 -0.3184 -0.3204  0.1220
 1686TIP3    H126473   1.331   0.342  11.719 -3.4279  0.5284 -1.3879
 1686TIP3    H226474   1.277   0.208  11.766  1.2315 -0.7725  0.9064
 1687TIP3   OH226475   1.104   2.187   5.800  0.0639  0.6874 -0.8620
 1687TIP3    H126476   1.045   2.250   5.842 -0.1794 -0.8953  1.3748
 1687TIP3    H226477   1.047   2.132   5.747 -0.0756  0.8935 -0.9241
 1688TIP3   OH226478   6.491   0.636   6.214  0.5931  0.1909 -0.2498
 1688TIP3    H126479   6.532   0.561   6.257 -0.4007 -0.4255 -0.3334
 1688TIP3    H226480   6.399   0.632   6.241  0.8963  2.6728  1.5216
 1689TIP3   OH226481   1.963   5.823   0.617  0.3422  0.0653  0.3576
 1689TIP3    H126482   2.020   5.808   0.541 -0.6129 -1.0699 -0.1607
 1689TIP3    H226483   1.883   5.775   0.597 -0.4611  0.8750  1.4873
 1690TIP3   OH226484   4.893   5.281  11.718 -0.3086  0.0517 -0.2322
 1690TIP3    H126485   4.936   5.363  11.742 -2.8155  1.8208 -1.4198
 1690TIP3    H226486   4.865   5.243  11.802  0.3144  0.6923  0.2789
 1691TIP3   OH226487   4.786   6.008   4.455  0.0339 -0.6278  0.1304
 1691TIP3    H126488   4.734   5.981   4.531  0.1489 -0.1980  0.3638
 1691TIP3    H226489   4.735   6.076   4.412  1.2919  1.3086  1.5408
 1692TIP3   OH226490   6.565   3.890  12.085 -0.4869 -0.2455  0.2164
 1692TIP3    H126491   6.505   3.964  12.088 -0.8625 -0.4033 -1.7920
 1692TIP3    H226492   6.533   3.836  12.013  0.0842 -2.1223  1.3070
 1693TIP3   OH226493   4.300   4.615  12.051  0.0788 -0.1713  0.2174
 1693TIP3    H126494   4.318   4.522  12.063  0.8504  0.2036  2.6125
 1693TIP3    H226495   4.383   4.652  12.020  0.4407  0.0117  1.3562
 1694TIP3   OH226496   2.832   0.024   1.262 -0.2065 -0.1646  0.4057
 1694TIP3    H126497   2.836  -0.057   1.211  1.5306 -0.5079  1.0117
 1694TIP3    H226498   2.901   0.015   1.328 -1.6883  0.7198  2.1715
 1695TIP3   OH226499   2.248   3.157  14.386 -0.4829 -0.0603  0.5288
 1695TIP3    H126500   2.167   3.142  14.435 -0.1109 -0.8854  0.9248
 1695TIP3    H226501   2.299   3.077  14.400  0.6855  0.7208  0.8516
 1696TIP3   OH226502   5.347   5.436  10.987  1.0887  0.4100  0.7181
 1696TIP3    H126503   5.339   5.358  10.932  0.0957  0.6852  0.4470
 1696TIP3    H226504   5.394   5.499  10.933 -0.9413  1.1071 -0.3395
 1697TIP3   OH226505   5.984   2.498  13.159 -0.4047  0.2875  0.3451
 1697TIP3    H126506   6.035   2.418  13.147 -0.4991  0.0930  1.1849
 1697TIP3    H226507   6.006   2.552  13.083 -1.9256 -1.3444 -1.3665
 1698TIP3   OH226508   4.477   2.942   6.301  0.3183  0.0671 -0.4604
 1698TIP3    H126509   4.547   2.877   6.307  1.4523  0.9405 -2.9543
 1698TIP3    H226510   4.397   2.891   6.311  1.2186 -1.2541  0.4669
 1699TIP3   OH226511   3.921   0.396   1.641 -0.0858  0.0316  0.2102
 1699TIP3    H126512   3.863   0.434   1.707  0.4560  0.4691  0.4377
 1699TIP3    H226513   3.870   0.397   1.560 -0.3347  0.5639  0.3743
 1700TIP3   OH226514   1.506   5.166  11.000 -0.0128  0.4937 -0.1435
 1700TIP3    H126515   1.492   5.080  11.039  1.7699  1.1037  2.0373
 1700TIP3    H226516   1.584   5.156  10.946 -0.4753  0.4858 -0.8207
 1701TIP3   OH226517   6.125   2.433  16.649  0.5070 -0.2755  0.0826
 1701TIP3    H126518   6.055   2.369  16.662  1.9665 -1.6172  1.8056
 1701TIP3    H226519   6.158   2.452  16.737  1.5530  1.2176 -0.5760
 1702TIP3   OH226520   2.359   5.729   2.257 -1.0108 -0.4444 -0.2024
 1702TIP3    H126521   2.312   5.674   2.319  0.1411 -0.6687  0.4985
 1702TIP3    H226522   2.442   5.684   2.243 -0.5229  0.5140 -0.5206
 1703TIP3   OH226523   6.748   3.165   3.124 -0.5177 -0.6145 -0.0692
 1703TIP3    H126524   6.668   3.218   3.124 -0.4807 -0.5582 -0.0744
 1703TIP3    H226525   6.758   3.137   3.215  0.2448  0.5851  0.2430
 1704TIP3   OH226526   0.552   3.557  11.217 -0.5880  0.0845  0.0154
 1704TIP3    H126527   0.475   3.596  11.257 -0.5792  1.3886 -1.1400
 1704TIP3    H226528   0.524   3.471  11.187 -0.8583 -0.4922  1.8709
 1705TIP3   OH226529   0.900   5.123  14.424  0.0434  0.1239 -0.2194
 1705TIP3    H126530   0.855   5.205  14.443 -0.8467  0.0565 -1.9066
 1705TIP3    H226531   0.992   5.141  14.447 -0.5101  0.7892  1.6693
 1706TIP3   OH226532   1.470   0.262  13.789  0.3254 -0.2350  0.3053
 1706TIP3    H126533   1.556   0.301  13.774 -1.5499  4.0367 -0.5621
 1706TIP3    H226534   1.444   0.292  13.876 -0.4867 -1.1915  0.4136
 1707TIP3   OH226535   3.846   5.338   1.320 -0.4313  0.4954  0.3391
 1707TIP3    H126536   3.798   5.371   1.243  1.5608  0.1459 -1.1231
 1707TIP3    H226537   3.875   5.251   1.294  2.6906  1.4398  0.3208
 1708TIP3   OH226538   5.276   2.881   4.671 -0.0607  0.2857 -0.0389
 1708TIP3    H126539   5.239   2.795   4.691 -0.5067 -0.0436 -2.1287
 1708TIP3    H226540   5.369   2.873   4.693 -0.0341 -0.8346 -0.5252
 1709TIP3   OH226541   5.151   6.547   3.450 -0.3141 -0.4263 -0.5694
 1709TIP3    H126542   5.193   6.464   3.427 -1.4383 -1.1778 -0.0089
 1709TIP3    H226543   5.099   6.570   3.373 -0.7223 -0.7351 -0.3936
 1710TIP3   OH226544   4.628   1.992  11.028 -0.3901 -0.2947 -0.2433
 1710TIP3    H126545   4.555   2.004  10.968  0.5062 -1.2442 -1.5949
 1710TIP3    H226546   4.588   1.965  11.110 -1.6809  1.3853 -0.2668
 1711TIP3   OH226547   3.053   5.511   4.856  0.4437 -0.0520 -0.3187
 1711TIP3    H126548   3.101   5.515   4.773  0.7811  0.9157 -0.0875
 1711TIP3    H226549   3.064   5.598   4.894  1.1138 -0.7844  1.2144
 1712TIP3   OH226550   4.573   1.498   4.630  0.1186  0.4518 -0.2436
 1712TIP3    H126551   4.627   1.571   4.601 -2.5470  2.5905 -0.2283
 1712TIP3    H226552   4.593   1.487   4.722  2.1392 -0.3983 -0.7329
 1713TIP3   OH226553   6.127   6.351  14.679 -0.5131  0.4509 -0.4231
 1713TIP3    H126554   6.031   6.349  14.683 -0.5880 -1.5910 -1.5791
 1713TIP3    H226555   6.155   6.301  14.755 -0.3770  0.6810 -0.3224
 1714TIP3   OH226556   2.146   3.134   4.228 -0.0300  0.3887  0.3546
 1714TIP3    H126557   2.070   3.190   4.244  0.0121  0.5834 -0.1178
 1714TIP3    H226558   2.216   3.173   4.280 -0.0221  0.7336  0.0930
 1715TIP3   OH226559   4.190   0.642   4.115 -0.4332  0.8555 -0.0720
 1715TIP3    H126560   4.149   0.726   4.137  0.3929  0.9767  1.1590
 1715TIP3    H226561   4.269   0.666   4.067 -1.1698  0.6714 -1.4325
 1716TIP3   OH226562   3.652   6.152   0.074  0.2008 -0.4059 -0.8965
 1716TIP3    H126563   3.617   6.238   0.052  0.0129 -0.2885 -0.1872
 1716TIP3    H226564   3.597   6.122   0.147 -0.3504 -1.5426 -1.7527
 1717TIP3   OH226565   5.961   5.389  16.464 -0.3854  0.1073 -0.5936
 1717TIP3    H126566   5.971   5.432  16.549  0.4437 -0.7609 -0.2296
 1717TIP3    H226567   5.968   5.460  16.400  0.4746  0.5842  0.0098
 1718TIP3   OH226568   1.344   3.225  16.041  0.2013 -0.2904  0.1140
 1718TIP3    H126569   1.294   3.245  15.961  0.1958  0.8078  0.3687
 1718TIP3    H226570   1.342   3.307  16.091  2.2941 -0.1883  0.1182
 1719TIP3   OH226571   1.877   0.637  14.155  0.1250 -0.9450  0.3212
 1719TIP3    H126572   1.914   0.657  14.069  1.0955  0.1253  0.9546
 1719TIP3    H226573   1.818   0.564  14.139 -0.5506 -0.0713 -1.4441
 1720TIP3   OH226574   5.826   6.197   2.978  0.0577  0.2296 -0.0269
 1720TIP3    H126575   5.857   6.286   2.994  1.3338 -0.1165 -0.4435
 1720TIP3    H226576   5.828   6.154   3.063  0.2502  0.3606  0.0340
 1721TIP3   OH226577   5.689   4.453   5.920 -0.1102 -0.3268 -0.2899
 1721TIP3    H126578   5.722   4.369   5.954 -1.1780 -0.2780  0.9471
 1721TIP3    H226579   5.755   4.517   5.947 -0.4388 -0.4398  0.8463
 1722TIP3   OH226580   0.672   2.205   6.430  0.2893 -0.2156 -0.9971
 1722TIP3    H126581   0.732   2.225   6.501 -1.5870  1.5913  0.1825
 1722TIP3    H226582   0.669   2.109   6.426  0.0439 -0.3775  1.7396
 1723TIP3   OH226583   0.705   2.502   4.429  0.1465 -0.2362 -0.0021
 1723TIP3    H126584   0.719   2.474   4.339  1.3215 -2.9816  0.9573
 1723TIP3    H226585   0.769   2.572   4.443 -0.8399  1.0575 -1.5717
 1724TIP3   OH226586   1.636   3.775  11.171  0.1182  0.9652  0.7084
 1724TIP3    H126587   1.605   3.864  11.183  1.5509  1.4262  1.2195
 1724TIP3    H226588   1.728   3.785  11.146 -0.1910 -0.3145 -1.1646
 1725TIP3   OH226589   5.465   4.135  16.148 -0.2048 -0.3299 -0.3323
 1725TIP3    H126590   5.500   4.213  16.105  0.5505 -0.0723  0.6896
 1725TIP3    H226591   5.411   4.170  16.219 -2.7750 -0.7174 -1.9680
 1726TIP3   OH226592   1.212   4.046   4.752 -0.5219 -0.9117  0.1109
 1726TIP3    H126593   1.291   4.074   4.706  0.1834 -0.9970  1.2145
 1726TIP3    H226594   1.147   4.113   4.733  0.0398 -0.4578 -0.2189
 1727TIP3   OH226595   5.297   5.077  14.973 -0.7713  0.2599 -0.3991
 1727TIP3    H126596   5.352   5.084  15.051 -0.4788  1.9497 -0.7245
 1727TIP3    H226597   5.225   5.019  15.000  0.1953 -0.5398  0.5822
 1728TIP3   OH226598   4.387   1.011  12.500  0.5110 -0.1913 -0.4273
 1728TIP3    H126599   4.410   0.918  12.503 -0.1281 -0.3395 -0.1043
 1728TIP3    H226600   4.378   1.031  12.407 -1.3753 -0.9656 -0.4430
 1729TIP3   OH226601   3.312   6.133   4.134  0.1250 -0.2317  0.2885
 1729TIP3    H126602   3.300   6.080   4.055 -2.1608  0.5877  0.0143
 1729TIP3    H226603   3.223   6.153   4.163  0.8812 -1.1618  3.5811
 1730TIP3   OH226604   1.143   2.587  15.170  0.2433  0.9281  0.1801
 1730TIP3    H126605   1.231   2.569  15.203  0.0927 -0.9874 -0.3279
 1730TIP3    H226606   1.085   2.561  15.242  0.0401 -0.0410 -0.3106
 1731TIP3   OH226607   4.237   6.673   4.303 -0.1735  0.3393 -0.2015
 1731TIP3    H126608   4.254   6.700   4.393 -1.9800 -0.3804  0.4142
 1731TIP3    H226609   4.298   6.602   4.287 -0.4732 -0.1672  0.8103
 1732TIP3   OH226610   2.856   1.314  15.233 -0.8644 -0.3691 -0.7114
 1732TIP3    H126611   2.837   1.293  15.324  1.9946  0.3333  0.1593
 1732TIP3    H226612   2.831   1.406  15.224  0.1485 -0.0247 -0.1759
 1733TIP3   OH226613   3.702   3.530   1.599  0.6952 -0.3508  0.8926
 1733TIP3    H126614   3.733   3.558   1.513  0.8981 -0.7744  0.8259
 1733TIP3    H226615   3.682   3.612   1.645 -0.5531 -0.1429  0.0311
 1734TIP3   OH226616   4.711   2.825   5.639 -0.5595  0.2905  0.1875
 1734TIP3    H126617   4.770   2.882   5.688 -1.2160  0.3611  0.9172
 1734TIP3    H226618   4.753   2.739   5.640 -0.1308  0.4946  0.0751
 1735TIP3   OH226619   4.410   2.903  14.558  0.0331 -0.4723  0.0086
 1735TIP3    H126620   4.503   2.893  14.541  0.0538  0.8166 -0.7274
 1735TIP3    H226621   4.374   2.814  14.549  0.6678 -0.5199 -3.0227
 1736TIP3   OH226622   0.085   1.758  10.787 -0.7324 -0.3474  0.0108
 1736TIP3    H126623   0.172   1.728  10.814 -0.7616 -0.7288 -0.3150
 1736TIP3    H226624   0.069   1.836  10.841  1.3503  1.9483 -2.4080
 1737TIP3   OH226625   0.760   1.936   3.673  0.7263  0.3065 -0.1489
 1737TIP3    H126626   0.829   1.989   3.633  1.0980  1.0340  1.3733
 1737TIP3    H226627   0.685   1.994   3.678  0.9679  0.5445  1.0255
 1738TIP3   OH226628   4.867   2.655  14.970 -0.2085  0.2648 -0.2828
 1738TIP3    H126629   4.946   2.696  15.005 -1.0963 -0.3310  2.6723
 1738TIP3    H226630   4.795   2.710  15.001 -1.1496 -1.2090  0.2848
 1739TIP3   OH226631   1.575   6.535  13.450 -0.5078  0.2533  0.6167
 1739TIP3    H126632   1.584   6.628  13.432 -2.5989  0.0882 -2.0127
 1739TIP3    H226633   1.622   6.492  13.379  1.2153 -0.8090  2.2885
 1740TIP3   OH226634   5.397   6.434   2.020 -0.5714  0.5859 -0.4510
 1740TIP3    H126635   5.362   6.371   2.084  2.2632  0.1414  0.8605
 1740TIP3    H226636   5.412   6.514   2.071  0.2937  0.7290 -0.9024
 1741TIP3   OH226637   0.035   2.281   1.906 -0.4359 -0.0864 -0.1670
 1741TIP3    H126638   0.019   2.340   1.979  0.7519 -3.0988  2.7895
 1741TIP3    H226639   0.129   2.290   1.888 -0.2060 -1.1207  0.4333
 1742TIP3   OH226640   5.598   6.506   2.682 -0.1318  0.1846  0.4902
 1742TIP3    H126641   5.626   6.537   2.768  1.6585  1.4958 -0.4974
 1742TIP3    H226642   5.620   6.578   2.622  1.5426 -1.8226 -1.5081
 1743TIP3   OH226643   5.696   5.626  16.486  0.7331 -0.1050  0.1452
 1743TIP3    H126644   5.764   5.692  16.474  1.5228 -0.8844  0.2599
 1743TIP3    H226645   5.659   5.613  16.398  0.7515  0.3014  0.0783
 1744TIP3   OH226646   5.250   6.002   6.754  0.0723  0.5502  0.4248
 1744TIP3    H126647   5.190   6.045   6.694 -0.7388 -0.1260  0.7267
 1744TIP3    H226648   5.193   5.961   6.820  0.7903 -0.9587  0.1562
 1745TIP3   OH226649   5.075   0.285   3.144  0.2622  1.2743 -0.3446
 1745TIP3    H126650   5.025   0.209   3.173 -1.6422  2.6271  0.1038
 1745TIP3    H226651   5.086   0.272   3.049  0.9872 -0.0943 -0.0948
 1746TIP3   OH226652   4.385   3.094  17.227  0.2524  0.0347  0.2865
 1746TIP3    H126653   4.405   3.096  17.133 -0.0728 -1.7500  0.1337
 1746TIP3    H226654   4.442   3.160  17.266 -0.0270  1.2214 -1.2373
 1747TIP3   OH226655   5.445   4.061  14.684 -0.0424 -0.1221 -0.5019
 1747TIP3    H126656   5.433   4.046  14.590 -0.6281 -0.9871 -0.3004
 1747TIP3    H226657   5.532   4.027  14.703  0.0420 -0.0253 -0.7086
 1748TIP3   OH226658   0.023   4.626   0.869 -0.2413  0.7450 -0.2119
 1748TIP3    H126659   0.002   4.693   0.805 -0.2813 -0.0266 -1.0259
 1748TIP3    H226660   0.043   4.674   0.949  0.5526  1.7710 -1.0040
 1749TIP3   OH226661   5.119   2.909   0.300  0.0628 -0.4746 -0.5789
 1749TIP3    H126662   5.052   2.963   0.341  0.1995 -0.7714  0.0480
 1749TIP3    H226663   5.125   2.941   0.210  2.0399  2.4265  0.4370
 1750TIP3   OH226664   3.934   0.381   6.282 -0.2120  0.5596 -0.2556
 1750TIP3    H126665   3.921   0.456   6.339 -0.7411  0.5706 -0.3823
 1750TIP3    H226666   3.883   0.401   6.204 -0.6769 -0.1035 -0.1307
 1751TIP3   OH226667   6.033   3.700  14.608  0.1549  0.7727  0.0816
 1751TIP3    H126668   6.113   3.677  14.656  0.2534 -0.1896 -0.5249
 1751TIP3    H226669   6.034   3.643  14.532 -1.7167 -0.1128  0.6673
 1752TIP3   OH226670   0.983   4.397  14.914 -0.1317 -0.1044 -0.3776
 1752TIP3    H126671   1.022   4.484  14.902  0.7536 -0.4868 -0.3460
 1752TIP3    H226672   0.913   4.411  14.978  0.1379  0.5529 -0.2144
 1753TIP3   OH226673   1.707   6.466  15.831 -0.4224  0.0159  0.5606
 1753TIP3    H126674   1.682   6.441  15.742 -1.1984 -0.7768  0.9851
 1753TIP3    H226675   1.784   6.412  15.851 -1.8985 -1.8925  1.3541
 1754TIP3   OH226676   0.031   5.901  12.424 -0.2708 -0.0338  0.2944
 1754TIP3    H126677   0.030   5.857  12.509  0.0859  1.1196  0.9088
 1754TIP3    H226678   0.088   5.846  12.370  0.1090 -0.3731  1.0208
 1755TIP3   OH226679   5.759   2.079  15.983 -0.1404 -0.3721 -0.8327
 1755TIP3    H126680   5.747   2.088  16.078 -2.0559  0.1365 -1.0902
 1755TIP3    H226681   5.844   2.122  15.966 -1.3888  2.8267  0.2271
 1756TIP3   OH226682   0.051   6.248   4.927  0.3721 -0.3082  0.0220
 1756TIP3    H126683   0.108   6.212   4.995 -0.3682 -0.0953  0.7634
 1756TIP3    H226684  -0.019   6.293   4.975 -0.3393 -0.4281 -0.8791
 1757TIP3   OH226685   3.679   1.897  17.228 -0.2392 -0.4036  0.2846
 1757TIP3    H126686   3.740   1.904  17.301 -2.9955 -0.4095  2.8256
 1757TIP3    H226687   3.667   1.987  17.198  1.1141 -0.4285 -0.3686
 1758TIP3   OH226688   1.125   6.220  14.457 -0.8164 -0.4769 -0.4182
 1758TIP3    H126689   1.059   6.265  14.404 -0.2368  1.8732  0.7055
 1758TIP3    H226690   1.206   6.269  14.442  0.5217 -2.7048 -1.0152
 1759TIP3   OH226691   0.083   6.496   1.443 -0.3203  0.2141  0.2318
 1759TIP3    H126692   0.095   6.525   1.353  1.8861  1.2084  0.7678
 1759TIP3    H226693   0.088   6.577   1.495  1.5552 -0.5985  1.4313
 1760TIP3   OH226694   5.566   0.626  16.266  0.3327 -0.1133 -0.2869
 1760TIP3    H126695   5.543   0.647  16.357  2.0061 -2.1657  0.6803
 1760TIP3    H226696   5.493   0.662  16.215 -1.5239 -0.3393  2.0011
 1761TIP3   OH226697   0.325   0.281   1.254 -0.1491  0.0691 -0.4179
 1761TIP3    H126698   0.291   0.345   1.317  0.4575 -0.8615  0.9066
 1761TIP3    H226699   0.279   0.300   1.173  0.9651  3.0778 -0.4876
 1762TIP3   OH226700   4.540   3.828  17.191  0.4817  0.3927  0.1181
 1762TIP3    H126701   4.471   3.795  17.133 -0.1828  0.9617  0.5749
 1762TIP3    H226702   4.513   3.801  17.278  3.1699 -3.5568  0.0037
 1763TIP3   OH226703   0.918   6.611  16.177  0.0497 -0.6960 -0.0172
 1763TIP3    H126704   0.843   6.579  16.126  0.3174 -0.3195 -0.6576
 1763TIP3    H226705   0.908   6.706  16.179  0.6532 -0.6150 -0.3564
 1764TIP3   OH226706   3.718   6.363  11.904 -0.6160  0.2614  0.5393
 1764TIP3    H126707   3.767   6.440  11.875  0.8562 -0.3636  1.3251
 1764TIP3    H226708   3.639   6.400  11.945  0.8812  1.4745  2.4959
 1765TIP3   OH226709   6.134   5.066  13.823  0.0403 -0.2782 -0.0535
 1765TIP3    H126710   6.154   5.062  13.917 -0.4639 -1.3008  0.0308
 1765TIP3    H226711   6.044   5.098  13.819  0.6922  1.6477 -0.3036
 1766TIP3   OH226712   1.682   5.387  13.682  0.1038  0.1382  0.2716
 1766TIP3    H126713   1.646   5.459  13.734 -0.9896  0.5867 -1.0592
 1766TIP3    H226714   1.619   5.315  13.694  0.2951 -0.0363  0.2371
 1767TIP3   OH226715   6.483   2.638   2.466 -0.0476 -0.0574  0.1286
 1767TIP3    H126716   6.407   2.622   2.522 -1.1163  1.1016 -0.9303
 1767TIP3    H226717   6.450   2.694   2.396  1.8532  0.7143 -0.2145
 1768TIP3   OH226718   5.712   0.820   3.175 -0.2439 -0.0166 -0.3135
 1768TIP3    H126719   5.650   0.856   3.111  0.1441  1.2804  0.0037
 1768TIP3    H226720   5.764   0.896   3.203  0.0310 -0.6788  1.0473
 1769TIP3   OH226721   0.506   6.120   5.068 -0.1379 -0.0308  0.3396
 1769TIP3    H126722   0.458   6.179   5.010  0.3041 -0.9746 -1.0445
 1769TIP3    H226723   0.573   6.175   5.108  0.6881  0.3262 -1.4132
 1770TIP3   OH226724   1.321   0.571   2.403  0.6381 -0.2828  0.9693
 1770TIP3    H126725   1.389   0.584   2.469  0.3180  0.1819  1.2132
 1770TIP3    H226726   1.287   0.659   2.387  0.1584 -0.5032  0.7834
 1771TIP3   OH226727   3.661   0.007  16.566 -0.0518  0.2668  0.4497
 1771TIP3    H126728   3.585   0.046  16.522 -1.0718 -1.2182  0.8325
 1771TIP3    H226729   3.736   0.054  16.529 -1.1087  1.4222 -0.3171
 1772TIP3   OH226730   0.462   4.913  16.000  0.1674 -0.2147  0.0994
 1772TIP3    H126731   0.425   4.828  15.977 -0.9559  0.1676  0.4047
 1772TIP3    H226732   0.555   4.895  16.016 -0.0068 -1.3434 -0.0410
 1773TIP3   OH226733   0.761   5.335  14.815  0.1388  0.0730 -0.8102
 1773TIP3    H126734   0.830   5.290  14.766 -0.0020 -1.2674  0.1632
 1773TIP3    H226735   0.808   5.385  14.882  0.1991 -0.7470 -0.2222
 1774TIP3   OH226736   2.074   5.814  15.211 -0.0148  0.5309  0.2825
 1774TIP3    H126737   2.091   5.727  15.248 -0.2516  0.5991  0.5621
 1774TIP3    H226738   2.011   5.854  15.272  1.3613  1.5535  1.0940
 1775TIP3   OH226739   3.259   2.956   3.533 -0.1286 -0.7605 -0.5834
 1775TIP3    H126740   3.234   2.901   3.459  0.2990  0.1068 -1.3981
 1775TIP3    H226741   3.336   3.003   3.502 -1.1292  1.1187 -0.3311
 1776TIP3   OH226742   5.643   5.365  12.679 -0.7286  0.5386  0.6653
 1776TIP3    H126743   5.699   5.335  12.750 -0.7823 -1.2538  0.0196
 1776TIP3    H226744   5.668   5.456  12.664  1.5908 -0.0192  0.7986
 1777TIP3   OH226745   6.733   5.267   3.964 -0.0321 -0.3479  0.7345
 1777TIP3    H126746   6.746   5.344   4.019 -0.8153 -0.3515  0.9350
 1777TIP3    H226747   6.816   5.256   3.918 -0.0329  0.8513  0.4102
 1778TIP3   OH226748   3.043   5.042  11.927 -0.1210 -0.0413  0.0887
 1778TIP3    H126749   3.086   5.123  11.957 -2.1759  1.1922 -0.1256
 1778TIP3    H226750   3.097   4.972  11.963  0.8018  1.4075  1.6866
 1779TIP3   OH226751   3.779   5.816   1.203 -0.1260 -0.3671 -0.0946
 1779TIP3    H126752   3.832   5.742   1.171  1.1468  0.1159  0.8184
 1779TIP3    H226753   3.719   5.777   1.266 -0.3950 -0.8271 -0.6277
 1780TIP3   OH226754   1.727   5.940   0.820  0.5683  0.1775 -0.0160
 1780TIP3    H126755   1.806   5.943   0.765  0.9102  0.8466  0.5001
 1780TIP3    H226756   1.710   5.847   0.832  2.2186 -0.0042  1.1995
 1781TIP3   OH226757   1.678   5.162   2.058 -0.1958 -0.4152 -0.0946
 1781TIP3    H126758   1.712   5.154   2.146  0.8494  0.4422 -0.4046
 1781TIP3    H226759   1.603   5.221   2.066 -0.0689 -0.2966  0.2126
 1782TIP3   OH226760   6.621   3.643   2.532  0.1830  0.2873  0.5281
 1782TIP3    H126761   6.599   3.569   2.476 -0.2855  1.2171 -0.5551
 1782TIP3    H226762   6.587   3.619   2.618 -2.9442  0.5909 -0.5022
 1783TIP3   OH226763   2.103   0.613  17.393  0.7437 -0.9152  0.4488
 1783TIP3    H126764   2.033   0.595  17.331  1.8218 -1.2817 -0.6958
 1783TIP3    H226765   2.184   0.602  17.343  1.6114  1.3388  1.2093
 1784TIP3   OH226766   6.087   5.088   4.116  0.1646  0.2278  0.1438
 1784TIP3    H126767   6.075   5.010   4.170 -0.5199  1.2753  1.5685
 1784TIP3    H226768   6.014   5.145   4.139  0.9671  1.5352 -0.4356
 1785TIP3   OH226769   5.245   3.287   5.652  0.4497 -0.0991  0.4806
 1785TIP3    H126770   5.238   3.255   5.743 -2.0007 -1.2924 -0.0412
 1785TIP3    H226771   5.180   3.356   5.646  1.9277  1.3358  0.0608
 1786TIP3   OH226772   3.582   4.271   1.442  0.1042 -0.2248  0.9126
 1786TIP3    H126773   3.527   4.299   1.369  0.4483 -0.9769  0.3529
 1786TIP3    H226774   3.566   4.336   1.510 -0.6013  0.2088  0.3492
 1787TIP3   OH226775   4.375   6.632  12.489 -0.2553 -0.1748  0.6387
 1787TIP3    H126776   4.342   6.570  12.423 -2.5176  0.9450  0.6097
 1787TIP3    H226777   4.401   6.709  12.439 -1.8812  0.6397  0.9748
 1788TIP3   OH226778   5.035   6.003   2.395  0.1902 -0.0814 -0.9142
 1788TIP3    H126779   5.000   6.092   2.403  0.4741 -0.1268  2.1982
 1788TIP3    H226780   4.964   5.953   2.354 -1.9035  0.6876  1.5158
 1789TIP3   OH226781   6.183   1.071   2.262 -0.2520  0.2964 -0.6499
 1789TIP3    H126782   6.203   1.080   2.169 -1.5668 -0.1723 -1.0128
 1789TIP3    H226783   6.241   1.002   2.293 -1.0910 -0.8901 -1.6007
 1790TIP3   OH226784   4.139   5.181  17.077  0.4287 -0.1587  0.1861
 1790TIP3    H126785   4.098   5.135  17.151 -0.4972 -1.4592 -1.0878
 1790TIP3    H226786   4.232   5.186  17.100  0.5841 -2.7073  0.3988
 1791TIP3   OH226787   2.492   3.327  12.937 -0.1717 -0.2846  0.0781
 1791TIP3    H126788   2.441   3.301  13.014 -0.9953  1.4108  0.1434
 1791TIP3    H226789   2.429   3.365  12.877  0.2057 -2.8479 -2.1503
 1792TIP3   OH226790   0.329   3.076   2.185  0.8486  0.4980 -0.1899
 1792TIP3    H126791   0.278   3.155   2.169 -0.9690 -0.5159  0.2633
 1792TIP3    H226792   0.410   3.088   2.135  0.4949  2.4900 -0.3521
 1793TIP3   OH226793   6.589   0.610   5.716 -0.2044  0.5527 -0.2548
 1793TIP3    H126794   6.521   0.651   5.770  1.2897  2.8119  0.0822
 1793TIP3    H226795   6.584   0.655   5.632 -0.8307 -1.1594 -1.1852
 1794TIP3   OH226796   4.121   6.419  15.105  0.1618 -0.1028  0.1764
 1794TIP3    H126797   4.026   6.417  15.100  0.0768 -0.8305  1.5030
 1794TIP3    H226798   4.140   6.487  15.170  0.5920  0.5971 -0.6682
 1795TIP3   OH226799   2.006   5.806  12.786  0.0314  0.2720  0.3154
 1795TIP3    H126800   1.995   5.901  12.785 -0.8008  0.1787 -0.1467
 1795TIP3    H226801   2.062   5.787  12.710  2.4661  0.6160  1.9079
 1796TIP3   OH226802   5.307   1.822   4.022  0.6777  0.7524 -0.6889
 1796TIP3    H126803   5.379   1.875   4.058  0.5482  0.4912 -0.0324
 1796TIP3    H226804   5.241   1.823   4.090 -0.7904  2.6244 -2.0391
 1797TIP3   OH226805   3.487   5.414   1.244 -0.4867 -0.3249 -0.1141
 1797TIP3    H126806   3.460   5.389   1.332  0.0194  0.4048  0.2539
 1797TIP3    H226807   3.405   5.415   1.194 -0.9114  0.1058  0.5619
 1798TIP3   OH226808   1.229   6.106  15.043 -1.0097 -0.2602 -0.5878
 1798TIP3    H126809   1.242   6.120  14.949  1.0553  0.5415 -0.2403
 1798TIP3    H226810   1.259   6.016  15.058  0.2912  0.1760 -0.4610
 1799TIP3   OH226811   0.935   0.585  16.555 -0.4389  0.9075 -0.3881
 1799TIP3    H126812   0.992   0.643  16.606  0.1230 -1.0959  1.4106
 1799TIP3    H226813   0.982   0.573  16.473 -1.4198  4.3000 -1.6449
 1800TIP3   OH226814   5.499   6.480  15.069 -0.2920 -0.1125 -0.0192
 1800TIP3    H126815   5.419   6.469  15.122  0.4184 -0.8430  0.9438
 1800TIP3    H226816   5.502   6.574  15.050 -1.2210 -0.0272  0.1918
 1801TIP3   OH226817   3.440   1.728  17.265  0.6208  0.1929 -0.7136
 1801TIP3    H126818   3.520   1.780  17.258 -0.0471  1.3083 -0.3590
 1801TIP3    H226819   3.425   1.695  17.177  0.8794  0.8900 -1.0295
 1802TIP3   OH226820   1.306   4.065  16.995  0.4937 -0.2171 -0.0023
 1802TIP3    H126821   1.349   4.105  17.071  0.5847  1.1771 -0.7434
 1802TIP3    H226822   1.374   4.065  16.927  0.7065 -2.3097  0.1415
 1803TIP3   OH226823   3.915   0.334   2.368  0.0774 -0.2373  0.1736
 1803TIP3    H126824   4.004   0.361   2.388 -0.5995  0.5381  2.5329
 1803TIP3    H226825   3.905   0.249   2.412 -0.1663 -0.6122 -0.5912
 1804TIP3   OH226826   3.230   1.684  15.348  0.3459  0.2419 -0.4097
 1804TIP3    H126827   3.170   1.735  15.403  0.0419 -0.2513 -0.2828
 1804TIP3    H226828   3.293   1.748  15.316 -0.7536  0.9346 -1.2708
 1805TIP3   OH226829   4.082   1.151  12.727 -0.2974 -0.1268  0.1574
 1805TIP3    H126830   4.116   1.062  12.738 -1.3591 -0.6210 -0.3492
 1805TIP3    H226831   4.022   1.144  12.652  1.0039  1.4180 -1.1102
 1806TIP3   OH226832   4.016   0.577  10.744  0.0135  0.4615  0.0989
 1806TIP3    H126833   3.929   0.552  10.713 -1.1543  3.1010  0.9526
 1806TIP3    H226834   4.005   0.590  10.838  2.5357 -3.5125  1.2152
 1807TIP3   OH226835   1.449   4.553   1.701  0.0715  0.2571  0.2325
 1807TIP3    H126836   1.491   4.637   1.721 -0.4364  0.7618 -0.7825
 1807TIP3    H226837   1.440   4.511   1.787 -0.7349  1.7347  0.9298
 1808TIP3   OH226838   5.795   5.626  13.545 -0.2971 -0.2821 -0.8524
 1808TIP3    H126839   5.853   5.686  13.592 -0.7488  0.1233 -0.7938
 1808TIP3    H226840   5.779   5.669  13.461 -0.4527 -0.4221 -0.8963
 1809TIP3   OH226841   1.854   3.164  12.281 -0.0869 -0.2949 -0.3578
 1809TIP3    H126842   1.938   3.177  12.325 -0.0984  0.3433 -0.5165
 1809TIP3    H226843   1.803   3.242  12.303  0.1650  0.3906 -2.0746
 1810TIP3   OH226844   2.638   3.896   6.202  0.1471 -0.2489 -0.4317
 1810TIP3    H126845   2.662   3.822   6.259  1.6368 -0.4573 -1.2700
 1810TIP3    H226846   2.657   3.973   6.255  1.9078 -0.4315 -0.7214
 1811TIP3   OH226847   5.421   2.374  15.244  0.5895  0.8195 -0.0902
 1811TIP3    H126848   5.466   2.360  15.327  0.6053  0.4146 -0.1665
 1811TIP3    H226849   5.389   2.288  15.218  0.5738  0.9433 -0.4993
 1812TIP3   OH226850   4.033   0.508  13.218 -0.0706 -0.0998 -0.5852
 1812TIP3    H126851   3.939   0.520  13.200 -0.1024  0.4445 -0.0511
 1812TIP3    H226852   4.075   0.583  13.176 -0.1335  1.1485  1.4338
 1813TIP3   OH226853   6.020   0.673  11.729  0.2072  0.6456  0.1442
 1813TIP3    H126854   6.016   0.621  11.809  1.5872 -0.1106 -0.2515
 1813TIP3    H226855   5.933   0.712  11.722 -0.7443 -1.2474  0.7030
 1814TIP3   OH226856   4.995   5.821  15.206  0.4414  0.4969  0.0340
 1814TIP3    H126857   5.081   5.782  15.223 -0.2657 -1.1884 -0.1008
 1814TIP3    H226858   4.954   5.828  15.292 -0.0219 -0.5250 -0.0893
 1815TIP3   OH226859   1.796   6.232  13.733  0.0407 -0.8333  0.2044
 1815TIP3    H126860   1.823   6.148  13.695 -1.3109 -0.6078 -1.3865
 1815TIP3    H226861   1.823   6.297  13.669 -1.4260 -0.3445  0.0322
 1816TIP3   OH226862   6.231   6.281  11.935 -0.2338 -0.0725 -0.6609
 1816TIP3    H126863   6.281   6.317  12.009  0.9766 -1.4535 -0.7456
 1816TIP3    H226864   6.295   6.228  11.887 -1.3870 -0.4815 -1.7989
 1817TIP3   OH226865   4.817   2.925   2.049 -0.1936  0.1063 -0.8155
 1817TIP3    H126866   4.896   2.949   2.000 -0.4374  0.4513 -1.0449
 1817TIP3    H226867   4.745   2.944   1.988 -0.4993  0.5063 -0.3335
 1818TIP3   OH226868   2.775   5.157  11.902  0.7099 -0.0158 -0.3166
 1818TIP3    H126869   2.866   5.131  11.892  0.7557  0.3337 -0.8638
 1818TIP3    H226870   2.736   5.142  11.816 -0.2279 -1.9480  0.4016
 1819TIP3   OH226871   1.029   4.081   2.178 -0.8006  0.1054 -0.6245
 1819TIP3    H126872   1.000   4.158   2.226  0.5607 -1.3873  2.9052
 1819TIP3    H226873   0.969   4.011   2.205  0.8198 -1.0806  0.0786
 1820TIP3   OH226874   4.349   5.832  14.784  0.7324 -0.3778  0.2482
 1820TIP3    H126875   4.392   5.746  14.790  0.6724 -0.3547  1.1538
 1820TIP3    H226876   4.255   5.811  14.780  0.7841 -0.4215 -1.5812
 1821TIP3   OH226877   0.426   4.107   2.683 -0.4154  0.2954  0.4315
 1821TIP3    H126878   0.339   4.085   2.718 -0.5895  0.6714  0.2451
 1821TIP3    H226879   0.435   4.051   2.606 -1.1312  1.3282 -0.4173
 1822TIP3   OH226880   4.294   0.390  11.553  0.4611  0.3922 -0.1560
 1822TIP3    H126881   4.311   0.375  11.459 -0.3894  0.9278 -0.4035
 1822TIP3    H226882   4.361   0.338  11.597 -0.5656 -1.8075 -1.0344
 1823TIP3   OH226883   0.822   1.001  11.744 -0.0572 -0.0193  0.6045
 1823TIP3    H126884   0.914   0.996  11.718 -0.5570  0.6509 -1.4441
 1823TIP3    H226885   0.793   0.910  11.750  0.6439 -0.2285  0.9960
 1824TIP3   OH226886   1.642   5.214  16.936  0.2544  0.1142 -0.4560
 1824TIP3    H126887   1.568   5.266  16.905 -0.2294 -0.5854 -0.5140
 1824TIP3    H226888   1.655   5.148  16.868  0.2570 -0.4103  0.0439
 1825TIP3   OH226889   2.163   5.884  16.787 -0.4702  0.7459 -0.6030
 1825TIP3    H126890   2.139   5.944  16.858 -0.9470 -0.2455  0.0928
 1825TIP3    H226891   2.082   5.872  16.737 -1.0275 -1.1413  0.6545
 1826TIP3   OH226892   5.595   2.802   2.221 -0.8341 -0.5385  0.6039
 1826TIP3    H126893   5.638   2.878   2.259 -0.6951 -0.2159 -0.1628
 1826TIP3    H226894   5.502   2.824   2.220 -0.7570 -0.2283  0.0628
 1827TIP3   OH226895   1.755   5.932   0.182  0.0859 -0.5265 -0.4726
 1827TIP3    H126896   1.813   5.959   0.111 -1.9058  1.8385 -1.3220
 1827TIP3    H226897   1.670   5.970   0.160 -0.7977 -0.3088  2.8349
 1828TIP3   OH226898   0.359   5.077   3.597 -0.2099 -0.1978 -0.3163
 1828TIP3    H126899   0.425   5.089   3.528 -0.3873  2.9940 -0.0686
 1828TIP3    H226900   0.297   5.148   3.584 -1.7286 -1.0899  1.5595
 1829TIP3   OH226901   5.519   3.834   6.291  0.1383 -0.3889  0.2456
 1829TIP3    H126902   5.473   3.752   6.309 -0.7105  0.0108 -0.0342
 1829TIP3    H226903   5.602   3.807   6.252  0.2480 -1.1368  0.9861
 1830TIP3   OH226904   2.408   0.317  16.862 -0.6024  0.4211  0.2558
 1830TIP3    H126905   2.474   0.248  16.856 -0.6669  0.4096 -0.3547
 1830TIP3    H226906   2.458   0.396  16.882 -0.2763  0.5972 -1.1338
 1831TIP3   OH226907   4.121   2.872   4.681  0.0670  0.1817 -0.0158
 1831TIP3    H126908   4.046   2.927   4.659  0.9970  0.8754 -1.6197
 1831TIP3    H226909   4.172   2.926   4.742 -0.1008  0.2071  0.1053
 1832TIP3   OH226910   0.367   6.313   1.912 -0.0397 -0.4279 -0.1714
 1832TIP3    H126911   0.457   6.324   1.944 -0.6747  0.5798  1.3602
 1832TIP3    H226912   0.353   6.388   1.854  0.1310 -0.6298 -0.4751
 1833TIP3   OH226913   1.056   3.504  12.267  0.5719 -0.4155 -0.0057
 1833TIP3    H126914   1.007   3.444  12.211  0.7854  1.6814 -2.6225
 1833TIP3    H226915   1.003   3.512  12.346 -1.2446 -1.3368 -1.0752
 1834TIP3   OH226916   1.358   4.838   1.647 -0.5826  0.1602  0.7011
 1834TIP3    H126917   1.274   4.795   1.637 -1.9755  2.8586 -0.3760
 1834TIP3    H226918   1.372   4.843   1.741 -1.5856 -0.4356  0.8938
 1835TIP3   OH226919   2.031   2.255   6.147  0.5697  0.4471  0.3949
 1835TIP3    H126920   2.024   2.163   6.124 -0.5848  0.6250 -0.0356
 1835TIP3    H226921   2.121   2.265   6.180  1.3209 -0.4323 -1.2849
 1836TIP3   OH226922   4.064   4.272   2.570 -0.2171  0.0265 -0.5650
 1836TIP3    H126923   4.048   4.229   2.654  0.9838  0.0517 -0.3138
 1836TIP3    H226924   3.977   4.276   2.528 -0.3423 -3.1602 -0.8563
 1837TIP3   OH226925   2.394   0.045  15.461 -0.5847  0.3655  0.4697
 1837TIP3    H126926   2.457  -0.011  15.509 -1.1416 -1.6686 -1.0430
 1837TIP3    H226927   2.380  -0.001  15.379 -2.2440  2.0446 -0.2310
 1838TIP3   OH226928   6.581   4.646  14.502  0.2276 -0.9973  0.3552
 1838TIP3    H126929   6.505   4.684  14.459  0.0855 -0.7660  0.8018
 1838TIP3    H226930   6.639   4.720  14.518  0.2034 -1.0552  0.7164
 1839TIP3   OH226931   5.583   5.400  10.770  0.5384 -0.5801  0.3680
 1839TIP3    H126932   5.541   5.420  10.686 -1.4087 -1.8573  0.9644
 1839TIP3    H226933   5.585   5.483  10.817  1.5542  0.1275 -0.8641
 1840TIP3   OH226934   1.850   5.219   2.575 -1.1447 -0.3333  0.0330
 1840TIP3    H126935   1.827   5.232   2.667  3.0592 -2.1418  1.5864
 1840TIP3    H226936   1.835   5.305   2.535 -4.8772  0.0492  1.8028
 1841TIP3   OH226937   2.003   3.235  15.003 -0.1924 -0.3518  0.5266
 1841TIP3    H126938   1.937   3.255  15.069 -0.7683 -4.3735  1.4836
 1841TIP3    H226939   2.067   3.181  15.050 -0.1843 -2.6786 -1.8991
 1842TIP3   OH226940   3.939   1.402   6.596 -0.4883  0.0021 -0.0894
 1842TIP3    H126941   4.027   1.409   6.632 -0.4887  1.4178 -0.3351
 1842TIP3    H226942   3.936   1.466   6.525 -1.4615 -0.5912 -0.6161
 1843TIP3   OH226943   4.345   6.436   3.226 -0.2388  0.0158  0.2222
 1843TIP3    H126944   4.310   6.347   3.223 -1.5758  0.5376 -0.5775
 1843TIP3    H226945   4.284   6.485   3.282  0.3522  0.4800  0.4741
 1844TIP3   OH226946   0.167   5.725   5.342 -0.2068  0.1635  0.1467
 1844TIP3    H126947   0.079   5.698   5.315  0.2443 -2.3546  0.9258
 1844TIP3    H226948   0.153   5.783   5.416 -1.2340  2.1039 -1.4477
 1845TIP3   OH226949   3.924   4.337   6.217 -0.5292  0.5306 -0.4366
 1845TIP3    H126950   3.987   4.369   6.283 -1.1053  0.6501  0.0637
 1845TIP3    H226951   3.978   4.288   6.155 -0.1521 -0.8027  0.9007
 1846TIP3   OH226952   4.837   5.923   6.261 -0.2468  0.6185 -0.3489
 1846TIP3    H126953   4.905   5.879   6.311 -1.1132  1.1018  1.3342
 1846TIP3    H226954   4.789   5.974   6.325 -1.7235  0.8953 -1.6032
 1847TIP3   OH226955   1.585   6.038   4.405  0.3048 -0.1269  0.5169
 1847TIP3    H126956   1.662   5.981   4.403 -0.8812 -1.7909  0.0767
 1847TIP3    H226957   1.526   6.000   4.339  0.2447  2.7935 -1.2876
 1848TIP3   OH226958   2.709   3.633  13.792 -0.2114  0.1550 -0.8676
 1848TIP3    H126959   2.666   3.690  13.856  0.2402  0.5699 -0.9260
 1848TIP3    H226960   2.781   3.686  13.758  2.8351 -1.7054  2.0128
 1849TIP3   OH226961   0.165   6.622  13.480 -0.4120 -0.6413  0.1087
 1849TIP3    H126962   0.151   6.532  13.452  0.5720 -0.5889 -0.6069
 1849TIP3    H226963   0.181   6.670  13.398 -0.7460  0.1523  0.4944
 1850TIP3   OH226964   3.564   6.524   5.705 -0.7229  0.1805 -0.3450
 1850TIP3    H126965   3.530   6.457   5.765  1.3567 -1.2940 -0.7042
 1850TIP3    H226966   3.655   6.498   5.689 -0.1765  2.4861 -1.4136
 1851TIP3   OH226967   6.503   3.547   5.463  0.1577  0.7710 -0.2057
 1851TIP3    H126968   6.407   3.550   5.461  0.1673  1.2203  0.0152
 1851TIP3    H226969   6.529   3.553   5.371 -0.0332  0.2505 -0.2999
 1852TIP3   OH226970   1.620   5.079  13.716  0.0956 -0.1444  0.0195
 1852TIP3    H126971   1.709   5.097  13.744 -0.0003 -2.3412  2.1066
 1852TIP3    H226972   1.629   5.008  13.652 -0.1433  0.0100 -0.1890
 1853TIP3   OH226973   2.132   5.739  15.732  0.3844 -0.2580  0.0213
 1853TIP3    H126974   2.108   5.647  15.743 -1.4691  0.3160  1.3307
 1853TIP3    H226975   2.158   5.746  15.640 -0.7434 -1.8343 -0.4575
 1854TIP3   OH226976   1.597   2.228  14.515  0.2384  0.0257 -0.3919
 1854TIP3    H126977   1.636   2.238  14.429 -0.1882 -0.2341 -0.6202
 1854TIP3    H226978   1.642   2.292  14.570  1.0834 -0.3608 -0.6121
 1855TIP3   OH226979   2.136   2.334   5.726  0.5213  0.4386 -0.1294
 1855TIP3    H126980   2.149   2.411   5.781  1.6454 -0.1685  0.4750
 1855TIP3    H226981   2.079   2.277   5.778  0.8657  0.2422  0.0318
 1856TIP3   OH226982   2.646   0.696   5.767 -0.1633  0.0223  0.2023
 1856TIP3    H126983   2.565   0.662   5.805 -0.7473  0.9130 -0.2071
 1856TIP3    H226984   2.695   0.618   5.743 -0.0476 -0.5649  2.1718
 1857TIP3   OH226985   4.901   5.993   5.746 -0.0837  1.1241  0.2113
 1857TIP3    H126986   4.929   5.906   5.718 -1.2031  1.2155 -1.3524
 1857TIP3    H226987   4.881   5.983   5.839 -1.5485 -0.7041 -0.2283
 1858TIP3   OH226988   1.103   6.341  12.002  0.7668  0.2535 -0.0972
 1858TIP3    H126989   1.156   6.266  12.030  1.0641 -0.1408 -1.6573
 1858TIP3    H226990   1.059   6.370  12.082  0.7565 -1.4911  0.5754
 1859TIP3   OH226991   1.088   2.204  12.430  0.4917 -0.5642  0.2410
 1859TIP3    H126992   1.127   2.132  12.381 -3.7123 -2.2497 -1.0474
 1859TIP3    H226993   0.994   2.190  12.423 -0.6237  4.7448  0.4565
 1860TIP3   OH226994   3.793   1.672  16.458  0.7158 -0.0122  0.3776
 1860TIP3    H126995   3.797   1.756  16.503 -2.0112  0.6034 -0.3276
 1860TIP3    H226996   3.758   1.693  16.372  0.9800 -1.7712 -0.1979
 1861TIP3   OH226997   6.432   3.729   2.870  0.5855 -0.2639  0.6351
 1861TIP3    H126998   6.398   3.665   2.808 -1.9256  1.5591 -0.0629
 1861TIP3    H226999   6.390   3.812   2.845  3.0299  1.5247  1.9740
 1862TIP3   OH227000   0.894   6.124   2.754 -0.0982  0.3003  0.3960
 1862TIP3    H127001   0.962   6.131   2.822 -1.0331  0.2939  1.3628
 1862TIP3    H227002   0.867   6.214   2.738  1.0506  0.4421 -0.9898
 1863TIP3   OH227003   3.544   5.739   1.984  0.3918 -0.0295  0.4522
 1863TIP3    H127004   3.517   5.735   1.892  2.4080  0.7938 -0.2321
 1863TIP3    H227005   3.462   5.738   2.033 -0.7702  0.2617 -1.3824
 1864TIP3   OH227006   0.785   0.707   5.966  0.4908  0.5239  0.2696
 1864TIP3    H127007   0.709   0.764   5.978  0.6866  0.5838  1.3103
 1864TIP3    H227008   0.748   0.619   5.956  0.2915  0.4909  1.2160
 1865TIP3   OH227009   2.198   2.623  15.007  0.1519 -0.2970  0.4337
 1865TIP3    H127010   2.197   2.718  15.021 -0.1001 -0.3288  0.6404
 1865TIP3    H227011   2.120   2.592  15.054 -0.4137 -0.4751 -0.6007
 1866TIP3   OH227012   4.386   4.157  14.275 -0.1686 -0.8589 -0.0970
 1866TIP3    H127013   4.383   4.073  14.320  0.2802 -0.4911  0.6278
 1866TIP3    H227014   4.366   4.222  14.342  0.4660 -0.3056 -0.4335
 1867TIP3   OH227015   4.926   2.645  17.261  0.7558 -0.4769  0.0171
 1867TIP3    H127016   4.840   2.686  17.275  1.6131  0.7843  1.9843
 1867TIP3    H227017   4.918   2.603  17.175 -2.2731 -1.6023  0.6966
 1868TIP3   OH227018   4.051   4.767  11.626  0.0742 -0.1698 -0.1042
 1868TIP3    H127019   4.054   4.805  11.713  0.8570 -1.1521  0.3094
 1868TIP3    H227020   3.970   4.802  11.587  0.4087  1.3431  0.4965
 1869TIP3   OH227021   5.719   2.984   5.952  0.2026 -0.4164 -0.0293
 1869TIP3    H127022   5.653   2.944   5.895 -0.0390 -0.6837  0.4355
 1869TIP3    H227023   5.708   2.940   6.036 -0.4941  1.0421  0.6843
 1870TIP3   OH227024   0.861   5.072  11.101 -0.1311  0.0646  0.2728
 1870TIP3    H127025   0.788   5.021  11.135 -2.5966  2.5112 -1.0016
 1870TIP3    H227026   0.840   5.085  11.008  1.5837  1.4323  0.0317
 1871TIP3   OH227027   0.759   2.890  11.988 -0.1201  0.2224  0.1786
 1871TIP3    H127028   0.818   2.818  11.965 -1.1103 -0.2566 -0.9759
 1871TIP3    H227029   0.729   2.869  12.077 -0.0688 -0.5880  0.0138
 1872TIP3   OH227030   3.880   4.423  12.378  0.2803 -0.0321 -0.4730
 1872TIP3    H127031   3.809   4.359  12.371  0.1989  0.0533 -0.4337
 1872TIP3    H227032   3.879   4.469  12.294  0.7047 -0.4607 -0.7208
 1873TIP3   OH227033   0.671   4.670  16.525 -0.3599 -0.4554  0.1107
 1873TIP3    H127034   0.591   4.622  16.502 -0.1670 -0.4075 -0.6820
 1873TIP3    H227035   0.669   4.748  16.470  0.1376 -0.3586  0.2282
 1874TIP3   OH227036   4.906   1.753   4.057  0.9131 -0.1113 -0.7610
 1874TIP3    H127037   4.860   1.691   4.001  0.8246 -0.9530  0.2208
 1874TIP3    H227038   4.838   1.787   4.116  1.1584  0.1833 -0.6416
 1875TIP3   OH227039   5.539   5.038  13.531 -0.1074  0.0879  0.5493
 1875TIP3    H127040   5.593   5.083  13.465  0.0634 -1.2422 -0.2604
 1875TIP3    H227041   5.461   5.010  13.483 -1.7337  2.1980  1.7633
 1876TIP3   OH227042   3.384   1.606   1.597  0.2827 -0.4418 -0.1621
 1876TIP3    H127043   3.333   1.590   1.676 -0.7949  0.2819 -0.6841
 1876TIP3    H227044   3.386   1.521   1.552 -1.4460 -0.2485 -0.6738
 1877TIP3   OH227045   6.182   3.162   4.423 -0.4388 -0.0014  0.0401
 1877TIP3    H127046   6.125   3.124   4.356  2.4756 -2.2375 -1.3792
 1877TIP3    H227047   6.152   3.122   4.505 -1.7487 -0.0627 -0.4418
 1878TIP3   OH227048   5.160   4.585   4.877  0.2657  0.6257 -0.0140
 1878TIP3    H127049   5.110   4.657   4.837 -0.3019 -0.1834 -0.8090
 1878TIP3    H227050   5.097   4.541   4.934 -0.6541 -1.6886 -2.6075
 1879TIP3   OH227051   6.470   0.843   3.087 -0.0813 -0.6068 -0.1376
 1879TIP3    H127052   6.535   0.910   3.066  0.8295 -2.4822 -4.4475
 1879TIP3    H227053   6.522   0.766   3.110 -0.9909 -0.8745  1.0833
 1880TIP3   OH227054   1.422   2.171   1.483 -0.2383  1.0640 -1.0014
 1880TIP3    H127055   1.464   2.122   1.412  1.9271 -0.6165  1.2502
 1880TIP3    H227056   1.495   2.216   1.526 -1.5574  2.4334 -0.1467
 1881TIP3   OH227057   0.664   4.988   0.688 -0.2253  0.3195 -0.2949
 1881TIP3    H127058   0.633   4.958   0.773  1.5102  0.1543  0.3163
 1881TIP3    H227059   0.588   4.980   0.630 -1.1334 -0.5724  0.9801
 1882TIP3   OH227060   6.124   6.089   2.877  0.5312  0.4265  0.7485
 1882TIP3    H127061   6.117   6.091   2.782 -0.4474  1.4999  0.8191
 1882TIP3    H227062   6.037   6.060   2.907  0.4903  1.1191  1.3370
 1883TIP3   OH227063   1.951   5.793   2.600 -0.0728  0.1665 -0.1721
 1883TIP3    H127064   2.014   5.811   2.669 -3.0130  0.7533  2.5795
 1883TIP3    H227065   1.905   5.714   2.629 -0.8116 -0.0902 -1.9109
 1884TIP3   OH227066   0.114   0.021  11.931  0.0214 -0.2649  1.0372
 1884TIP3    H127067   0.056   0.021  11.855  0.3736 -0.4136  0.7674
 1884TIP3    H227068   0.121  -0.071  11.956  0.9991 -0.3704  0.4081
 1885TIP3   OH227069   3.375   4.446   1.011 -0.4214  0.2246  0.4433
 1885TIP3    H127070   3.424   4.365   0.997  0.4867  0.8180  0.1307
 1885TIP3    H227071   3.286   4.426   0.979 -0.1046 -0.5176  0.0014
 1886TIP3   OH227072   4.562   2.403  17.022  0.3927  0.0058  0.0044
 1886TIP3    H127073   4.537   2.366  16.937 -1.5790 -0.4300  0.7197
 1886TIP3    H227074   4.633   2.346  17.053  0.2032 -0.6482 -0.7404
 1887TIP3   OH227075   1.563   4.501  16.936 -0.4672  0.2508  0.1846
 1887TIP3    H127076   1.574   4.591  16.966 -0.3558  0.5762 -0.7957
 1887TIP3    H227077   1.555   4.450  17.017 -0.8196  1.1691  0.7562
 1888TIP3   OH227078   5.662   4.806   2.550  0.1946 -0.1813 -0.1961
 1888TIP3    H127079   5.726   4.741   2.520 -0.7987 -0.2223 -2.3236
 1888TIP3    H227080   5.712   4.888   2.555  0.1288  0.2331 -3.7444
 1889TIP3   OH227081   0.295   2.066  11.648 -0.2332  0.5031 -0.0827
 1889TIP3    H127082   0.214   2.104  11.615  1.5707  3.5439 -1.4980
 1889TIP3    H227083   0.303   2.101  11.737 -0.2844  0.5334 -0.0898
 1890TIP3   OH227084   1.437   4.499   5.465  0.3263  0.1109  0.6056
 1890TIP3    H127085   1.459   4.481   5.373  1.8126 -1.5707  1.2217
 1890TIP3    H227086   1.476   4.584   5.483  1.4480 -0.2696  0.0818
 1891TIP3   OH227087   2.820   1.444   1.856 -0.1144  0.8835 -0.0359
 1891TIP3    H127088   2.859   1.474   1.938  0.6350 -0.9144  0.3107
 1891TIP3    H227089   2.760   1.514   1.832 -0.5117  1.3840  2.1503
 1892TIP3   OH227090   2.848   5.356  16.165 -0.4357 -0.7034 -0.5028
 1892TIP3    H127091   2.798   5.275  16.173 -0.0234 -0.8228  1.4110
 1892TIP3    H227092   2.784   5.425  16.186 -0.2316 -0.7267  0.2179
 1893TIP3   OH227093   5.267   1.078   2.473 -0.6015  0.1735  0.0330
 1893TIP3    H127094   5.311   1.057   2.391 -2.7609 -0.1347 -1.1230
 1893TIP3    H227095   5.249   0.993   2.514  0.3399  0.3187  0.7800
 1894TIP3   OH227096   2.591   2.724  11.180 -0.2053 -0.1252 -0.2022
 1894TIP3    H127097   2.651   2.740  11.107 -1.0217  0.1257 -0.8336
 1894TIP3    H227098   2.505   2.713  11.139 -0.6515 -0.1363  0.7054
 1895TIP3   OH227099   5.329   2.880  12.929 -0.6952  0.0423  0.3414
 1895TIP3    H127100   5.336   2.789  12.957  0.0750 -0.1535 -0.4261
 1895TIP3    H227101   5.261   2.878  12.861  0.2300 -0.2133 -0.6022
 1896TIP3   OH227102   2.096   0.925   4.433 -0.0321 -0.9383  0.0582
 1896TIP3    H127103   2.058   1.001   4.476 -0.1874 -1.3931  0.7348
 1896TIP3    H227104   2.189   0.928   4.457 -0.2947 -1.7079  1.2040
 1897TIP3   OH227105   2.794   4.174  11.759 -0.4677  0.1499 -0.3849
 1897TIP3    H127106   2.834   4.149  11.676  0.5866  1.5538 -0.3326
 1897TIP3    H227107   2.787   4.270  11.755  2.2456  0.6241  2.2310
 1898TIP3   OH227108   1.207   2.937   2.148  0.1264  0.1359  0.2303
 1898TIP3    H127109   1.251   3.004   2.201  0.6167 -0.3909  0.4903
 1898TIP3    H227110   1.268   2.863   2.146  0.3636  0.3307 -1.5197
 1899TIP3   OH227111   4.302   3.559   3.283 -0.7037  0.3940 -0.4409
 1899TIP3    H127112   4.301   3.581   3.376 -0.6586  1.2998 -0.6398
 1899TIP3    H227113   4.305   3.644   3.239 -2.5105  0.0580 -1.3124
 1900TIP3   OH227114   0.567   4.221   4.082 -0.3432 -0.4357  0.0621
 1900TIP3    H127115   0.580   4.238   3.988  0.9789  0.6362  0.4083
 1900TIP3    H227116   0.529   4.133   4.085  0.5931 -0.9296 -1.4283
 1901TIP3   OH227117   1.663   0.928  11.531  0.4406  0.0340 -0.0312
 1901TIP3    H127118   1.695   1.014  11.558 -0.2950  0.3959 -0.2835
 1901TIP3    H227119   1.710   0.910  11.450  0.7452  0.1126  0.1275
 1902TIP3   OH227120   2.469   4.595  13.250 -0.1242 -0.1395  0.3683
 1902TIP3    H127121   2.497   4.595  13.158  1.7094  0.2251  0.8926
 1902TIP3    H227122   2.433   4.507  13.263 -2.2298  0.4215 -1.1760
 1903TIP3   OH227123   4.452   5.286  12.817 -0.0442 -0.5387 -0.4628
 1903TIP3    H127124   4.517   5.327  12.760 -1.5760  0.8733 -1.2833
 1903TIP3    H227125   4.411   5.220  12.762  0.2719 -1.0171 -0.1326
 1904TIP3   OH227126   5.952   1.645  15.180 -0.0410 -0.3949  0.2574
 1904TIP3    H127127   6.029   1.695  15.154 -0.0316  0.0581  1.1476
 1904TIP3    H227128   5.984   1.556  15.193 -0.0267 -0.6223 -1.1553
 1905TIP3   OH227129   2.810   6.582   6.307 -0.2845  0.8448 -0.2974
 1905TIP3    H127130   2.856   6.504   6.337 -1.2768 -0.8074 -2.7117
 1905TIP3    H227131   2.823   6.646   6.377  0.1154 -1.6166  2.0547
 1906TIP3   OH227132   4.779   3.192   6.181 -0.1801  0.0426 -0.1736
 1906TIP3    H127133   4.816   3.278   6.161 -0.3623  0.1645  0.0131
 1906TIP3    H227134   4.825   3.163   6.260  1.7775 -1.1937 -1.6587
 1907TIP3   OH227135   0.675   2.254  11.499  0.5095  0.3905  0.8299
 1907TIP3    H127136   0.667   2.262  11.404 -0.8194 -0.7184  0.8267
 1907TIP3    H227137   0.705   2.340  11.528 -0.6954  1.2696 -0.4285
 1908TIP3   OH227138   5.441   0.195  16.979 -0.0873  0.4239  0.3372
 1908TIP3    H127139   5.482   0.279  16.997  0.2061  0.3993 -0.1738
 1908TIP3    H227140   5.514   0.140  16.947 -0.1818 -0.1626  1.1046
 1909TIP3   OH227141   4.761   3.174  16.838  0.2166  0.7814  0.6439
 1909TIP3    H127142   4.835   3.215  16.883 -0.6845  1.0106  1.9942
 1909TIP3    H227143   4.796   3.092  16.804  0.8872  0.4049  2.1431
 1910TIP3   OH227144   5.144   0.833   5.451  0.3533  0.3777  0.0307
 1910TIP3    H127145   5.110   0.914   5.490 -0.9946  0.3863 -1.0924
 1910TIP3    H227146   5.146   0.770   5.523 -3.7291 -0.1384 -0.0492
 1911TIP3   OH227147   2.797   2.930  15.807  0.2125  0.3309  0.0255
 1911TIP3    H127148   2.733   2.879  15.758  0.2661 -0.4332  0.7250
 1911TIP3    H227149   2.881   2.908  15.768  0.3184 -0.7301  0.8111
 1912TIP3   OH227150   2.494   4.583  12.943  0.5860  0.2867  0.1592
 1912TIP3    H127151   2.487   4.512  12.879 -1.7620  0.2088  0.4086
 1912TIP3    H227152   2.504   4.662  12.891  0.9202  0.0072 -0.2053
 1913TIP3   OH227153   5.452   3.081   6.492  0.0610 -0.3914  0.4074
 1913TIP3    H127154   5.510   3.012   6.458 -0.0242 -0.3987  0.2739
 1913TIP3    H227155   5.425   3.130   6.414  0.6045  0.1725  0.5673
 1914TIP3   OH227156   3.148   1.775   3.009  0.4366 -0.2357 -0.6074
 1914TIP3    H127157   3.136   1.840   2.940  0.0083  1.2628  0.8105
 1914TIP3    H227158   3.060   1.740   3.024  0.4057 -0.0521 -0.3548
 1915TIP3   OH227159   6.127   2.989   3.859 -0.2089 -0.2317  0.1303
 1915TIP3    H127160   6.045   2.944   3.841 -0.8113  0.8750 -0.0147
 1915TIP3    H227161   6.103   3.082   3.861  1.1070  0.1404 -0.3084
 1916TIP3   OH227162   1.078   6.003  12.109 -0.3591  0.1201 -0.5582
 1916TIP3    H127163   1.023   6.060  12.163  0.1036  0.6784 -0.6655
 1916TIP3    H227164   1.102   5.931  12.166 -2.0922 -0.7196 -0.8170
 1917TIP3   OH227165   2.751   0.651  16.899 -0.5182  0.5258  0.3694
 1917TIP3    H127166   2.749   0.700  16.816  1.5468 -3.0942 -2.0742
 1917TIP3    H227167   2.835   0.675  16.939  0.3342 -0.6466 -0.6555
 1918TIP3   OH227168   2.322   6.610  14.116 -0.2859  0.9959 -0.1415
 1918TIP3    H127169   2.390   6.546  14.095 -0.6997  0.4007  0.3149
 1918TIP3    H227170   2.240   6.563  14.103 -0.5812  1.1444  1.0784
 1919TIP3   OH227171   2.240   2.309  10.956  0.3784 -0.1594 -0.1830
 1919TIP3    H127172   2.151   2.309  10.923  0.1092 -0.0796  0.5295
 1919TIP3    H227173   2.288   2.366  10.896 -0.0717 -0.1048 -0.4938
 1920TIP3   OH227174   6.208   2.690  12.282 -0.0525 -0.1180  0.0483
 1920TIP3    H127175   6.302   2.680  12.299  0.0280  2.0585  1.2255
 1920TIP3    H227176   6.173   2.729  12.362 -1.7804  0.0846 -0.7525
 1921TIP3   OH227177   5.143   0.482  11.275 -0.1136  0.4022 -0.4241
 1921TIP3    H127178   5.120   0.572  11.301  2.6715  0.7347  1.2596
 1921TIP3    H227179   5.137   0.432  11.356 -0.5988 -0.7597 -1.1474
 1922TIP3   OH227180   0.341   2.534  13.497 -0.1802 -0.2134 -0.6682
 1922TIP3    H127181   0.396   2.489  13.562  0.2936  0.7981 -0.3459
 1922TIP3    H227182   0.403   2.582  13.442 -0.7417  2.7841  1.0807
 1923TIP3   OH227183   2.913   1.108  17.112  0.0707 -0.4541  0.3936
 1923TIP3    H127184   2.886   1.165  17.040 -1.5058 -0.9720  0.5406
 1923TIP3    H227185   3.009   1.104  17.105 -0.0219 -0.2247 -1.4449
 1924TIP3   OH227186   2.311   0.681  11.070 -0.6593  0.8756  0.4060
 1924TIP3    H127187   2.339   0.760  11.023 -2.3309  0.5098 -1.2885
 1924TIP3    H227188   2.376   0.672  11.140  0.1896  3.1476  0.0182
 1925TIP3   OH227189   3.883   2.694  14.029 -0.2734  0.3076 -0.6266
 1925TIP3    H127190   3.830   2.634  14.082 -0.1917 -0.1764 -1.0890
 1925TIP3    H227191   3.820   2.737  13.971 -0.2322  0.1540 -0.7825
 1926TIP3   OH227192   3.202   1.700   2.116 -0.0548 -0.6068  0.6079
 1926TIP3    H127193   3.199   1.676   2.209  0.4880 -0.7634  0.5883
 1926TIP3    H227194   3.200   1.617   2.069  0.4534 -0.5587  0.5009
 1927TIP3   OH227195   5.196   4.095  12.343  0.1755  0.5933  0.3434
 1927TIP3    H127196   5.175   4.189  12.336  0.3165  0.5475 -1.0358
 1927TIP3    H227197   5.246   4.077  12.264  0.3916 -0.5951  0.7458
 1928TIP3   OH227198   5.916   6.738  16.820 -0.0452 -0.7612 -0.6139
 1928TIP3    H127199   5.978   6.757  16.750  0.0182 -1.7177 -0.8267
 1928TIP3    H227200   5.944   6.793  16.893 -1.2751  1.8064 -1.9132
 1929TIP3   OH227201   3.715   1.651  11.365  0.2264  0.0825 -0.0208
 1929TIP3    H127202   3.749   1.608  11.286 -0.0218  2.5503 -1.5851
 1929TIP3    H227203   3.766   1.614  11.436  0.7934 -1.9070 -1.3751
 1930TIP3   OH227204   1.824   5.944  13.099 -0.3750 -0.0072 -0.0953
 1930TIP3    H127205   1.859   5.982  13.180 -0.3261 -0.0346 -0.1036
 1930TIP3    H227206   1.820   6.017  13.038 -2.6736  0.5761  0.6372
 1931TIP3   OH227207   0.801   2.797  14.025 -0.5740  0.0091 -0.1682
 1931TIP3    H127208   0.786   2.703  14.030  0.0838 -0.0349  1.6092
 1931TIP3    H227209   0.824   2.812  13.933  0.8065 -1.8208 -0.1809
 1932TIP3   OH227210   1.251   1.519  11.330 -0.3376  0.4149 -0.4957
 1932TIP3    H127211   1.325   1.527  11.389 -2.0380  0.6521  1.7540
 1932TIP3    H227212   1.264   1.586  11.264  1.0719  0.9131  0.2595
 1933TIP3   OH227213   5.538   3.068  11.906  0.2072  0.2866  0.1868
 1933TIP3    H127214   5.586   3.042  11.827 -2.7202  0.6528 -1.8918
 1933TIP3    H227215   5.542   3.163  11.906 -0.4244  0.3157  0.0418
 1934TIP3   OH227216   1.373   2.917  15.893 -0.2251 -0.2642 -0.4597
 1934TIP3    H127217   1.341   3.007  15.884 -1.9444 -0.9231 -1.1790
 1934TIP3    H227218   1.322   2.880  15.965  1.4320 -0.2917  0.7599
 1935TIP3   OH227219   1.269   1.370   3.170  0.0502 -0.5393  0.1147
 1935TIP3    H127220   1.187   1.368   3.120  0.5285  3.5302 -1.1759
 1935TIP3    H227221   1.240   1.372   3.262 -1.1843 -0.8300 -0.2386
 1936TIP3   OH227222   6.323   0.400  15.380  0.2409  0.0375 -0.1353
 1936TIP3    H127223   6.271   0.435  15.308  1.2866  1.7569 -0.0987
 1936TIP3    H227224   6.357   0.477  15.426  2.4947 -0.9707  0.0683
 1937TIP3   OH227225   1.957   2.257   0.656 -0.0441 -0.2865  0.5186
 1937TIP3    H127226   1.905   2.196   0.603  0.1430 -0.7319  0.8372
 1937TIP3    H227227   1.952   2.221   0.745  0.5496 -0.1584  0.6060
 1938TIP3   OH227228   0.158   3.770  15.540  0.7464 -0.4882  0.1578
 1938TIP3    H127229   0.075   3.726  15.521  0.4541  0.5503 -1.1496
 1938TIP3    H227230   0.219   3.735  15.475  0.7996  0.2177 -0.1751
 1939TIP3   OH227231   3.782   4.182   1.648  0.6593 -0.2079 -0.0553
 1939TIP3    H127232   3.722   4.186   1.573  0.4887 -0.2518  0.0796
 1939TIP3    H227233   3.868   4.205   1.611  0.2316  1.8349  0.1338
 1940TIP3   OH227234   0.293   4.055   5.262  0.1942 -0.2204  0.0835
 1940TIP3    H127235   0.226   4.062   5.194  1.1255 -1.7588 -1.0753
 1940TIP3    H227236   0.323   3.964   5.257  1.4333  0.0702  1.4609
 1941TIP3   OH227237   2.019   0.920   1.586  0.0828  0.0445  0.7141
 1941TIP3    H127238   1.927   0.916   1.560  0.2224  0.9743 -0.0101
 1941TIP3    H227239   2.019   0.907   1.681 -0.7664 -0.2017  0.6838
 1942TIP3   OH227240   0.144   5.245   3.527 -0.2434  0.6635  0.5685
 1942TIP3    H127241   0.097   5.256   3.609  0.5003  1.1073  0.9571
 1942TIP3    H227242   0.158   5.335   3.495 -2.2242  0.4571 -1.0640
 1943TIP3   OH227243   1.334   4.955  16.615  0.5080  0.0291 -0.2920
 1943TIP3    H127244   1.374   4.918  16.694 -1.5589  1.6992  1.6604
 1943TIP3    H227245   1.359   5.047  16.616  0.0178  0.1910 -1.3156
 1944TIP3   OH227246   5.650   3.261   1.012  0.5759  0.5440 -0.1132
 1944TIP3    H127247   5.636   3.347   0.973 -0.2256 -0.3326 -1.8421
 1944TIP3    H227248   5.571   3.211   0.992  0.9521 -0.5582  0.9972
 1945TIP3   OH227249   3.513   4.137   4.025 -0.0483 -0.1642 -0.1703
 1945TIP3    H127250   3.582   4.073   4.004  1.7719  2.2897 -2.3888
 1945TIP3    H227251   3.434   4.102   3.984  1.3298 -0.2248 -3.0114
 1946TIP3   OH227252   3.374   1.863  13.240  0.5494  0.3329 -0.0793
 1946TIP3    H127253   3.302   1.823  13.190  0.8934 -0.6573  0.1939
 1946TIP3    H227254   3.338   1.946  13.270  0.2238  0.8161 -1.7014
 1947TIP3   OH227255   1.266   5.505  13.965  0.6719  0.1025  0.4417
 1947TIP3    H127256   1.339   5.444  13.978  1.2879  0.9122  0.8713
 1947TIP3    H227257   1.307   5.591  13.966 -0.4401  0.6437  1.8800
 1948TIP3   OH227258   0.612   2.411  10.892  0.0042 -0.1010 -0.5699
 1948TIP3    H127259   0.618   2.322  10.927  2.0161 -0.3139 -1.3156
 1948TIP3    H227260   0.518   2.427  10.882 -0.6357 -0.6990  3.0893
 1949TIP3   OH227261   5.298   4.816  15.296  0.1159 -0.2414 -0.1137
 1949TIP3    H127262   5.363   4.752  15.265  0.1753 -0.1134 -0.2525
 1949TIP3    H227263   5.343   4.900  15.291  1.0363 -0.4492  2.7113
 1950TIP3   OH227264   5.220   4.143  16.685  0.6635 -0.3905 -0.1346
 1950TIP3    H127265   5.253   4.077  16.623  0.9957  0.7116 -1.1886
 1950TIP3    H227266   5.152   4.098  16.734 -0.9483 -0.8572 -2.5859
 1951TIP3   OH227267   4.760   6.074   4.023  0.0687  0.1821 -0.5867
 1951TIP3    H127268   4.845   6.034   4.042 -0.4943 -0.5208  0.5932
 1951TIP3    H227269   4.706   6.052   4.099 -0.6994  1.9930 -0.5566
 1952TIP3   OH227270   4.437   5.911  13.660  0.2932  0.6065 -0.2213
 1952TIP3    H127271   4.448   6.005  13.672  1.1748  0.5665 -0.6338
 1952TIP3    H227272   4.503   5.887  13.594 -1.4622  0.0905 -1.8700
 1953TIP3   OH227273   2.249   0.124   2.127 -0.6778 -0.1190 -0.2357
 1953TIP3    H127274   2.229   0.204   2.077 -0.2765  0.3546  0.3375
 1953TIP3    H227275   2.335   0.097   2.095  0.0321  0.7511  0.8726
 1954TIP3   OH227276   1.194   2.016   5.199 -0.0108  0.8235  0.3578
 1954TIP3    H127277   1.236   2.035   5.115 -0.3063  1.4452  0.3517
 1954TIP3    H227278   1.177   1.922   5.195 -1.1953  1.0521 -0.8262
 1955TIP3   OH227279   1.015   4.093  14.485 -0.1875 -0.1045  0.2476
 1955TIP3    H127280   0.931   4.138  14.474  0.3057  0.9310  0.6010
 1955TIP3    H227281   1.068   4.121  14.410 -0.2661 -1.0388 -0.1712
 1956TIP3   OH227282   3.666   3.095  14.659 -0.4586  0.2924  0.5667
 1956TIP3    H127283   3.591   3.154  14.663  0.7086  2.0653 -1.3902
 1956TIP3    H227284   3.711   3.118  14.578  1.2211 -1.9470  0.7368
 1957TIP3   OH227285   1.669   1.228  15.936  0.8965 -0.0153  0.8857
 1957TIP3    H127286   1.670   1.174  15.857 -1.6813 -0.5397  1.1245
 1957TIP3    H227287   1.649   1.316  15.904  0.2572 -0.1476  0.9258
 1958TIP3   OH227288   4.605   1.416   3.635 -0.3468 -0.1963 -0.4223
 1958TIP3    H127289   4.572   1.426   3.725  0.3001  1.1256 -0.3094
 1958TIP3    H227290   4.653   1.497   3.618 -1.9327  0.3732 -2.5981
 1959TIP3   OH227291   5.292   4.640  13.828 -0.6628 -0.8489 -0.0594
 1959TIP3    H127292   5.313   4.698  13.902  1.0372 -1.5032  0.0052
 1959TIP3    H227293   5.332   4.683  13.752 -2.1395 -0.3407 -0.5929
 1960TIP3   OH227294   3.890   1.677   1.726  0.2387  0.5724 -0.3133
 1960TIP3    H127295   3.799   1.695   1.751  0.0602 -0.0463 -0.4836
 1960TIP3    H227296   3.936   1.759   1.742  0.2808  0.0781  2.7552
 1961TIP3   OH227297   2.141   5.275  12.544 -0.2660  0.1616  0.0260
 1961TIP3    H127298   2.160   5.206  12.481  0.5086  0.9966 -0.6967
 1961TIP3    H227299   2.223   5.325  12.550 -1.1081  1.6695 -0.3488
 1962TIP3   OH227300   4.517   4.762  13.321 -0.1788  1.1528 -0.4250
 1962TIP3    H127301   4.510   4.773  13.416  0.7398  1.3556 -0.3706
 1962TIP3    H227302   4.589   4.819  13.295  1.4645 -0.9806 -0.8489
 1963TIP3   OH227303   2.954   2.704   4.824  0.2515 -0.7084  1.0138
 1963TIP3    H127304   2.997   2.644   4.885 -1.2565 -1.5860  1.2677
 1963TIP3    H227305   2.942   2.652   4.744 -1.1026 -0.8013  1.2461
 1964TIP3   OH227306   4.370   4.964   1.694 -0.7832  0.1130 -0.0973
 1964TIP3    H127307   4.437   5.005   1.639  0.0883 -1.4105 -0.2092
 1964TIP3    H227308   4.299   4.943   1.633  0.1521 -1.5105 -0.6812
 1965TIP3   OH227309   5.177   2.828  12.375 -0.0388 -0.4083 -0.7515
 1965TIP3    H127310   5.216   2.773  12.307  0.2614  1.4277 -2.1344
 1965TIP3    H227311   5.243   2.895  12.393 -1.0638  0.5367 -0.3914
 1966TIP3   OH227312   3.870   0.675  12.997 -0.1343 -0.0193 -0.1938
 1966TIP3    H127313   3.922   0.754  12.981 -2.7518  1.9063  0.1014
 1966TIP3    H227314   3.906   0.609  12.938  2.4368  1.2220 -0.1220
 1967TIP3   OH227315   2.936   3.902   5.610 -0.3650 -0.3286  0.4864
 1967TIP3    H127316   2.942   3.992   5.642 -0.0176  0.7550 -2.3725
 1967TIP3    H227317   3.026   3.874   5.599 -0.4762 -0.9661  1.1236
 1968TIP3   OH227318   1.056   5.733   4.212 -0.5691  0.2405 -0.0595
 1968TIP3    H127319   1.034   5.643   4.187  1.5405  0.3181 -2.6785
 1968TIP3    H227320   1.076   5.777   4.129  0.6823  2.4972  1.3214
 1969TIP3   OH227321   2.308   5.287   1.225 -0.0038  0.7692  0.0184
 1969TIP3    H127322   2.261   5.247   1.152  1.3579 -0.7753 -0.0656
 1969TIP3    H227323   2.384   5.330   1.185  1.9274 -1.8564  0.6000
 1970TIP3   OH227324   5.477   3.059   0.126 -0.5695  0.0699  0.3165
 1970TIP3    H127325   5.429   3.062   0.043  1.3305 -0.8064 -0.8685
 1970TIP3    H227326   5.434   2.989   0.175 -2.0130  0.9023  0.3052
 1971TIP3   OH227327   2.369   2.678  10.915  0.9967  0.1816  0.4730
 1971TIP3    H127328   2.396   2.619  10.845  3.4919  1.4624  0.2073
 1971TIP3    H227329   2.278   2.699  10.896  1.2120 -0.5459 -1.6394
 1972TIP3   OH227330   5.715   2.928   2.832  0.0476 -0.3383 -0.4408
 1972TIP3    H127331   5.689   2.958   2.745 -2.4378 -0.1344  0.2869
 1972TIP3    H227332   5.756   2.843   2.817  0.4316  0.0744 -1.8762
 1973TIP3   OH227333   5.761   3.752   6.198  0.3037 -0.3961  0.1951
 1973TIP3    H127334   5.795   3.713   6.117  1.7874  1.5951 -0.2129
 1973TIP3    H227335   5.772   3.846   6.186  0.5750 -0.0366  2.7144
 1974TIP3   OH227336   3.815   2.479   6.151  0.2150  0.6634  0.0541
 1974TIP3    H127337   3.722   2.480   6.171  0.3021  1.5551  0.4920
 1974TIP3    H227338   3.835   2.570   6.127  0.3962 -0.0260 -2.8286
 1975TIP3   OH227339   1.873   3.064   3.193  0.4084 -0.4314  0.3231
 1975TIP3    H127340   1.835   3.026   3.114  1.7217  1.0103 -1.0826
 1975TIP3    H227341   1.963   3.031   3.196  1.6597  2.4450 -1.0473
 1976TIP3   OH227342   2.855   0.210  12.322  0.3639 -0.5861 -0.5450
 1976TIP3    H127343   2.791   0.234  12.254  1.0350 -0.4769 -1.1464
 1976TIP3    H227344   2.843   0.116  12.333  1.2014 -0.8771 -1.8431
 1977TIP3   OH227345   5.643   3.797  13.767 -0.1707  0.3419  0.2265
 1977TIP3    H127346   5.705   3.725  13.777  0.5976  0.5611 -2.2552
 1977TIP3    H227347   5.638   3.811  13.672 -2.2670  1.8697  0.4927
 1978TIP3   OH227348   4.084   6.087   3.373 -0.1132 -0.3070  0.1715
 1978TIP3    H127349   4.173   6.052   3.379 -0.3317 -0.8243  0.5540
 1978TIP3    H227350   4.064   6.117   3.461 -0.5577 -0.8174  0.2543
 1979TIP3   OH227351   0.827   5.229   3.751  0.4478 -0.7675 -0.2032
 1979TIP3    H127352   0.813   5.323   3.763 -0.3298 -0.9802  0.6497
 1979TIP3    H227353   0.883   5.203   3.824 -2.0061 -1.5413  1.5444
 1980TIP3   OH227354   2.983   1.032  15.193 -0.0564  0.0164  0.0006
 1980TIP3    H127355   2.943   1.105  15.241  0.7330  0.7241 -0.3939
 1980TIP3    H227356   2.949   1.041  15.104  1.7070  1.2358 -0.6010
 1981TIP3   OH227357   1.736   3.456   1.410 -0.2207  0.2335  0.0188
 1981TIP3    H127358   1.820   3.437   1.452 -0.2270  0.0793 -0.0372
 1981TIP3    H227359   1.742   3.548   1.384 -0.0048  0.1780 -0.1317
 1982TIP3   OH227360   2.411   0.176   6.395  0.0336  0.3647  0.4346
 1982TIP3    H127361   2.460   0.125   6.460  0.9284 -0.3420 -0.7384
 1982TIP3    H227362   2.475   0.193   6.325 -1.0882  0.4396 -0.6056
 1983TIP3   OH227363   4.143   2.676   1.633  0.4044  0.1852  0.2196
 1983TIP3    H127364   4.162   2.668   1.540 -0.2679 -1.0222  0.1597
 1983TIP3    H227365   4.130   2.585   1.662 -2.8031  0.7208  0.7506
 1984TIP3   OH227366   1.144   0.614  14.627  0.5002  0.4507 -0.0217
 1984TIP3    H127367   1.077   0.618  14.695 -0.7691  0.9232 -1.2547
 1984TIP3    H227368   1.166   0.705  14.609 -1.6512  0.5835 -2.5384
 1985TIP3   OH227369   5.159   4.156   0.737  0.1904  0.2945 -0.2052
 1985TIP3    H127370   5.087   4.176   0.677  1.0534  1.4234 -0.8946
 1985TIP3    H227371   5.134   4.073   0.777 -1.7078  0.8831 -0.0918
 1986TIP3   OH227372   5.447   2.188   2.660  0.0722  0.7444  0.1007
 1986TIP3    H127373   5.469   2.231   2.742 -2.5812  0.8179  0.8793
 1986TIP3    H227374   5.437   2.259   2.597  2.4407  0.6652 -0.4493
 1987TIP3   OH227375   0.165   5.880  15.249 -0.0509  0.3978  0.5402
 1987TIP3    H127376   0.171   5.805  15.189 -0.2446  0.4342  0.4743
 1987TIP3    H227377   0.130   5.843  15.330 -0.3430  0.4519  0.4410
 1988TIP3   OH227378   5.429   4.010  13.762  0.0278 -0.1988 -0.0226
 1988TIP3    H127379   5.399   3.969  13.681  0.6906  1.1638 -0.9975
 1988TIP3    H227380   5.516   3.972  13.778  0.7191  0.8899 -1.0230
 1989TIP3   OH227381   1.872   3.348   0.501 -0.5861 -0.1448 -0.4476
 1989TIP3    H127382   1.904   3.412   0.564 -0.6333 -0.2195 -0.3485
 1989TIP3    H227383   1.950   3.298   0.476 -0.7886 -1.0366  0.5976
 1990TIP3   OH227384   0.243   3.412  14.033  0.5366 -0.6879  0.0344
 1990TIP3    H127385   0.276   3.346  13.972 -1.1023 -1.1510 -0.4072
 1990TIP3    H227386   0.238   3.366  14.117  0.9854 -0.6237  0.0967
 1991TIP3   OH227387   4.368   2.264   0.472 -0.0670 -0.5044  0.0544
 1991TIP3    H127388   4.377   2.233   0.563  1.2190 -0.7396 -0.1357
 1991TIP3    H227389   4.277   2.296   0.467 -1.6012 -4.2733  0.2677
 1992TIP3   OH227390   0.584   6.660   0.456  0.3789 -0.0994  0.3685
 1992TIP3    H127391   0.542   6.608   0.524  0.2757  1.0060  1.1764
 1992TIP3    H227392   0.666   6.689   0.495  1.2367 -1.0367 -0.6797
 1993TIP3   OH227393   6.624   1.417   3.253  0.6826 -0.5048 -0.2446
 1993TIP3    H127394   6.569   1.347   3.287  0.0113 -0.3650 -1.0056
 1993TIP3    H227395   6.699   1.420   3.312 -0.3708 -0.3449  1.1316
 1994TIP3   OH227396   4.329   1.173   3.411  0.6560  0.3457 -0.0606
 1994TIP3    H127397   4.236   1.158   3.393  0.2311  2.1239  0.3973
 1994TIP3    H227398   4.348   1.116   3.486  0.6037 -1.8112 -1.6051
 1995TIP3   OH227399   1.472   0.021   4.951 -0.0339 -0.0004 -0.1103
 1995TIP3    H127400   1.490   0.083   4.880 -0.9605  0.9920  0.4761
 1995TIP3    H227401   1.384  -0.011   4.934  0.9368 -2.2680 -1.1562
 1996TIP3   OH227402   3.790   2.956  17.117 -0.2581  0.3950 -0.1433
 1996TIP3    H127403   3.779   2.872  17.073  1.3502  0.7200 -1.2423
 1996TIP3    H227404   3.754   3.021  17.056  1.0873  0.7555 -0.5824
 1997TIP3   OH227405   3.536   5.014   1.135  0.2585 -0.3049 -0.0317
 1997TIP3    H127406   3.537   4.922   1.161 -0.1817 -0.8783 -1.8666
 1997TIP3    H227407   3.603   5.021   1.067  1.7175  1.2190  1.4620
 1998TIP3   OH227408   3.280   2.477   0.993  0.0684  0.2332  0.1754
 1998TIP3    H127409   3.239   2.506   0.912  1.5558  0.1433 -0.6531
 1998TIP3    H227410   3.328   2.398   0.969  1.8182  1.0683  0.7372
 1999TIP3   OH227411   1.804   0.064  11.969 -0.4162 -0.2718 -0.7227
 1999TIP3    H127412   1.817   0.119  11.891  2.0548 -1.4325 -1.2281
 1999TIP3    H227413   1.715   0.032  11.961 -0.4226  0.1189 -2.8006
 2000TIP3   OH227414   1.561   0.373   2.259 -0.0731 -0.2084  0.2231
 2000TIP3    H127415   1.630   0.430   2.294  0.8197 -0.6509 -0.7654
 2000TIP3    H227416   1.496   0.370   2.329 -0.0810  1.8900  0.3702
 2001TIP3   OH227417   3.481   0.366  11.970 -0.8634 -0.1651 -0.4839
 2001TIP3    H127418   3.395   0.324  11.962 -0.3174 -1.4586  0.2816
 2001TIP3    H227419   3.536   0.302  12.015  0.3636  0.8630 -0.4555
 2002TIP3   OH227420   3.729   5.682   2.978  0.0863  0.4534 -0.4910
 2002TIP3    H127421   3.668   5.611   3.001 -0.4486  0.6841 -1.1711
 2002TIP3    H227422   3.765   5.710   3.062 -0.3911 -0.0110 -0.1207
 2003TIP3   OH227423   2.086   0.555  14.304  0.0419  0.3885  0.2173
 2003TIP3    H127424   2.100   0.461  14.292  0.6063  0.6080 -0.9491
 2003TIP3    H227425   2.004   0.572  14.257  1.0765  0.8466 -1.4994
 2004TIP3   OH227426   0.892   2.495   2.922 -0.3227  0.1310  0.3255
 2004TIP3    H127427   0.799   2.475   2.917 -0.0347 -2.2845  2.3491
 2004TIP3    H227428   0.935   2.418   2.886  0.9299  1.1944 -0.5373
 2005TIP3   OH227429   3.837   2.709   2.375  0.0617  0.1537 -0.1329
 2005TIP3    H127430   3.753   2.690   2.334  0.2430  1.2854 -1.0905
 2005TIP3    H227431   3.859   2.630   2.424 -1.9122  0.1114  0.7573
 2006TIP3   OH227432   1.639   1.912  12.427 -0.3291  0.2101  0.6816
 2006TIP3    H127433   1.573   1.850  12.458 -0.4732  1.6079  3.4156
 2006TIP3    H227434   1.704   1.915  12.497  1.6301  0.4317 -1.0402
 2007TIP3   OH227435   4.889   2.580  15.267 -0.2764 -0.2127  0.0299
 2007TIP3    H127436   4.973   2.548  15.300 -1.2134 -1.7490  1.0449
 2007TIP3    H227437   4.880   2.667  15.306 -0.7253 -1.4323  2.8971
 2008TIP3   OH227438   5.914   5.836   6.858 -0.3684 -0.2075  0.0969
 2008TIP3    H127439   5.860   5.888   6.798  1.8601 -0.2279 -2.0623
 2008TIP3    H227440   5.998   5.825   6.813  1.3549 -0.5397  3.0938
 2009TIP3   OH227441   4.928   0.577   4.650 -0.1167 -0.1987  0.1108
 2009TIP3    H127442   5.021   0.587   4.633  0.4283 -1.3220  2.2018
 2009TIP3    H227443   4.899   0.511   4.586  0.4626  0.2789 -0.6554
 2010TIP3   OH227444   2.711   6.655   2.129 -0.0865 -0.2886  0.0198
 2010TIP3    H127445   2.665   6.571   2.130  1.7130 -1.3446  1.1045
 2010TIP3    H227446   2.764   6.652   2.049 -0.9154  0.3774 -0.5745
 2011TIP3   OH227447   4.750   1.138   4.306  0.6076  0.3684  0.0037
 2011TIP3    H127448   4.842   1.110   4.309  0.6385  0.5602  2.4425
 2011TIP3    H227449   4.729   1.161   4.396 -2.3625 -1.2669 -0.1456
 2012TIP3   OH227450   1.454   1.822  11.669 -0.5408  0.1205  0.4611
 2012TIP3    H127451   1.486   1.794  11.755 -1.2624  1.8870  1.3579
 2012TIP3    H227452   1.526   1.874  11.633 -0.0397 -1.0398 -0.2527
 2013TIP3   OH227453   4.606   0.211  16.028 -0.6732  0.2921 -0.1218
 2013TIP3    H127454   4.573   0.281  16.085  2.3780 -0.1759  2.4992
 2013TIP3    H227455   4.657   0.258  15.962  1.5166  0.7038  1.7300
 2014TIP3   OH227456   6.477   3.478   2.364  0.0895  0.5505 -0.1980
 2014TIP3    H127457   6.459   3.534   2.288 -0.5876  0.2449 -0.2721
 2014TIP3    H227458   6.405   3.496   2.425  0.2389  0.2632  0.0633
 2015TIP3   OH227459   3.919   4.259  16.440  0.5561 -0.1109 -0.3877
 2015TIP3    H127460   3.914   4.187  16.503  0.4644 -0.1867 -0.4814
 2015TIP3    H227461   4.000   4.304  16.461 -0.8174  1.6061  1.6765
 2016TIP3   OH227462   0.520   5.820   4.188  0.0988 -0.1217  0.2363
 2016TIP3    H127463   0.534   5.827   4.282  0.5996 -0.8523  0.2292
 2016TIP3    H227464   0.589   5.873   4.149  1.6328 -1.9897  0.2479
 2017TIP3   OH227465   3.833   0.621  17.313 -0.0269  0.0957  0.3972
 2017TIP3    H127466   3.911   0.587  17.356  0.5002  1.5697  0.6663
 2017TIP3    H227467   3.794   0.545  17.270  2.0754 -0.4974 -0.5647
 2018TIP3   OH227468   1.170   3.472  14.812  0.1325  0.2426  0.1652
 2018TIP3    H127469   1.137   3.497  14.899  1.1253 -0.0571  0.6414
 2018TIP3    H227470   1.210   3.552  14.778 -2.1157  0.9746 -0.9584
 2019TIP3   OH227471   6.486   1.255  16.222  0.2473  0.3807  0.0020
 2019TIP3    H127472   6.452   1.211  16.299 -0.4258  0.3359 -0.3142
 2019TIP3    H227473   6.576   1.280  16.246  1.3894 -2.8388 -0.4656
 2020TIP3   OH227474   4.899   3.141  10.626 -0.1307 -0.9514  0.7675
 2020TIP3    H127475   4.982   3.168  10.585  0.5175  0.1626  2.7027
 2020TIP3    H227476   4.870   3.219  10.674 -2.1445 -1.4455  0.4270
 2021TIP3   OH227477   2.829   5.704  16.744 -0.1557  0.4383 -0.2174
 2021TIP3    H127478   2.880   5.784  16.728 -0.1135  0.2707 -0.9442
 2021TIP3    H227479   2.739   5.729  16.723 -0.1033  0.2248 -0.7089
 2022TIP3   OH227480   5.825   3.635   4.553 -0.9090 -0.3450 -0.0882
 2022TIP3    H127481   5.831   3.544   4.583 -1.0689 -0.3795 -0.1556
 2022TIP3    H227482   5.835   3.688   4.632  1.1999 -0.3508 -0.2839
 2023TIP3   OH227483   6.347   5.002   3.667 -0.2853  0.7534  0.6640
 2023TIP3    H127484   6.313   5.039   3.748 -0.1184  0.0899  1.0457
 2023TIP3    H227485   6.432   4.965   3.692  0.2114  1.3966 -0.0279
 2024TIP3   OH227486   5.817   5.494  14.482  0.0801 -0.8488  0.1571
 2024TIP3    H127487   5.751   5.458  14.543 -1.1242 -0.8115 -1.0711
 2024TIP3    H227488   5.882   5.534  14.539 -1.8397  0.6708  1.4355
 2025TIP3   OH227489   2.457   6.140  13.652 -0.4916 -0.0486 -0.0377
 2025TIP3    H127490   2.451   6.094  13.736  1.5731  0.5296  0.4671
 2025TIP3    H227491   2.499   6.078  13.593  0.3183  0.4016  0.0531
 2026TIP3   OH227492   2.183   2.828   5.618 -0.4537 -0.4829  0.2166
 2026TIP3    H127493   2.255   2.777   5.581  0.4846  1.4922 -0.8142
 2026TIP3    H227494   2.123   2.842   5.545 -0.9258 -0.4555  0.5982
 2027TIP3   OH227495   5.773   0.787   1.626  0.4348 -0.0838 -0.3078
 2027TIP3    H127496   5.707   0.726   1.657  1.4582 -1.5759 -0.9336
 2027TIP3    H227497   5.727   0.869   1.613 -0.9082 -0.6074  0.9365
 2028TIP3   OH227498   1.368   6.421  15.356  0.2444 -0.5145 -0.1291
 2028TIP3    H127499   1.322   6.394  15.277  1.2772 -0.1914 -0.8677
 2028TIP3    H227500   1.399   6.509  15.337 -1.2453  0.4098  1.4287
 2029TIP3   OH227501   0.645   1.804   4.682 -0.4834 -0.7720  0.0696
 2029TIP3    H127502   0.669   1.784   4.773 -1.0014  0.1156  0.4186
 2029TIP3    H227503   0.598   1.887   4.688  0.6526 -0.0015 -1.1705
 2030TIP3   OH227504   5.993   5.093   2.355  0.3542 -0.2125  0.2861
 2030TIP3    H127505   5.957   5.082   2.268 -1.3686 -0.2466  0.9724
 2030TIP3    H227506   6.072   5.145   2.342 -1.7379  2.9154 -0.9366
 2031TIP3   OH227507   0.967   5.601   1.150 -0.4195  0.3583  0.3897
 2031TIP3    H127508   0.933   5.549   1.223 -1.2921 -0.4366 -0.5629
 2031TIP3    H227509   0.899   5.596   1.083  0.7721  0.2994 -0.8538
 2032TIP3   OH227510   3.102   3.560  11.881  0.0212 -0.4515  0.0857
 2032TIP3    H127511   3.105   3.465  11.884 -2.2881 -0.5657  0.4379
 2032TIP3    H227512   3.136   3.589  11.965  2.0695 -0.8715 -0.5593
 2033TIP3   OH227513   6.476   3.406  17.378 -0.6516 -0.5006  0.0119
 2033TIP3    H127514   6.534   3.389  17.304 -0.7887 -2.1602  0.2507
 2033TIP3    H227515   6.404   3.457  17.341  0.6814  1.1778 -0.3808
 2034TIP3   OH227516   2.212   1.858   4.668  0.0403  0.4747  0.2749
 2034TIP3    H127517   2.243   1.937   4.624  1.1949  0.8090  1.6118
 2034TIP3    H227518   2.130   1.836   4.624  0.4438  1.5709 -1.0857
 2035TIP3   OH227519   6.086   2.976  16.730  0.3140 -0.2657  0.3711
 2035TIP3    H127520   6.072   3.066  16.701  1.1186 -0.3301 -0.2273
 2035TIP3    H227521   6.160   2.944  16.678 -1.7310 -2.2327 -1.5587
 2036TIP3   OH227522   0.683   6.578  16.991  0.6058  0.3779 -0.2393
 2036TIP3    H127523   0.640   6.606  17.072 -0.3877 -0.7429 -0.3455
 2036TIP3    H227524   0.776   6.586  17.008  0.8176 -4.7282  3.0322
 2037TIP3   OH227525   1.062   3.100  17.009 -0.2933 -0.1628 -0.4758
 2037TIP3    H127526   1.079   3.091  16.916  0.5992 -1.8774 -0.2055
 2037TIP3    H227527   0.967   3.097  17.017 -0.4764  1.7560 -1.4297
 2038TIP3   OH227528   4.365   3.960   2.264 -0.0288  0.0209  0.1901
 2038TIP3    H127529   4.343   3.944   2.173 -1.0344 -0.0600  0.4396
 2038TIP3    H227530   4.281   3.980   2.306  0.2083 -1.3378  1.3793
 2039TIP3   OH227531   2.100   1.651   5.770 -0.5095 -0.1060 -0.3366
 2039TIP3    H127532   2.123   1.742   5.786 -2.8192  0.6739 -1.0457
 2039TIP3    H227533   2.152   1.626   5.693 -0.9273  1.0844 -1.0229
 2040TIP3   OH227534   2.422   2.195  15.874  0.5737  0.4791  0.2669
 2040TIP3    H127535   2.470   2.250  15.812 -0.1292  0.9666  0.1466
 2040TIP3    H227536   2.429   2.106  15.839 -1.4257  0.9683 -1.5941
 2041TIP3   OH227537   3.419   2.687  12.562  0.2238 -0.2706 -0.3597
 2041TIP3    H127538   3.359   2.697  12.635 -0.1186 -0.9529 -0.5393
 2041TIP3    H227539   3.370   2.635  12.498  1.7668 -2.8422  0.4138
 2042TIP3   OH227540   2.600   1.072   5.924  0.0022  0.5586  0.1199
 2042TIP3    H127541   2.644   1.086   6.008  1.8518 -0.5498 -0.6005
 2042TIP3    H227542   2.640   1.136   5.865 -0.2072  0.3392 -0.2672
 2043TIP3   OH227543   3.821   5.472   0.228 -0.5417  0.0647 -0.2596
 2043TIP3    H127544   3.759   5.530   0.182 -0.6172 -0.9900 -1.5655
 2043TIP3    H227545   3.766   5.400   0.261 -0.4130  0.5767  1.1209
 2044TIP3   OH227546   2.114   4.422  12.469  0.1906 -0.1166 -0.2480
 2044TIP3    H127547   2.075   4.337  12.491  0.0596 -0.2958 -1.1266
 2044TIP3    H227548   2.043   4.485  12.482  0.2619 -0.1511  0.3169
 2045TIP3   OH227549   4.111   0.290   1.401  0.0845 -0.1848  0.7972
 2045TIP3    H127550   4.161   0.335   1.333  0.1676 -0.7694  0.4569
 2045TIP3    H227551   4.035   0.345   1.417 -0.5495 -0.6143 -0.6265
 2046TIP3   OH227552   6.082   3.079   5.251 -0.0707 -0.1423 -0.7645
 2046TIP3    H127553   6.110   3.101   5.162  0.1974  1.6409 -0.2853
 2046TIP3    H227554   5.992   3.111   5.256  0.0135  0.0350 -0.3135
 2047TIP3   OH227555   5.864   5.520  13.946 -0.2227  0.3018 -0.6961
 2047TIP3    H127556   5.901   5.529  14.035  1.3883  0.5157 -1.3478
 2047TIP3    H227557   5.806   5.596  13.936  0.7948  1.1559 -0.3621
 2048TIP3   OH227558   4.531   4.828   5.144 -0.1646  0.1982  0.0986
 2048TIP3    H127559   4.486   4.895   5.195  0.1753  1.7370 -1.5228
 2048TIP3    H227560   4.530   4.751   5.200 -3.2575  0.6412  0.8495
 2049TIP3   OH227561   5.266   4.661   1.998  0.2391  0.2539 -0.1037
 2049TIP3    H127562   5.296   4.701   1.916  2.4906 -2.4452 -0.7361
 2049TIP3    H227563   5.174   4.640   1.982  0.8083 -0.8882 -2.2924
 2050TIP3   OH227564   6.366   2.488  13.485 -0.4883 -0.0882  0.2513
 2050TIP3    H127565   6.379   2.451  13.572 -0.9370  1.5283  1.0532
 2050TIP3    H227566   6.271   2.498  13.477 -0.4523 -0.3181 -0.4578
 2051TIP3   OH227567   4.043   0.549  11.947 -0.9155 -0.4247  0.5490
 2051TIP3    H127568   4.136   0.538  11.968 -1.1594 -0.6939  1.5598
 2051TIP3    H227569   4.009   0.460  11.941 -0.8235 -0.3803 -1.3080
 2052TIP3   OH227570   0.711   3.567   5.994 -0.6992  0.0233  0.2741
 2052TIP3    H127571   0.766   3.644   5.980 -1.5392  1.0712  2.2161
 2052TIP3    H227572   0.657   3.590   6.070 -0.7724 -2.6073  1.1329
 2053TIP3   OH227573   2.612   3.058   5.725 -0.2873  0.3289  0.1039
 2053TIP3    H127574   2.612   2.962   5.721 -2.1108  0.3133  0.0553
 2053TIP3    H227575   2.640   3.085   5.638  2.7494 -0.0891  0.8001
 2054TIP3   OH227576   4.505   0.536  12.754  0.0544  0.4835 -0.2052
 2054TIP3    H127577   4.564   0.610  12.767  0.6165  0.0161 -0.0570
 2054TIP3    H227578   4.500   0.493  12.839 -0.9447  0.8289 -0.0716
 2055TIP3   OH227579   5.626   4.547  17.174  0.2503  0.4685 -0.4918
 2055TIP3    H127580   5.643   4.563  17.081 -0.9512 -0.9941 -0.9954
 2055TIP3    H227581   5.677   4.469  17.195  0.4439  0.7373  0.0783
 2056TIP3   OH227582   0.323   4.016   3.084 -0.1387 -0.3978 -0.0461
 2056TIP3    H127583   0.337   4.105   3.116  0.8270 -0.0828 -1.2897
 2056TIP3    H227584   0.393   4.002   3.020 -0.2726 -2.0576  0.1339
 2057TIP3   OH227585   5.942   4.890  14.103  0.0231 -0.4789  0.4227
 2057TIP3    H127586   5.897   4.884  14.019 -0.1559 -0.5442  0.5217
 2057TIP3    H227587   6.007   4.820  14.100  0.3722 -0.1510  0.1294
 2058TIP3   OH227588   2.567   1.034   6.416 -0.3301  0.6062  0.1499
 2058TIP3    H127589   2.529   1.117   6.391 -0.6989  0.2529 -0.4996
 2058TIP3    H227590   2.596   1.046   6.506 -1.7421  0.9621  0.5737
 2059TIP3   OH227591   3.930   0.796   3.634 -0.2184  0.5875  0.4753
 2059TIP3    H127592   4.021   0.787   3.665  0.0680 -0.2396 -0.5516
 2059TIP3    H227593   3.895   0.868   3.686  0.7416  0.3339  1.5397
 2060TIP3   OH227594   0.051   0.658  12.156 -0.0033 -0.1359 -0.0985
 2060TIP3    H127595  -0.014   0.706  12.208  0.5257  1.4761 -0.8796
 2060TIP3    H227596   0.099   0.726  12.109  2.1556 -1.2993  0.3176
 2061TIP3   OH227597   0.718   1.924   5.842  0.0375 -0.2527 -0.1119
 2061TIP3    H127598   0.790   1.984   5.862  0.7327 -1.2568  0.5163
 2061TIP3    H227599   0.647   1.952   5.899  0.1575  0.3235 -0.2361
 2062TIP3   OH227600   0.445   4.723  17.148  0.4589  0.3114 -0.1521
 2062TIP3    H127601   0.370   4.672  17.119  0.2387  0.0320  0.8923
 2062TIP3    H227602   0.478   4.764  17.068 -1.5697  1.4765 -0.4589
 2063TIP3   OH227603   4.766   4.325  15.106 -0.3789 -0.2662 -0.1786
 2063TIP3    H127604   4.694   4.351  15.164 -0.5565  0.8610 -0.8718
 2063TIP3    H227605   4.803   4.248  15.148 -0.2776  0.7125  1.6600
 2064TIP3   OH227606   2.372   1.324  15.155  0.2444  0.2252  0.1878
 2064TIP3    H127607   2.329   1.298  15.073  2.0180 -0.6525 -0.5395
 2064TIP3    H227608   2.358   1.418  15.161 -1.2971  0.0521 -0.2560
 2065TIP3   OH227609   3.645   5.247   1.520 -0.2816  0.9977  0.0303
 2065TIP3    H127610   3.636   5.172   1.578  0.1288  1.2144  0.3703
 2065TIP3    H227611   3.724   5.229   1.469 -2.4858 -0.9725 -3.0692
 2066TIP3   OH227612   6.400   3.733  11.906  0.3797 -0.2068  0.1752
 2066TIP3    H127613   6.430   3.762  11.820 -0.4777 -0.8991 -0.3671
 2066TIP3    H227614   6.432   3.643  11.915 -0.2800 -0.4387  0.2111
 2067TIP3   OH227615   6.578   1.359  11.105 -0.4494 -0.2112 -0.2322
 2067TIP3    H127616   6.642   1.298  11.068  0.9742 -1.7212  4.1318
 2067TIP3    H227617   6.627   1.409  11.170 -3.5062 -1.9402  3.8879
 2068TIP3   OH227618   3.065   0.322  13.327 -0.0119  0.9713  0.0887
 2068TIP3    H127619   3.000   0.390  13.312 -0.6075  1.0178  2.4297
 2068TIP3    H227620   3.142   0.350  13.277  0.1372  3.9761  1.7431
 2069TIP3   OH227621   4.265   2.331   1.300  0.0956  0.5457 -0.1689
 2069TIP3    H127622   4.361   2.334   1.294  0.2995 -2.9900 -0.6480
 2069TIP3    H227623   4.237   2.289   1.219 -1.4861 -1.9094  1.5351
 2070TIP3   OH227624   5.317   0.246  11.782  0.0403 -0.2105  0.3839
 2070TIP3    H127625   5.271   0.252  11.866  0.7258 -1.3841  0.8560
 2070TIP3    H227626   5.394   0.193  11.800 -0.2829 -1.2817 -1.2038
 2071TIP3   OH227627   5.356   5.038   3.386  0.0026  0.3676 -0.2099
 2071TIP3    H127628   5.435   4.996   3.419 -0.4111 -2.0813 -2.0520
 2071TIP3    H227629   5.387   5.103   3.324  0.5863  1.2827  0.9869
 2072TIP3   OH227630   2.969   3.708   4.354  0.2806  0.2630  0.4397
 2072TIP3    H127631   2.947   3.689   4.444  1.0088  1.5985  0.9368
 2072TIP3    H227632   3.062   3.729   4.356  0.0698  1.3969 -0.4069
 2073TIP3   OH227633   5.325   1.716  17.018  0.0973 -0.0520 -0.0503
 2073TIP3    H127634   5.276   1.717  17.100  1.8447 -2.4762  1.1054
 2073TIP3    H227635   5.398   1.776  17.032  0.7511 -0.9484  0.4216
 2074TIP3   OH227636   0.470   4.849  12.702 -0.4030 -0.0056  0.1206
 2074TIP3    H127637   0.461   4.944  12.703  1.2206  0.1870 -0.3980
 2074TIP3    H227638   0.385   4.816  12.733 -0.2299  1.6415  2.6861
 2075TIP3   OH227639   4.522   3.157   5.125  0.1388  0.2451 -0.2599
 2075TIP3    H127640   4.436   3.197   5.115  0.8601  2.1189  0.5996
 2075TIP3    H227641   4.545   3.128   5.037 -1.0020  0.4872 -0.6570
 2076TIP3   OH227642   6.321   4.263   0.745 -0.0419  0.1413 -0.2733
 2076TIP3    H127643   6.329   4.191   0.682  1.0887  0.9478 -1.0745
 2076TIP3    H227644   6.264   4.327   0.702  0.8229  0.7449 -0.5412
 2077TIP3   OH227645   5.817   5.150   1.017 -0.4506  0.3509 -0.1608
 2077TIP3    H127646   5.755   5.214   0.983 -0.3287  0.7387  0.3317
 2077TIP3    H227647   5.882   5.140   0.947 -0.1167  1.2565  0.0140
 2078TIP3   OH227648   1.821   5.804  10.980 -0.7829  0.1005 -0.0617
 2078TIP3    H127649   1.850   5.879  10.929 -0.6781 -0.2350 -0.5070
 2078TIP3    H227650   1.737   5.830  11.017 -1.4288 -0.0621 -1.3609
 2079TIP3   OH227651   6.673   5.566   0.028  0.3738 -0.2311  0.2801
 2079TIP3    H127652   6.635   5.632   0.086 -1.2498  0.0472 -1.0108
 2079TIP3    H227653   6.689   5.491   0.085 -1.1444  0.0398  1.1234
 2080TIP3   OH227654   2.114   2.527  13.722 -0.0006 -0.1269 -0.0606
 2080TIP3    H127655   2.201   2.487  13.730 -0.4220 -1.4479 -1.6051
 2080TIP3    H227656   2.109   2.588  13.796  0.9956 -2.3331  1.9657
 2081TIP3   OH227657   4.340   3.162  14.513  0.5459 -0.4336 -0.0862
 2081TIP3    H127658   4.396   3.175  14.437  4.1739 -0.3294  2.3489
 2081TIP3    H227659   4.352   3.070  14.537 -2.1521 -1.0365 -0.6506
 2082TIP3   OH227660   4.249   0.049   2.688  0.6336 -0.2596 -0.3856
 2082TIP3    H127661   4.180  -0.009   2.721  0.1834  0.5451  0.1140
 2082TIP3    H227662   4.318   0.043   2.754  0.7777 -0.5689 -0.5618
 2083TIP3   OH227663   5.742   2.979  14.366  0.3518  0.8685 -0.3508
 2083TIP3    H127664   5.679   3.042  14.401 -0.7932 -0.1583 -0.4982
 2083TIP3    H227665   5.766   2.925  14.442 -0.5993 -0.0821 -0.6940
 2084TIP3   OH227666   0.770   2.335  16.470 -0.2281  0.0165  0.4096
 2084TIP3    H127667   0.811   2.387  16.402 -0.6324 -0.3827 -0.1496
 2084TIP3    H227668   0.757   2.396  16.543 -0.3545  0.6044 -0.0976
 2085TIP3   OH227669   5.555   2.843   1.050 -0.1905 -0.2736 -0.2708
 2085TIP3    H127670   5.649   2.854   1.039 -0.0141 -0.6713  0.7139
 2085TIP3    H227671   5.529   2.914   1.109 -0.7782  0.7204 -1.6951
 2086TIP3   OH227672   0.063   6.270   1.025  0.2000 -0.0116  0.5797
 2086TIP3    H127673   0.066   6.348   0.969 -1.5458  0.0382  0.4962
 2086TIP3    H227674   0.132   6.284   1.090 -1.1914  2.4694  1.6450
 2087TIP3   OH227675   5.755   6.186   4.880 -0.5664 -0.3665  0.0113
 2087TIP3    H127676   5.756   6.090   4.884  0.7163 -0.4153 -0.8674
 2087TIP3    H227677   5.709   6.205   4.797 -1.3743 -0.1886  0.4872
 2088TIP3   OH227678   0.822   5.938  12.709 -0.1841 -0.2666 -1.0640
 2088TIP3    H127679   0.880   5.920  12.783  0.2399  1.0854 -1.0366
 2088TIP3    H227680   0.761   6.004  12.743 -2.2133 -2.1479 -0.8778
 2089TIP3   OH227681   4.348   4.241  12.448 -0.3072  0.4780  0.2719
 2089TIP3    H127682   4.287   4.293  12.396  2.9313  3.0560 -1.2902
 2089TIP3    H227683   4.379   4.173  12.388  2.2977  2.5346 -0.8858
 2090TIP3   OH227684   1.345   1.391   0.092  0.0862 -0.1189 -0.2912
 2090TIP3    H127685   1.327   1.367   0.183 -0.1008  0.6486 -0.1140
 2090TIP3    H227686   1.298   1.326   0.040 -1.5887  0.6602  0.1658
 2091TIP3   OH227687   0.108   0.687   1.917 -0.3126  0.7920 -0.2803
 2091TIP3    H127688   0.203   0.680   1.925 -0.3913  0.2991  0.2730
 2091TIP3    H227689   0.090   0.667   1.825  0.0905  0.5651 -0.3130
 2092TIP3   OH227690   3.316   3.006   4.111  0.5332 -0.4037 -0.3575
 2092TIP3    H127691   3.235   2.979   4.153 -0.1406  1.3738 -0.4079
 2092TIP3    H227692   3.307   3.101   4.101  2.2527 -0.2841 -1.1556
 2093TIP3   OH227693   0.450   1.411  10.991  0.5077 -0.6874 -0.1324
 2093TIP3    H127694   0.511   1.338  11.001  0.0699 -1.1639 -0.8074
 2093TIP3    H227695   0.385   1.398  11.060  0.7368 -0.6082  0.1026
 2094TIP3   OH227696   0.136   4.151   4.002 -0.3590 -0.0638  0.0800
 2094TIP3    H127697   0.168   4.090   3.935  0.5729 -1.3812  1.6373
 2094TIP3    H227698   0.108   4.228   3.953 -1.4012 -1.6445 -1.9662
 2095TIP3   OH227699   1.144   2.009   3.073 -0.2551  0.4135 -0.2718
 2095TIP3    H127700   1.053   1.980   3.070 -0.2161  0.3597 -2.6202
 2095TIP3    H227701   1.138   2.102   3.094 -0.9674  0.7178 -1.7099
 2096TIP3   OH227702   2.924   1.026  14.274  0.7583  0.0013  0.8603
 2096TIP3    H127703   3.002   0.971  14.282  0.5198 -0.2997  1.1199
 2096TIP3    H227704   2.860   0.986  14.332  0.1573 -0.1987  0.0821
 2097TIP3   OH227705   3.857   2.737   5.380  0.3688  0.1216  0.0247
 2097TIP3    H127706   3.886   2.697   5.298  0.1401 -2.0122  0.9299
 2097TIP3    H227707   3.936   2.776   5.417  0.6239  0.4295 -0.8217
 2098TIP3   OH227708   2.678   6.036   4.030  0.0111  0.1667 -0.2327
 2098TIP3    H127709   2.608   6.076   4.083 -0.6646 -0.3868 -0.6776
 2098TIP3    H227710   2.692   5.950   4.071  0.8958  0.5366  0.2456
 2099TIP3   OH227711   1.194   0.980  12.293  0.2830 -0.3223 -0.1850
 2099TIP3    H127712   1.223   0.926  12.367  2.7267  0.2992 -0.5730
 2099TIP3    H227713   1.153   1.056  12.333  0.2078 -0.7046  0.4805
 2100TIP3   OH227714   2.828   5.023  12.928 -0.1258  0.3105 -0.4213
 2100TIP3    H127715   2.839   4.946  12.984 -1.4601  0.3915  0.0037
 2100TIP3    H227716   2.836   5.097  12.987 -1.1943  0.4067 -0.3721
 2101TIP3   OH227717   1.883   2.576  11.880  0.8181  0.3250  0.2349
 2101TIP3    H127718   1.959   2.582  11.938  0.6161  0.3793  0.5011
 2101TIP3    H227719   1.833   2.502  11.914  0.0747  1.1072  0.9022
 2102TIP3   OH227720   2.898   1.958   4.159 -0.6041 -0.0401  1.0060
 2102TIP3    H127721   2.878   2.048   4.186  1.2795 -0.0005  2.4656
 2102TIP3    H227722   2.947   1.968   4.077 -2.2419  0.0921 -0.0119
 2103TIP3   OH227723   2.695   4.657  12.176 -0.1797 -0.1028 -0.1703
 2103TIP3    H127724   2.607   4.691  12.160 -0.1577  0.2127  0.3614
 2103TIP3    H227725   2.721   4.617  12.093 -0.6190  0.2609 -0.4850
 2104TIP3   OH227726   1.780   3.977   5.468  0.0583 -0.2007  0.4556
 2104TIP3    H127727   1.862   4.023   5.450  0.9836 -2.1671 -0.7491
 2104TIP3    H227728   1.756   4.004   5.557  2.1840  0.1991  0.9604
 2105TIP3   OH227729   5.326   5.030   1.995 -0.2815 -0.2734 -0.1120
 2105TIP3    H127730   5.378   4.960   2.035  1.1589  0.8682  0.0774
 2105TIP3    H227731   5.324   5.100   2.061 -2.0935 -0.2596 -0.1071
 2106TIP3   OH227732   2.693   4.499  15.814  0.7925  0.2730  0.7860
 2106TIP3    H127733   2.651   4.517  15.729  0.7220  0.3377  0.8342
 2106TIP3    H227734   2.784   4.528  15.802  0.7653  0.3476  0.7547
 2107TIP3   OH227735   5.086   1.673   2.570  0.2042 -0.3898 -0.1570
 2107TIP3    H127736   5.121   1.746   2.519  0.9426 -0.0317  0.8269
 2107TIP3    H227737   5.138   1.597   2.542  0.5428 -0.2129 -0.0154
 2108TIP3   OH227738   3.194   3.109   3.257  0.1895 -0.3607 -0.1138
 2108TIP3    H127739   3.135   3.034   3.263 -0.3712 -0.0757 -1.5471
 2108TIP3    H227740   3.277   3.073   3.226  0.2501 -0.5277  0.2382
 2109TIP3   OH227741   1.568   5.776  16.078  0.2459 -0.5366  0.0378
 2109TIP3    H127742   1.569   5.756  16.171 -0.2165 -0.3170  0.0949
 2109TIP3    H227743   1.491   5.832  16.066  2.4202  2.8330  0.2421
 2110TIP3   OH227744   1.152   6.680   0.339  0.1466  0.1032  0.3302
 2110TIP3    H127745   1.101   6.731   0.276 -1.6856 -0.6349  1.1212
 2110TIP3    H227746   1.144   6.589   0.309  2.4381  0.0901 -0.4377
 2111TIP3   OH227747   0.755   5.674   3.253  0.6090  0.0257  1.0943
 2111TIP3    H127748   0.816   5.749   3.249  1.7766 -0.9199  0.5639
 2111TIP3    H227749   0.806   5.604   3.293 -0.8015 -0.2299  2.5415
 2112TIP3   OH227750   2.519   3.015  13.867 -0.2632  0.0296 -0.4584
 2112TIP3    H127751   2.600   3.066  13.860 -1.2226  1.6103 -0.4975
 2112TIP3    H227752   2.523   2.977  13.955  0.8149 -0.4548 -0.7049
 2113TIP3   OH227753   3.095   6.011   5.556  0.3849 -0.0642  0.2880
 2113TIP3    H127754   3.155   6.084   5.574 -0.3726  0.3561  1.1695
 2113TIP3    H227755   3.122   5.943   5.619  0.3816 -0.1321  0.2157
 2114TIP3   OH227756   1.442   4.784  13.497  0.0478 -0.0642 -0.1366
 2114TIP3    H127757   1.514   4.757  13.555 -0.6714 -1.3026  0.2389
 2114TIP3    H227758   1.472   4.864  13.456  1.6611 -0.5834 -0.0243
 2115TIP3   OH227759   3.863   3.075  13.728 -0.8259  0.4166 -0.5573
 2115TIP3    H127760   3.952   3.047  13.749 -1.2236 -1.5721 -1.3603
 2115TIP3    H227761   3.862   3.084  13.633 -0.4844  4.2492 -0.3551
 2116TIP3   OH227762   3.355   5.070  16.627  0.1311 -0.0766  0.1335
 2116TIP3    H127763   3.332   5.131  16.556 -1.3902 -0.5818  0.1579
 2116TIP3    H227764   3.274   5.061  16.678  1.2736  0.5265  2.1619
 2117TIP3   OH227765   5.250   1.493  16.347  0.1249 -0.1055  0.4088
 2117TIP3    H127766   5.253   1.548  16.269 -1.9101  0.1581  0.4582
 2117TIP3    H227767   5.324   1.523  16.400  2.5988 -1.4236 -2.0465
 2118TIP3   OH227768   4.154   3.623  11.107  0.1694  0.4571 -0.4733
 2118TIP3    H127769   4.144   3.718  11.100  1.1905  0.4961 -1.6960
 2118TIP3    H227770   4.114   3.588  11.027  1.2948 -0.0076 -0.8492
 2119TIP3   OH227771   3.118   6.716  17.087  0.5947  0.4252  0.3145
 2119TIP3    H127772   3.172   6.739  17.162 -0.5127  0.0432  1.2477
 2119TIP3    H227773   3.098   6.800  17.045 -0.7882  0.9455  1.8714
 2120TIP3   OH227774   5.389   1.152  16.552 -0.7310  0.1649  0.1860
 2120TIP3    H127775   5.440   1.126  16.474 -2.4123  0.0042 -0.9111
 2120TIP3    H227776   5.454   1.161  16.621  0.6694 -0.9403 -0.9284
 2121TIP3   OH227777   4.505   4.750   4.309 -0.4901 -0.0959  0.3046
 2121TIP3    H127778   4.472   4.835   4.337 -1.3012  0.7674 -2.8543
 2121TIP3    H227779   4.600   4.762   4.303 -0.2582 -0.3750  2.5712
 2122TIP3   OH227780   5.818   6.229   0.168  0.0012 -0.4603  0.0419
 2122TIP3    H127781   5.792   6.282   0.092  0.0966  1.0344  1.0275
 2122TIP3    H227782   5.872   6.286   0.221 -0.4594 -1.3189  1.5000
 2123TIP3   OH227783   0.543   4.008   2.059 -0.1970 -0.2220  0.9270
 2123TIP3    H127784   0.580   4.090   2.026 -1.1555 -0.4990 -1.0057
 2123TIP3    H227785   0.448   4.023   2.058 -0.5550 -2.0061 -1.5996
 2124TIP3   OH227786   5.606   0.714  15.154  0.0584  0.1060 -0.0680
 2124TIP3    H127787   5.514   0.707  15.179 -0.6348  0.5367 -2.3486
 2124TIP3    H227788   5.613   0.798  15.108  1.7701  0.4127  0.6397
 2125TIP3   OH227789   4.228   3.368  12.206 -0.6272 -0.6278  0.0555
 2125TIP3    H127790   4.303   3.307  12.206  0.5391  0.5605  3.5575
 2125TIP3    H227791   4.253   3.437  12.144  1.5077 -0.0127  1.4933
 2126TIP3   OH227792   6.127   6.516   2.655  0.4597 -0.4739 -0.5325
 2126TIP3    H127793   6.216   6.503   2.687 -0.2405 -0.2284  1.7259
 2126TIP3    H227794   6.123   6.609   2.631  1.0039 -0.6538 -1.3128
 2127TIP3   OH227795   1.697   3.568  11.835 -0.1472 -0.0164 -0.3809
 2127TIP3    H127796   1.653   3.520  11.905 -0.0326 -0.7508 -0.8023
 2127TIP3    H227797   1.787   3.535  11.837 -0.2656 -0.4106 -1.1895
 2128TIP3   OH227798   2.941   3.386  12.767 -0.9283 -0.3723 -0.4057
 2128TIP3    H127799   3.025   3.347  12.788  1.2936  3.7921 -0.4700
 2128TIP3    H227800   2.896   3.321  12.713  2.7897 -2.3157 -1.4392
 2129TIP3   OH227801   4.091   0.544  11.666 -0.1403 -0.3574 -0.0785
 2129TIP3    H127802   4.070   0.490  11.742  0.8252 -1.5767 -0.6439
 2129TIP3    H227803   4.150   0.490  11.614  0.6983  1.1698 -0.7779
 2130TIP3   OH227804   5.466   1.160  14.124  0.3846  0.4633  0.0943
 2130TIP3    H127805   5.561   1.147  14.123  0.2214 -0.9090 -1.3018
 2130TIP3    H227806   5.430   1.075  14.150 -0.4678  1.2170  1.5154
 2131TIP3   OH227807   4.201   2.133   1.113 -0.1412  0.1289  0.3003
 2131TIP3    H127808   4.185   2.115   1.021 -0.1856  0.5051  0.2322
 2131TIP3    H227809   4.169   2.056   1.159  0.3120 -0.2563 -0.0321
 2132TIP3   OH227810   5.471   3.532   0.905 -0.0952  0.0179 -0.2776
 2132TIP3    H127811   5.516   3.570   0.980 -0.7732 -1.1516  0.7492
 2132TIP3    H227812   5.533   3.542   0.832  1.0307  0.1504  0.6792
 2133TIP3   OH227813   5.786   3.299   3.384 -0.0344  0.5611 -0.6702
 2133TIP3    H127814   5.733   3.219   3.391  1.1103 -0.2333 -0.8775
 2133TIP3    H227815   5.724   3.370   3.402 -0.5175 -0.4721  2.4271
 2134TIP3   OH227816   2.363   3.010  14.131 -0.1137 -0.6344  0.1116
 2134TIP3    H127817   2.272   3.030  14.109 -0.6560 -1.1061  1.7654
 2134TIP3    H227818   2.359   2.922  14.169  1.1087 -0.8223 -0.1555
 2135TIP3   OH227819   5.823   4.262   2.782  0.0780  0.2025  0.0371
 2135TIP3    H127820   5.795   4.210   2.857 -1.8564  0.2507 -0.5907
 2135TIP3    H227821   5.753   4.251   2.717  1.5034  0.4536 -1.6365
 2136TIP3   OH227822   2.813   1.596   0.824 -0.3860  0.3161 -0.5785
 2136TIP3    H127823   2.754   1.672   0.821 -2.3767 -1.1524 -0.3422
 2136TIP3    H227824   2.852   1.600   0.911 -1.9968  0.0330  0.1950
 2137TIP3   OH227825   2.272   0.318  16.072 -0.3088 -0.5204 -0.3167
 2137TIP3    H127826   2.199   0.359  16.118 -0.1043 -0.4520 -0.0462
 2137TIP3    H227827   2.272   0.228  16.103 -1.7244 -1.1796 -2.0838
 2138TIP3   OH227828   1.296   4.370  14.868  0.0325  0.2158 -0.3915
 2138TIP3    H127829   1.257   4.458  14.866 -2.2820 -0.7530 -0.8016
 2138TIP3    H227830   1.256   4.325  14.794 -0.5637 -1.8707  1.1254
 2139TIP3   OH227831   3.268   5.689  13.373 -0.4983  0.2597 -0.0714
 2139TIP3    H127832   3.347   5.741  13.357 -1.5045  1.8503 -0.1795
 2139TIP3    H227833   3.290   5.633  13.447  0.0627  2.2680  1.3833
 2140TIP3   OH227834   5.219   4.303  15.345 -0.3983 -0.1204 -0.1895
 2140TIP3    H127835   5.135   4.267  15.372 -0.0377  0.1571  1.3883
 2140TIP3    H227836   5.199   4.391  15.313 -0.7196 -0.1121  0.0358
 2141TIP3   OH227837   3.386   4.539  11.301  0.9285 -0.3252  0.2226
 2141TIP3    H127838   3.292   4.535  11.283  0.6491  0.1193  1.4782
 2141TIP3    H227839   3.427   4.510  11.220 -0.2426  1.0181 -0.9072
 2142TIP3   OH227840   5.372   0.127   3.623  0.3736 -0.1275  0.4194
 2142TIP3    H127841   5.363   0.047   3.674  1.3962 -0.7225 -0.2865
 2142TIP3    H227842   5.466   0.131   3.601 -0.0236  0.0958 -1.4116
 2143TIP3   OH227843   5.051   5.714  10.602 -0.1969 -0.1316  0.2190
 2143TIP3    H127844   5.118   5.680  10.662  0.3646  0.8753  0.1876
 2143TIP3    H227845   5.061   5.662  10.523 -0.3324 -0.8566  0.6607
 2144TIP3   OH227846   2.184   2.774  14.743  0.2332  0.3771  0.0717
 2144TIP3    H127847   2.193   2.743  14.833 -0.7457  0.6352  0.2749
 2144TIP3    H227848   2.207   2.867  14.747  2.0491 -0.0307 -0.3199
 2145TIP3   OH227849   4.441   5.468   6.550  0.4375  0.5975 -0.1909
 2145TIP3    H127850   4.414   5.545   6.500  0.7826  1.8416  1.4332
 2145TIP3    H227851   4.360   5.437   6.590  0.6748  1.7764  1.2908
 2146TIP3   OH227852   0.003   0.199   3.525  0.0359 -0.1014  0.2567
 2146TIP3    H127853  -0.041   0.125   3.566  0.8807 -1.2620 -0.8545
 2146TIP3    H227854  -0.058   0.229   3.458  0.1251 -0.4878 -0.0043
 2147TIP3   OH227855   6.466   2.806  12.386 -0.1380 -0.0840 -0.3152
 2147TIP3    H127856   6.502   2.853  12.461  1.3163 -0.4789 -0.7481
 2147TIP3    H227857   6.424   2.874  12.333  1.6856  0.7148 -0.7891
 2148TIP3   OH227858   0.131   1.498   0.256  0.3772 -0.0962 -0.1342
 2148TIP3    H127859   0.166   1.437   0.320  0.2364  0.6715  0.6929
 2148TIP3    H227860   0.201   1.562   0.242 -0.1649  0.6553  0.4844
 2149TIP3   OH227861   1.444   5.935  12.833 -0.4285  0.2225 -0.2087
 2149TIP3    H127862   1.509   5.892  12.887 -1.1349 -0.7395 -0.0972
 2149TIP3    H227863   1.360   5.904  12.867 -0.8878 -0.6478 -2.0196
 2150TIP3   OH227864   3.276   6.753  13.751 -0.5596  0.0746  0.0930
 2150TIP3    H127865   3.211   6.799  13.804  1.4236  1.4182  1.4937
 2150TIP3    H227866   3.315   6.689  13.811  1.3149  1.2285  0.2142
 2151TIP3   OH227867   3.668   0.863  13.213  0.0940 -0.4283  0.4976
 2151TIP3    H127868   3.581   0.887  13.245 -0.5702  1.3662 -2.2576
 2151TIP3    H227869   3.656   0.852  13.118  2.9458  0.3358 -0.0598
 2152TIP3   OH227870   4.652   6.259   3.352 -1.0082 -0.5402  0.4323
 2152TIP3    H127871   4.714   6.320   3.391 -2.3760  0.7870  0.6214
 2152TIP3    H227872   4.705   6.205   3.293  0.8297 -1.4911  2.7997
 2153TIP3   OH227873   3.420   1.664  16.295 -0.1696 -0.0978 -0.4382
 2153TIP3    H127874   3.356   1.699  16.357  0.3111 -0.2877  0.1739
 2153TIP3    H227875   3.433   1.574  16.322  1.9508  0.5113  0.8196
 2154TIP3   OH227876   6.545   3.834  11.713  0.1078 -0.3353  0.1254
 2154TIP3    H127877   6.517   3.926  11.713  0.2635 -0.2470 -1.6678
 2154TIP3    H227878   6.613   3.829  11.780  0.6192  1.0386 -0.2548
 2155TIP3   OH227879   3.397   4.713   0.915 -0.2866  0.3959  0.3702
 2155TIP3    H127880   3.395   4.623   0.946  0.1399  0.6852  1.2410
 2155TIP3    H227881   3.326   4.757   0.962  0.3226  0.8206  0.9024
 2156TIP3   OH227882   5.279   0.295  13.993  0.1662 -0.2099  0.2521
 2156TIP3    H127883   5.184   0.302  13.982  0.0062 -2.1991 -0.0273
 2156TIP3    H227884   5.310   0.385  13.998 -1.7174  0.4743  0.1794
 2157TIP3   OH227885   6.122   6.187   5.816  0.2405 -0.3123  0.6551
 2157TIP3    H127886   6.106   6.278   5.844  0.7807 -0.4758  1.5469
 2157TIP3    H227887   6.150   6.195   5.725 -0.8374  0.3133  0.3627
 2158TIP3   OH227888   5.421   2.135   0.148  0.5312  0.1664 -0.7417
 2158TIP3    H127889   5.365   2.198   0.194 -1.2316 -1.2749 -0.8294
 2158TIP3    H227890   5.437   2.175   0.063 -1.0280  0.2746 -1.0062
 2159TIP3   OH227891   5.166   4.756   5.669 -0.4235 -0.0208  0.9504
 2159TIP3    H127892   5.074   4.740   5.690 -0.7695  0.0615 -0.4528
 2159TIP3    H227893   5.182   4.706   5.589  0.1399  1.7092 -0.0695
 2160TIP3   OH227894   3.070   1.177   2.420  0.3892  0.0589  0.4020
 2160TIP3    H127895   2.993   1.134   2.457 -1.5672  0.8947 -2.3504
 2160TIP3    H227896   3.129   1.104   2.399  0.6308 -0.5621  2.9831
 2161TIP3   OH227897   6.368   2.195  16.983  0.0287 -0.2439 -0.6261
 2161TIP3    H127898   6.287   2.231  17.019  0.4979 -0.4068  0.6296
 2161TIP3    H227899   6.378   2.111  17.027  0.9278 -0.1788 -0.6929
 2162TIP3   OH227900   4.173   0.324  14.858  0.0440  1.1466 -0.5410
 2162TIP3    H127901   4.209   0.274  14.785  3.0136  3.9004 -1.2238
 2162TIP3    H227902   4.093   0.363  14.824  1.3965  2.4010 -2.4606
 2163TIP3   OH227903   3.831   1.714   2.964 -0.4857  0.0762 -0.3679
 2163TIP3    H127904   3.770   1.649   3.000 -0.4187  0.1682 -0.0885
 2163TIP3    H227905   3.775   1.787   2.937 -0.5169  0.0879 -0.2720
 2164TIP3   OH227906   0.718   3.277   6.001 -0.3959  0.5632  0.1043
 2164TIP3    H127907   0.739   3.370   5.993 -0.9399  0.8293  1.4221
 2164TIP3    H227908   0.668   3.271   6.083 -2.5167 -0.5325 -1.2022
 2165TIP3   OH227909   3.158   2.736   6.192 -0.4117  0.6757  0.3400
 2165TIP3    H127910   3.224   2.796   6.224  1.7144 -1.7598  0.8474
 2165TIP3    H227911   3.088   2.741   6.257  0.2410  1.6997  0.9926
 2166TIP3   OH227912   1.537   3.795   2.488 -0.2695 -0.1527  0.0019
 2166TIP3    H127913   1.596   3.798   2.413  0.0927  2.4287  0.2846
 2166TIP3    H227914   1.593   3.811   2.564 -0.8167 -1.4986  0.7337
 2167TIP3   OH227915   3.216   0.174   4.316  0.1073 -0.1213  0.1467
 2167TIP3    H127916   3.234   0.257   4.272 -1.6705 -0.0786 -0.6064
 2167TIP3    H227917   3.222   0.195   4.409 -1.1172  1.1063 -0.0075
 2168TIP3   OH227918   5.405   4.529  14.271  0.3174 -0.4039  0.4769
 2168TIP3    H127919   5.435   4.439  14.284  2.4898  0.2785  0.6121
 2168TIP3    H227920   5.484   4.577  14.244 -0.3377  1.8241  2.2101
 2169TIP3   OH227921   0.239   2.815  15.384 -0.1413  0.1760  0.0600
 2169TIP3    H127922   0.240   2.883  15.317 -0.5542  0.6638  0.5433
 2169TIP3    H227923   0.148   2.808  15.411  0.0617  0.1858  0.7773
 2170TIP3   OH227924   4.058   1.087   3.112  0.3429  0.0547  0.1726
 2170TIP3    H127925   4.126   1.031   3.075  0.5785  0.4842 -0.0555
 2170TIP3    H227926   4.054   1.062   3.205  0.2351 -0.5412  0.0106
 2171TIP3   OH227927   4.139   6.740  15.276  0.3511 -0.2949 -0.3624
 2171TIP3    H127928   4.206   6.708  15.336  0.6845 -1.4422 -1.2937
 2171TIP3    H227929   4.065   6.763  15.332  0.1232 -2.6600  0.4205
 2172TIP3   OH227930   0.606   1.168  14.021  0.3019 -0.1269 -0.4060
 2172TIP3    H127931   0.647   1.082  14.011 -0.0099 -0.4154  0.6788
 2172TIP3    H227932   0.512   1.150  14.021  0.2098  0.3246 -1.0925
 2173TIP3   OH227933   5.742   2.433  14.839 -0.7824 -0.7025  0.0116
 2173TIP3    H127934   5.765   2.342  14.860 -0.1295 -0.5976 -0.2219
 2173TIP3    H227935   5.647   2.435  14.844 -0.7534 -1.1654  0.9742
 2174TIP3   OH227936   4.273   1.152   1.199  0.3440  0.7083  0.3186
 2174TIP3    H127937   4.326   1.227   1.227  0.3660  0.8616 -0.1223
 2174TIP3    H227938   4.323   1.075   1.224  0.9535  0.8536 -0.4142
 2175TIP3   OH227939   3.040   0.492  10.895 -0.3835  0.2006  0.9193
 2175TIP3    H127940   3.081   0.520  10.813  0.9578  0.0789  1.5200
 2175TIP3    H227941   2.948   0.481  10.873 -0.2772  1.3941 -0.2601
 2176TIP3   OH227942   2.062   0.754  15.267  0.4416  0.3418 -0.2459
 2176TIP3    H127943   2.097   0.809  15.197  1.0104  0.2262 -0.0532
 2176TIP3    H227944   1.974   0.788  15.282  0.5337  0.7475 -0.6115
 2177TIP3   OH227945   5.599   5.370   0.958  0.0146 -0.4554 -0.3709
 2177TIP3    H127946   5.520   5.416   0.986  0.4787 -0.6272  1.2890
 2177TIP3    H227947   5.604   5.387   0.864 -1.9076 -0.3245 -0.4862
 2178TIP3   OH227948   4.711   2.139   2.090 -0.5492  0.4009  0.1032
 2178TIP3    H127949   4.638   2.141   2.152  0.4112  0.7045  1.2797
 2178TIP3    H227950   4.671   2.121   2.006 -1.8357 -0.9320  0.9435
 2179TIP3   OH227951   0.662   5.105   0.161  0.4015 -0.1781 -0.2366
 2179TIP3    H127952   0.665   5.193   0.122 -0.1119 -0.3154 -0.5851
 2179TIP3    H227953   0.637   5.047   0.089  0.7790 -0.6193 -0.0180
 2180TIP3   OH227954   3.401   5.905  15.604 -0.1892 -0.1869 -0.2712
 2180TIP3    H127955   3.475   5.961  15.630 -2.0584  1.8891  0.9499
 2180TIP3    H227956   3.354   5.888  15.686 -1.0805 -1.4627 -1.0191
 2181TIP3   OH227957   2.474   4.906  16.314 -0.1419  0.3047 -0.2524
 2181TIP3    H127958   2.427   4.949  16.243 -2.8224 -2.5390 -0.4042
 2181TIP3    H227959   2.411   4.900  16.385  0.8289 -1.3419  0.5229
 2182TIP3   OH227960   2.805   3.415   0.452  0.9433 -0.2494  0.4863
 2182TIP3    H127961   2.806   3.365   0.534 -1.1317 -0.2687  0.5636
 2182TIP3    H227962   2.876   3.479   0.462  1.2783 -0.8049  1.9274
 2183TIP3   OH227963   5.793   0.185  12.441 -0.3200 -0.0046  0.2384
 2183TIP3    H127964   5.728   0.246  12.406 -0.8293 -1.2438 -1.0706
 2183TIP3    H227965   5.866   0.190  12.378  0.5909  0.8612  1.3209
 2184TIP3   OH227966   4.103   1.445   4.892  0.7950  0.0272 -0.4025
 2184TIP3    H127967   4.089   1.467   4.984  0.8800  1.3653 -0.6911
 2184TIP3    H227968   4.079   1.524   4.845  2.0078 -0.1998 -1.4454
 2185TIP3   OH227969   2.710   0.098  11.950  0.5700  0.0253 -0.4344
 2185TIP3    H127970   2.615   0.087  11.942  0.4107  1.2277 -0.4002
 2185TIP3    H227971   2.727   0.183  11.909  1.7278 -0.4937 -1.0620
 2186TIP3   OH227972   2.017   6.041  16.305  0.2663 -0.2139 -0.1474
 2186TIP3    H127973   2.097   6.056  16.253  1.3393  3.4996  2.2082
 2186TIP3    H227974   1.947   6.076  16.251  0.8006  0.0973 -0.6530
 2187TIP3   OH227975   4.387   0.705  12.567  0.0422  0.2529 -0.2255
 2187TIP3    H127976   4.422   0.639  12.627 -2.0400 -0.0130  0.7953
 2187TIP3    H227977   4.299   0.674  12.547 -0.6971  2.2965 -0.3667
 2188TIP3   OH227978   6.568   6.197   3.268 -0.3246  0.0585 -0.1620
 2188TIP3    H127979   6.559   6.292   3.271 -1.8708 -0.0257 -1.0900
 2188TIP3    H227980   6.519   6.166   3.344  0.1924 -0.0061  0.1491
 2189TIP3   OH227981   2.208   1.619   1.295 -0.6827  0.1218 -0.0181
 2189TIP3    H127982   2.150   1.543   1.294  1.1193 -1.3199  0.2413
 2189TIP3    H227983   2.232   1.632   1.204  0.4532 -0.7992  0.1372
 2190TIP3   OH227984   0.809   5.846  13.731 -0.4534 -0.5126  0.3698
 2190TIP3    H127985   0.812   5.762  13.685  2.9196 -1.4489  1.9769
 2190TIP3    H227986   0.745   5.832  13.800 -1.4151 -1.0173 -0.5798
 2191TIP3   OH227987   6.324   0.614  13.801 -0.3691  0.2816 -0.0335
 2191TIP3    H127988   6.247   0.598  13.746  0.9622 -1.0411 -1.6213
 2191TIP3    H227989   6.313   0.553  13.874 -1.6546  1.3509  0.7266
 2192TIP3   OH227990   3.648   0.387   3.247  0.2355  0.3733  0.0316
 2192TIP3    H127991   3.578   0.337   3.206  0.8040 -0.0667 -0.4202
 2192TIP3    H227992   3.715   0.395   3.179  0.8231  0.3805  0.6039
 2193TIP3   OH227993   5.878   4.686  11.481 -0.2203 -0.4191  0.0855
 2193TIP3    H127994   5.923   4.635  11.414  1.1707 -0.2308  0.8205
 2193TIP3    H227995   5.785   4.678  11.460  0.1911  0.3677 -2.3790
 2194TIP3   OH227996   6.289   4.554   2.643  0.2655 -0.3035 -0.0155
 2194TIP3    H127997   6.296   4.464   2.610 -0.0472  0.0422 -1.0634
 2194TIP3    H227998   6.310   4.609   2.568 -1.1955  0.5365  0.1536
 2195TIP3   OH227999   3.717   3.488   0.762  0.0559 -0.3850  0.0352
 2195TIP3    H128000   3.812   3.497   0.763  0.2246 -1.2210 -2.2081
 2195TIP3    H228001   3.694   3.486   0.669 -2.0681 -1.0385  0.5148
 2196TIP3   OH228002   1.053   4.909  14.311 -0.1754 -0.3622 -0.0481
 2196TIP3    H128003   0.994   4.876  14.379 -0.9509  0.5669 -0.2452
 2196TIP3    H228004   1.011   4.988  14.279 -0.3676 -1.3217 -2.3752
 2197TIP3   OH228005   0.662   1.868  12.005  0.3069 -0.6079  0.3330
 2197TIP3    H128006   0.625   1.791  11.962 -1.2882 -0.5242  1.4568
 2197TIP3    H228007   0.757   1.854  12.001  0.0707 -2.7154  0.6281
 2198TIP3   OH228008   2.593   2.594   3.275  0.0467  0.1411  0.8605
 2198TIP3    H128009   2.586   2.499   3.274  0.1252  0.1256 -0.8595
 2198TIP3    H228010   2.536   2.624   3.204 -0.2484  1.4058  1.5912
 2199TIP3   OH228011   5.574   4.860   0.968  0.6342  0.2455 -0.0939
 2199TIP3    H128012   5.561   4.946   0.927 -1.5214 -0.6445 -1.4683
 2199TIP3    H228013   5.581   4.879   1.061 -1.1785  1.8472 -0.2271
 2200TIP3   OH228014   6.637   4.853  15.867  0.2524  1.0885  0.0713
 2200TIP3    H128015   6.651   4.785  15.801 -1.6718  0.2725  0.4373
 2200TIP3    H228016   6.724   4.891  15.882  0.9324  0.4568 -2.0088
 2201TIP3   OH228017   5.029   5.736   6.034 -0.3203  0.0207 -0.5507
 2201TIP3    H128018   4.965   5.795   5.993  0.1473  0.8233 -0.1317
 2201TIP3    H228019   5.114   5.777   6.017  0.1557 -1.2731 -1.5048
 2202TIP3   OH228020   3.986   5.214  15.702 -0.1126 -0.5336 -0.0713
 2202TIP3    H128021   4.070   5.237  15.663  0.6758  1.7177  2.6338
 2202TIP3    H228022   4.009   5.148  15.768 -0.9009 -1.7662 -0.9929
 2203TIP3   OH228023   3.681   6.594   1.995 -0.4100  0.1992  0.9367
 2203TIP3    H128024   3.656   6.504   2.017 -1.3988  0.1826 -0.1908
 2203TIP3    H228025   3.729   6.586   1.913 -1.9677  0.8332 -0.0825
 2204TIP3   OH228026   0.198   0.848   4.649  0.7015  0.5711 -0.3077
 2204TIP3    H128027   0.271   0.834   4.589 -1.2450 -0.2698 -2.6387
 2204TIP3    H228028   0.183   0.942   4.649  0.1627  0.5157 -1.9536
 2205TIP3   OH228029   2.251   5.061  11.186 -0.9055  0.4951 -0.2977
 2205TIP3    H128030   2.156   5.070  11.176 -0.9470  1.8220  1.0255
 2205TIP3    H228031   2.285   5.150  11.173 -0.0471  0.3978  1.1699
 2206TIP3   OH228032   3.576   0.941   4.291 -0.3832  0.1860  0.0455
 2206TIP3    H128033   3.577   1.007   4.222 -1.9376 -0.7542 -0.9452
 2206TIP3    H228034   3.668   0.919   4.304  0.0811  1.7563 -0.3507
 2207TIP3   OH228035   0.840   6.285   3.635 -0.1423 -0.2242  0.0679
 2207TIP3    H128036   0.800   6.204   3.605  0.7143  0.5044 -3.4364
 2207TIP3    H228037   0.795   6.354   3.588  2.5238  0.8979 -1.0700
 2208TIP3   OH228038   3.483   5.711   3.561  0.5598  0.6321  0.0420
 2208TIP3    H128039   3.454   5.766   3.634  1.9683  0.5069  0.7155
 2208TIP3    H228040   3.473   5.621   3.594 -2.2708  0.3635 -1.2494
 2209TIP3   OH228041   0.460   6.240   0.990  0.1774  0.3647 -0.2774
 2209TIP3    H128042   0.489   6.317   0.941 -0.0310  0.7350  0.1766
 2209TIP3    H228043   0.424   6.275   1.071 -1.6177 -0.0420 -0.8363
 2210TIP3   OH228044   3.865   0.001  16.217 -0.2367 -0.9498 -0.3048
 2210TIP3    H128045   3.786  -0.034  16.175 -1.5642 -0.3181  1.5437
 2210TIP3    H228046   3.857   0.096  16.209 -0.4001 -0.8290  1.1251
 2211TIP3   OH228047   3.580   0.647  14.937 -0.4964  1.0875  0.7851
 2211TIP3    H128048   3.498   0.665  14.983 -0.0848  0.1518  1.9251
 2211TIP3    H228049   3.553   0.605  14.855 -1.1517  0.1922  1.4407
 2212TIP3   OH228050   2.086   4.227   4.163 -0.4292 -0.0825 -0.1413
 2212TIP3    H128051   2.017   4.224   4.229 -0.3064 -0.9991 -0.0503
 2212TIP3    H228052   2.166   4.243   4.212 -0.3440 -0.7188 -0.0729
 2213TIP3   OH228053   6.737   0.865   6.154  0.0975  0.0404 -0.2746
 2213TIP3    H128054   6.692   0.790   6.192  0.0598  0.1479 -0.1032
 2213TIP3    H228055   6.787   0.829   6.081 -0.9376  0.0547 -1.0071
 2214TIP3   OH228056   0.095   5.837   5.808  0.3921  0.3053  0.1948
 2214TIP3    H128057   0.168   5.775   5.808 -0.5837 -0.8915 -0.0094
 2214TIP3    H228058   0.086   5.863   5.900  2.0344  1.7021  0.0164
 2215TIP3   OH228059   0.704   4.785  13.146  0.4346 -0.3524 -0.8861
 2215TIP3    H128060   0.692   4.739  13.062  0.8325 -0.7721 -0.7134
 2215TIP3    H228061   0.787   4.831  13.137 -1.2166  2.6947 -2.1367
 2216TIP3   OH228062   3.026   0.030  15.916 -0.0472  0.6542 -0.3835
 2216TIP3    H128063   3.030  -0.032  15.843 -2.2086  1.2043 -1.0711
 2216TIP3    H228064   2.977  -0.016  15.984  0.9173  0.5766  0.2739
 2217TIP3   OH228065   0.295   1.955  15.869  0.3759  0.0795 -0.4163
 2217TIP3    H128066   0.207   1.939  15.836 -0.1683  2.6412 -0.3894
 2217TIP3    H228067   0.312   2.047  15.850  2.4661  0.0504  0.9375
 2218TIP3   OH228068   1.418   2.144   6.274 -0.3712  0.0801  0.2838
 2218TIP3    H128069   1.512   2.133   6.286 -0.3760 -0.9039 -0.5130
 2218TIP3    H228070   1.404   2.138   6.180 -1.1258  1.1810  0.2993
 2219TIP3   OH228071   0.409   1.177   4.039  0.4998  0.0599 -0.1844
 2219TIP3    H128072   0.405   1.270   4.019 -1.0905 -0.1776 -1.1283
 2219TIP3    H228073   0.459   1.172   4.120  0.6600  1.7271 -0.1491
 2220TIP3   OH228074   2.674   1.184  15.040  0.3557  0.4335 -0.0164
 2220TIP3    H128075   2.759   1.144  15.020 -0.3332 -1.4765  0.5742
 2220TIP3    H228076   2.689   1.230  15.123  0.9134  0.4806 -0.1352
 2221TIP3   OH228077   6.550   2.426  14.462 -0.5468 -0.0383 -0.0560
 2221TIP3    H128078   6.539   2.336  14.494 -0.4436  0.1593  0.5436
 2221TIP3    H228079   6.620   2.420  14.397 -0.5371 -0.3890 -0.0156
 2222TIP3   OH228080   5.941   4.773   0.697  0.5665 -0.0694 -0.2572
 2222TIP3    H128081   5.947   4.751   0.604  2.4235 -2.5485  0.3392
 2222TIP3    H228082   5.892   4.701   0.736 -0.0546  0.8602  0.7263
 2223TIP3   OH228083   1.721   1.912  11.929 -0.3465 -0.0251 -0.4632
 2223TIP3    H128084   1.750   1.934  12.017  1.2489 -1.7890 -0.4950
 2223TIP3    H228085   1.652   1.847  11.942 -1.3671  1.0108 -0.5113
 2224TIP3   OH228086   5.195   6.173   2.944  0.5649  0.1232 -0.0860
 2224TIP3    H128087   5.134   6.173   2.870 -1.3427 -3.5911  1.2278
 2224TIP3    H228088   5.140   6.192   3.021  0.7993 -3.4414  1.1515
 2225TIP3   OH228089   0.966   3.848  16.932  0.4414 -0.2099  0.1442
 2225TIP3    H128090   1.036   3.901  16.970 -0.3793 -0.6067  2.3794
 2225TIP3    H228091   0.949   3.781  16.997 -1.0570 -0.9877 -0.9795
 2226TIP3   OH228092   6.232   5.749   6.310 -0.3142  0.3669 -1.2575
 2226TIP3    H128093   6.312   5.701   6.290 -1.3874 -0.8737 -2.7944
 2226TIP3    H228094   6.246   5.837   6.274  1.2277  0.9477  0.5907
 2227TIP3   OH228095   5.731   6.205   4.555  0.3154  0.6784 -0.2904
 2227TIP3    H128096   5.803   6.246   4.508 -0.9191 -0.2287 -3.2161
 2227TIP3    H228097   5.657   6.264   4.542 -0.1342  0.2717  0.3442
 2228TIP3   OH228098   2.737   4.097  12.092  0.1435  0.0245  0.4262
 2228TIP3    H128099   2.672   4.056  12.149  0.6834 -1.2019  0.1943
 2228TIP3    H228100   2.735   4.189  12.116 -2.0250  0.1182  0.0860
 2229TIP3   OH228101   3.596   2.877   4.249 -0.2345 -0.0980  0.0213
 2229TIP3    H128102   3.615   2.838   4.335  1.8663  1.3275  0.3073
 2229TIP3    H228103   3.501   2.877   4.243 -0.4817  0.1601  2.5825
 2230TIP3   OH228104   1.978   6.664   1.318 -0.2399 -0.4434  0.0649
 2230TIP3    H128105   1.994   6.759   1.321  0.5561 -0.5909  1.3167
 2230TIP3    H228106   2.054   6.629   1.270  0.4323 -0.6082  1.2134
 2231TIP3   OH228107   3.478   2.268   4.203 -0.2192  0.7120 -0.1324
 2231TIP3    H128108   3.461   2.356   4.234  0.0408  1.2654 -1.5048
 2231TIP3    H228109   3.400   2.218   4.227  0.8212  0.5124  3.3621
 2232TIP3   OH228110   0.125   2.831  11.856  0.5446  0.4712  0.0651
 2232TIP3    H128111   0.123   2.759  11.919  0.0045 -0.0731 -0.5507
 2232TIP3    H228112   0.081   2.796  11.779 -0.6821  1.8101  0.1055
 2233TIP3   OH228113   1.474   3.778  16.369 -0.3189 -0.0299 -0.1041
 2233TIP3    H128114   1.435   3.696  16.398  1.4346 -0.4610  1.1553
 2233TIP3    H228115   1.561   3.754  16.338  0.8287  1.5309  1.7204
 2234TIP3   OH228116   5.589   1.192  13.665  0.0131  0.2245 -0.5209
 2234TIP3    H128117   5.517   1.129  13.655  0.7923 -1.0950  1.5528
 2234TIP3    H228118   5.546   1.278  13.661 -2.1537 -0.4960  2.9046
 2235TIP3   OH228119   0.374   4.835   0.072 -0.1916  0.1786 -0.3961
 2235TIP3    H128120   0.439   4.864   0.008  0.8145  1.2608  1.0295
 2235TIP3    H228121   0.425   4.788   0.139 -1.3892 -2.1534 -1.0113
 2236TIP3   OH228122   4.427   1.846  16.378  0.3486 -0.6835 -0.3517
 2236TIP3    H128123   4.374   1.770  16.353 -0.2389 -0.2690 -0.3801
 2236TIP3    H228124   4.364   1.917  16.387  1.1058  0.3853 -2.6304
 2237TIP3   OH228125   3.120   0.250   6.048 -0.5157 -0.0574 -0.2186
 2237TIP3    H128126   3.043   0.210   6.090 -0.5212 -0.5197 -0.6682
 2237TIP3    H228127   3.086   0.332   6.011 -1.0500 -0.7742 -1.3588
 2238TIP3   OH228128   5.780   0.253   0.464  0.3365 -0.1289 -0.7357
 2238TIP3    H128129   5.783   0.238   0.559  0.6252  1.0420 -0.5419
 2238TIP3    H228130   5.870   0.244   0.435  0.6839  1.9095 -0.4665
 2239TIP3   OH228131   0.070   3.340  13.427 -0.7253  0.0617  0.0562
 2239TIP3    H128132   0.161   3.361  13.450 -0.7663  0.8064 -0.4514
 2239TIP3    H228133   0.051   3.260  13.477 -0.0560  0.3468  0.7884
 2240TIP3   OH228134   2.651   4.710   4.850  0.5531  0.2760 -0.0242
 2240TIP3    H128135   2.681   4.736   4.938 -0.7710  1.1377  0.1948
 2240TIP3    H228136   2.588   4.640   4.866 -1.6743  2.1520 -0.0278
 2241TIP3   OH228137   3.558   4.913   1.672 -1.0121 -0.2790  0.3148
 2241TIP3    H128138   3.471   4.951   1.663 -1.1824 -0.3952  1.3279
 2241TIP3    H228139   3.543   4.830   1.718 -0.3084  0.0297  1.1315
 2242TIP3   OH228140   1.506   0.851  16.125 -0.4288  0.7294 -0.2253
 2242TIP3    H128141   1.581   0.889  16.080 -0.2230  1.4805  0.7257
 2242TIP3    H228142   1.431   0.898  16.090 -0.7451 -1.4170 -2.7112
 2243TIP3   OH228143   3.925   2.862  13.238 -0.2134 -0.1912  0.2979
 2243TIP3    H128144   3.844   2.824  13.202  0.1785  1.5208 -2.7660
 2243TIP3    H228145   3.964   2.908  13.164  4.4974 -2.2882  1.1242
 2244TIP3   OH228146   2.638   4.777   1.601  0.2121 -0.1193 -0.3204
 2244TIP3    H128147   2.566   4.731   1.645 -0.5205  1.3735  0.1189
 2244TIP3    H228148   2.607   4.789   1.511 -0.0673  0.4460 -0.1539
 2245TIP3   OH228149   0.717   1.859  16.749 -0.5212  0.0258  0.1903
 2245TIP3    H128150   0.796   1.911  16.741 -1.1408  0.9793  0.1132
 2245TIP3    H228151   0.675   1.889  16.830 -1.7262  0.8636 -0.7062
 2246TIP3   OH228152   4.675   0.352   5.696  0.2096 -0.0665  0.5872
 2246TIP3    H128153   4.607   0.315   5.639 -0.2327 -0.2967  1.2473
 2246TIP3    H228154   4.663   0.447   5.689 -0.8337 -0.1119  1.4394
 2247TIP3   OH228155   3.650   0.895   4.017  0.6406  0.2139  1.1376
 2247TIP3    H128156   3.710   0.943   3.961 -0.7696 -0.0201 -0.6825
 2247TIP3    H228157   3.697   0.883   4.099  1.9044  2.6533  0.8437
 2248TIP3   OH228158   3.914   0.111   6.390 -0.0621 -0.0257  0.3535
 2248TIP3    H128159   3.841   0.054   6.365 -0.3641  0.7426 -0.5907
 2248TIP3    H228160   3.886   0.198   6.361  0.6725  0.4914  1.1754
 2249TIP3   OH228161   5.143   2.954   5.118  0.5769 -0.5576  0.2648
 2249TIP3    H128162   5.138   2.874   5.169 -0.7201 -0.8719 -0.3139
 2249TIP3    H228163   5.076   3.011   5.155  0.2366 -0.4448 -0.4984
 2250TIP3   OH228164   2.726   6.131   2.115 -0.1098 -0.0299 -0.3379
 2250TIP3    H128165   2.794   6.114   2.051 -1.2633  0.1278 -1.6486
 2250TIP3    H228166   2.753   6.212   2.159  0.2638  0.3336 -1.2256
 2251TIP3   OH228167   0.070   6.517  10.615 -0.0548 -0.3087  0.2097
 2251TIP3    H128168  -0.025   6.518  10.600  0.0057  0.3900 -0.1908
 2251TIP3    H228169   0.082   6.456  10.688 -0.7073 -1.1708 -0.3771
 2252TIP3   OH228170   5.954   1.329  16.848  0.2790  0.0327 -0.6160
 2252TIP3    H128171   6.000   1.368  16.923  1.2269  0.6908 -1.5132
 2252TIP3    H228172   5.952   1.398  16.782 -0.6351 -0.5054 -1.1715
 2253TIP3   OH228173   6.214   0.909  15.244  0.6412 -0.6221  0.4701
 2253TIP3    H128174   6.274   0.922  15.171 -0.1634  1.9377  0.1550
 2253TIP3    H228175   6.242   0.972  15.310 -1.0574 -0.0579  0.7077
 2254TIP3   OH228176   6.729   5.490  11.738  0.4989 -0.0758  0.3378
 2254TIP3    H128177   6.799   5.496  11.673  0.5071  1.4743  0.4540
 2254TIP3    H228178   6.660   5.547  11.704 -0.5652 -1.2519  0.4384
 2255TIP3   OH228179   2.929   1.906   5.883  0.5324  0.3765 -0.4244
 2255TIP3    H128180   2.972   1.888   5.799 -0.6933 -1.8793 -0.6381
 2255TIP3    H228181   2.860   1.969   5.861  1.9201  1.9358 -0.5458
 2256TIP3   OH228182   5.247   4.242   1.211  0.9152 -0.1009  0.3256
 2256TIP3    H128183   5.175   4.186   1.182  0.1212  0.8386  0.4327
 2256TIP3    H228184   5.326   4.190   1.194  0.3944 -0.2578 -2.0386
 2257TIP3   OH228185   4.591   0.476  13.235 -0.0624 -0.7239 -0.4936
 2257TIP3    H128186   4.654   0.514  13.296 -3.5198  1.8368  1.8913
 2257TIP3    H228187   4.581   0.385  13.263  0.4700 -0.3505  0.9756
 2258TIP3   OH228188   0.781   0.298   3.864 -0.4683  0.3978  0.4976
 2258TIP3    H128189   0.810   0.373   3.915  0.0665  1.7069 -1.6239
 2258TIP3    H228190   0.728   0.246   3.926  1.5695  0.9353  2.8382
 2259TIP3   OH228191   1.732   3.026   2.711 -0.5218 -0.4289  0.0416
 2259TIP3    H128192   1.688   3.052   2.630  0.3783  2.1754  0.2939
 2259TIP3    H228193   1.667   3.041   2.780  0.0583  1.5320  0.2079
 2260TIP3   OH228194   5.904   0.301  11.439 -0.0135  0.4805  0.0467
 2260TIP3    H128195   5.888   0.216  11.479  1.0684 -0.0107 -0.5229
 2260TIP3    H228196   5.995   0.297  11.408  0.2178  1.9977  0.4150
 2261TIP3   OH228197   4.373   3.433  15.197 -0.6387  0.0782 -0.1423
 2261TIP3    H128198   4.435   3.420  15.125 -0.4161 -2.3674  0.4253
 2261TIP3    H228199   4.408   3.509  15.244 -1.2638  2.3635 -2.9849
 2262TIP3   OH228200   0.465   0.821  15.251 -0.1688  0.4106 -0.3021
 2262TIP3    H128201   0.414   0.752  15.208 -0.4149 -0.3780  1.1710
 2262TIP3    H228202   0.529   0.773  15.303  0.6755  1.3552 -0.4513
 2263TIP3   OH228203   5.903   0.283   5.425 -0.5906  0.0418  0.4334
 2263TIP3    H128204   5.932   0.233   5.349  0.0040  2.4874 -1.0360
 2263TIP3    H228205   5.807   0.275   5.425 -0.4628 -1.9994  0.9593
 2264TIP3   OH228206   6.109   5.086  12.080 -0.4287  0.2045  0.4072
 2264TIP3    H128207   6.167   5.090  12.005 -0.3187  0.9157  0.5188
 2264TIP3    H228208   6.053   5.164  12.072  0.7700  1.3055  1.9876
 2265TIP3   OH228209   4.760   0.833   5.019 -0.4154  0.3606  0.3681
 2265TIP3    H128210   4.726   0.881   4.944 -1.4258 -1.5585 -0.4584
 2265TIP3    H228211   4.819   0.767   4.982 -0.1051  0.0584  1.3472
 2266TIP3   OH228212   4.464   0.393  16.165 -0.2938 -0.2445  0.0893
 2266TIP3    H128213   4.464   0.346  16.249  0.3921 -0.9062 -0.2732
 2266TIP3    H228214   4.455   0.485  16.189  1.4342 -0.2723  0.9914
 2267TIP3   OH228215   6.322   3.577  11.524 -0.4000 -0.3247 -0.0238
 2267TIP3    H128216   6.404   3.529  11.519 -0.6030 -0.8416  1.2730
 2267TIP3    H228217   6.254   3.510  11.525 -0.6232 -0.2258  3.4680
 2268TIP3   OH228218   2.228   3.510   6.740  0.5050  0.0766 -0.1476
 2268TIP3    H128219   2.259   3.568   6.809  0.3737 -1.0767  0.9074
 2268TIP3    H228220   2.208   3.428   6.784 -0.2377 -0.4755 -1.4516
 2269TIP3   OH228221   4.910   2.644  14.281  0.0291 -0.1590  0.3675
 2269TIP3    H128222   4.978   2.633  14.214 -1.5991  0.2424 -1.4638
 2269TIP3    H228223   4.839   2.587  14.252 -0.6728 -0.0963  1.8780
 2270TIP3   OH228224   6.008   5.106   5.933  0.3421  0.0264 -0.0014
 2270TIP3    H128225   6.097   5.109   5.968  0.1048 -0.0979  0.6107
 2270TIP3    H228226   5.952   5.092   6.009 -0.0825 -1.5432 -0.5591
 2271TIP3   OH228227   4.100   5.519   3.359 -0.1661  0.5931 -0.3974
 2271TIP3    H128228   4.034   5.471   3.409  0.6704 -1.1978 -0.9316
 2271TIP3    H228229   4.071   5.512   3.268  0.0352  0.9946 -0.4943
 2272TIP3   OH228230   3.303   0.992   1.322 -0.3990 -0.9544 -0.3484
 2272TIP3    H128231   3.218   0.987   1.365 -0.8356 -1.2997 -1.2321
 2272TIP3    H228232   3.351   0.915   1.356 -0.0438 -0.2050  0.9275
 2273TIP3   OH228233   3.725   0.210   2.839  0.4083  0.6074 -0.2976
 2273TIP3    H128234   3.728   0.270   2.765  2.0855  1.8352  0.7022
 2273TIP3    H228235   3.741   0.265   2.916  1.6012 -1.0284  0.6962
 2274TIP3   OH228236   2.765   1.338  13.338  0.0035 -0.0903  0.2603
 2274TIP3    H128237   2.766   1.393  13.260 -0.6069 -0.4772 -0.0282
 2274TIP3    H228238   2.713   1.389  13.401  0.9790  0.4866  0.6313
 2275TIP3   OH228239   4.691   4.793   6.073  0.4484 -0.3261  0.5641
 2275TIP3    H128240   4.603   4.809   6.039  1.7974  0.1209 -3.2936
 2275TIP3    H228241   4.685   4.811   6.166 -3.1505  1.2609  0.1934
 2276TIP3   OH228242   3.728   5.588   4.137 -0.2251 -0.3790  0.3336
 2276TIP3    H128243   3.822   5.579   4.125 -0.3234  0.3097 -1.2367
 2276TIP3    H228244   3.715   5.585   4.232  1.4201 -0.0141  0.5938
 2277TIP3   OH228245   1.123   3.193   3.756 -0.1952 -0.0203  0.1666
 2277TIP3    H128246   1.067   3.150   3.692  0.5131  1.0511 -1.2390
 2277TIP3    H228247   1.063   3.238   3.815 -0.9336 -2.2954  1.3000
 2278TIP3   OH228248   4.985   3.464  12.023  0.1298 -0.7403 -0.2497
 2278TIP3    H128249   4.973   3.400  12.093  0.8410  1.5508  2.1298
 2278TIP3    H228250   5.048   3.527  12.058  1.7624 -0.2806 -3.6082
 2279TIP3   OH228251   5.827   5.820  13.379  0.0141 -0.0875  0.0198
 2279TIP3    H128252   5.893   5.880  13.413 -0.8940  1.3147 -0.6385
 2279TIP3    H228253   5.748   5.873  13.369 -1.0033 -1.5364  0.0249
 2280TIP3   OH228254   1.966   0.167   0.619  0.6462  0.1922 -0.3672
 2280TIP3    H128255   1.986   0.129   0.704  0.2696 -0.3981 -0.5382
 2280TIP3    H228256   2.029   0.126   0.559  1.0838  0.7994 -0.3376
 2281TIP3   OH228257   4.279   5.506  12.622  0.1434 -0.3282 -0.0118
 2281TIP3    H128258   4.324   5.573  12.571 -2.5850  2.4841  0.9017
 2281TIP3    H228259   4.221   5.462  12.559 -0.3279  0.3921 -0.0936
 2282TIP3   OH228260   0.626   5.849  11.055  0.1808 -0.4902 -0.1092
 2282TIP3    H128261   0.581   5.915  11.002  1.3159  1.1273  0.8406
 2282TIP3    H228262   0.718   5.860  11.033  0.7364  0.4934  2.3899
 2283TIP3   OH228263   2.275   5.955  15.889  0.1958 -0.3243  0.1186
 2283TIP3    H128264   2.245   5.864  15.885 -1.2592  0.0363  1.5307
 2283TIP3    H228265   2.246   5.994  15.807  2.9556 -1.6536 -1.6374
 2284TIP3   OH228266   4.827   4.109  16.387  0.4183 -0.1727  0.0586
 2284TIP3    H128267   4.830   4.202  16.368  0.7313  0.0195  0.9904
 2284TIP3    H228268   4.833   4.103  16.483 -1.2791 -1.0688  0.1673
 2285TIP3   OH228269   2.593   0.417  17.255  0.1657  0.2199 -0.1248
 2285TIP3    H128270   2.660   0.450  17.316  0.0455 -0.6221  0.4709
 2285TIP3    H228271   2.614   0.325  17.243  0.3400  0.4299 -1.5851
 2286TIP3   OH228272   2.465   0.813  11.279  0.5190 -0.3840  0.2235
 2286TIP3    H128273   2.551   0.830  11.242  0.7949 -0.6049  0.7572
 2286TIP3    H228274   2.480   0.748  11.347  0.1467  0.5547  1.2340
 2287TIP3   OH228275   4.625   3.586  12.053 -0.1961  0.7982  0.0191
 2287TIP3    H128276   4.607   3.584  12.147 -0.4825 -2.0347  0.0090
 2287TIP3    H228277   4.539   3.585  12.012 -0.1867 -1.7218 -0.1396
 2288TIP3   OH228278   0.327   2.154   2.770 -0.0364  0.4341  0.1187
 2288TIP3    H128279   0.276   2.235   2.777 -2.2478 -0.7082 -1.5193
 2288TIP3    H228280   0.392   2.173   2.703  1.1960  1.6256  1.5811
 2289TIP3   OH228281   4.972   6.558   3.222  0.0725  0.2340  0.0641
 2289TIP3    H128282   4.896   6.544   3.279 -0.3030 -1.6261 -0.7948
 2289TIP3    H228283   5.013   6.472   3.218  0.5034  0.5064 -1.8748
 2290TIP3   OH228284   2.280   2.509   5.375  0.5500 -1.1467  0.1592
 2290TIP3    H128285   2.334   2.482   5.301 -1.7625  0.1597 -2.1728
 2290TIP3    H228286   2.229   2.431   5.398  2.1434 -1.9052  1.2699
 2291TIP3   OH228287   3.958   2.336   4.547 -0.1997  0.2083 -0.7717
 2291TIP3    H128288   4.029   2.281   4.512  0.0647  0.0282  0.0220
 2291TIP3    H228289   3.958   2.413   4.491  2.1709  1.2949  0.5356
 2292TIP3   OH228290   5.635   5.817   2.696 -0.6346  0.3675 -0.4523
 2292TIP3    H128291   5.592   5.871   2.630 -0.0646  1.1339 -0.2146
 2292TIP3    H228292   5.711   5.869   2.723  0.3927 -0.8949 -0.7968
 2293TIP3   OH228293   5.280   0.844   1.919 -0.2646  0.2886  0.2697
 2293TIP3    H128294   5.251   0.890   1.841  0.8659  1.5330  0.5459
 2293TIP3    H228295   5.206   0.849   1.980 -1.3967 -1.2453 -0.8863
 2294TIP3   OH228296   3.446   3.870   2.765 -0.0528 -0.6184  0.5051
 2294TIP3    H128297   3.357   3.834   2.772  0.0795 -1.6283 -1.8514
 2294TIP3    H228298   3.502   3.793   2.760  0.6794 -0.0546 -0.3877
 2295TIP3   OH228299   0.149   3.358   5.306  0.3740  0.3827  0.6928
 2295TIP3    H128300   0.094   3.376   5.382 -1.1487 -1.0267 -0.0377
 2295TIP3    H228301   0.091   3.367   5.231  2.2147  3.4916 -0.5593
 2296TIP3   OH228302   3.202   2.907   5.112  0.3636 -0.2112 -0.0538
 2296TIP3    H128303   3.137   2.887   5.180  0.1462 -0.0892 -0.2280
 2296TIP3    H228304   3.256   2.976   5.151 -0.7163  0.9757 -0.5898
 2297TIP3   OH228305   4.870   0.273   3.502 -0.6589 -0.5980  0.0645
 2297TIP3    H128306   4.955   0.238   3.474 -1.0110 -1.3801 -0.0468
 2297TIP3    H228307   4.892   0.335   3.572  0.0778 -0.0610 -0.6234
 2298TIP3   OH228308   2.869   4.216   0.256 -0.1772 -0.4200 -0.3914
 2298TIP3    H128309   2.861   4.156   0.181 -0.7215  0.4355 -1.0413
 2298TIP3    H228310   2.791   4.271   0.250 -0.0221 -0.0781  0.5893
 2299TIP3   OH228311   5.516   3.368  13.404  0.1710 -0.1955  0.5061
 2299TIP3    H128312   5.556   3.439  13.453  2.1545 -0.4671 -0.6268
 2299TIP3    H228313   5.553   3.375  13.316 -0.5749 -1.8453  0.0157
 2300TIP3   OH228314   3.522   4.602  11.979  0.6820 -0.7577  0.0471
 2300TIP3    H128315   3.529   4.641  12.067 -1.7923  1.1334 -0.4807
 2300TIP3    H228316   3.471   4.666  11.929  0.3603 -2.6942 -2.2340
 2301TIP3   OH228317   2.129   3.183  14.118  1.0269  0.6835  0.3874
 2301TIP3    H128318   2.178   3.185  14.200  0.1256 -0.0284  0.9605
 2301TIP3    H228319   2.054   3.239  14.134  1.5635  1.6718 -0.4490
 2302TIP3   OH228320   3.818   5.457  12.624  0.4125 -0.0664 -0.2178
 2302TIP3    H128321   3.872   5.383  12.597 -0.4508 -0.6930 -0.2932
 2302TIP3    H228322   3.738   5.416  12.659  0.0373  0.8222 -0.0106
 2303TIP3   OH228323   3.042   2.858   5.319 -0.6200  0.3276 -0.1292
 2303TIP3    H128324   3.036   2.763   5.309  0.7322 -0.1051  2.2959
 2303TIP3    H228325   2.982   2.878   5.391 -2.9042  1.7847 -2.2696
 2304TIP3   OH228326   3.202   3.937  16.558  0.1869 -0.5547 -0.7252
 2304TIP3    H128327   3.281   3.949  16.611  0.6117 -1.0127 -1.2488
 2304TIP3    H228328   3.198   4.016  16.504 -1.8912  1.4082  2.0171
 2305TIP3   OH228329   1.520   6.562   4.620  0.1569 -0.2900  0.0404
 2305TIP3    H128330   1.502   6.520   4.705  0.4526 -1.0207 -0.2515
 2305TIP3    H228331   1.615   6.565   4.614  0.1474  0.9554  0.3046
 2306TIP3   OH228332   0.415   1.447  11.366  0.3965  0.2136  0.5910
 2306TIP3    H128333   0.382   1.500  11.293 -0.3439 -2.7920 -1.4490
 2306TIP3    H228334   0.510   1.461  11.363  0.2523  1.2052 -0.0366
 2307TIP3   OH228335   2.353   2.511  16.355  0.0768  0.2623  0.1283
 2307TIP3    H128336   2.434   2.540  16.395  0.2259 -0.3300  0.2660
 2307TIP3    H228337   2.284   2.551  16.408  0.2770  0.7033  0.0567
 2308TIP3   OH228338   3.886   0.457  12.820  0.1599 -0.2070  0.1742
 2308TIP3    H128339   3.915   0.400  12.749 -0.0738  0.3582 -0.3884
 2308TIP3    H228340   3.792   0.441  12.827  0.3074 -0.7962  0.8514
 2309TIP3   OH228341   3.631   3.586   4.617  0.6997 -0.2834  0.0702
 2309TIP3    H128342   3.546   3.589   4.573  1.2343  0.1623 -0.9737
 2309TIP3    H228343   3.692   3.627   4.555  1.5240  0.1781  1.1538
 2310TIP3   OH228344   5.874   5.037  11.121  0.4541 -0.8497  0.3266
 2310TIP3    H128345   5.811   4.988  11.069 -0.6604 -0.5833  1.3861
 2310TIP3    H228346   5.844   5.128  11.115  0.6966 -0.7282  0.8897
 2311TIP3   OH228347   2.018   0.762   5.657 -0.4736 -0.0214 -0.2121
 2311TIP3    H128348   2.103   0.778   5.616 -0.2579 -0.2013  0.1658
 2311TIP3    H228349   2.033   0.688   5.716 -1.0670 -0.5444 -0.6986
 2312TIP3   OH228350   4.402   1.696  12.319 -0.2135 -0.7271 -0.2909
 2312TIP3    H128351   4.307   1.701  12.331 -0.2730 -0.9003 -0.6801
 2312TIP3    H228352   4.417   1.612  12.276  0.2134 -1.1717  0.6795
 2313TIP3   OH228353   2.140   4.601   2.683  0.2139  0.2223  0.4698
 2313TIP3    H128354   2.162   4.613   2.590 -0.9144  0.4160  0.2122
 2313TIP3    H228355   2.160   4.509   2.700  2.9183  0.7780  0.7712
 2314TIP3   OH228356   5.063   4.738  14.055  0.4524 -0.4435  0.5454
 2314TIP3    H128357   5.036   4.774  14.140 -0.5067  1.0986 -0.3538
 2314TIP3    H228358   5.157   4.758  14.050  0.5255 -0.5735  1.2384
 2315TIP3   OH228359   5.050   3.981  13.611  0.4632  0.1843  0.3713
 2315TIP3    H128360   5.095   4.057  13.573  0.5403 -0.8733 -1.8515
 2315TIP3    H228361   4.994   4.018  13.679  0.2625  2.3012 -0.8346
 2316TIP3   OH228362   4.916   6.671  16.455 -0.2767 -0.2339 -0.8592
 2316TIP3    H128363   4.982   6.725  16.412  2.1182  0.6460  3.3303
 2316TIP3    H228364   4.874   6.731  16.518 -2.3112 -1.7630 -0.6552
 2317TIP3   OH228365   3.618   0.408   5.616 -0.3581  0.4102  0.2158
 2317TIP3    H128366   3.708   0.380   5.634 -0.0953  2.9998  4.0153
 2317TIP3    H228367   3.568   0.326   5.613  1.9541 -1.0586 -1.4291
 2318TIP3   OH228368   6.532   1.815   5.833 -0.9346  0.4173  0.7533
 2318TIP3    H128369   6.506   1.867   5.757 -1.1966 -1.1426 -0.2584
 2318TIP3    H228370   6.543   1.880   5.903 -0.8881  1.8627 -0.5408
 2319TIP3   OH228371   0.520   5.998  15.680  0.0694 -0.3713 -0.7191
 2319TIP3    H128372   0.596   5.993  15.739  0.1715 -1.0517 -0.8962
 2319TIP3    H228373   0.533   5.926  15.619 -1.6307 -1.6502  0.3460
 2320TIP3   OH228374   4.085   0.984  16.294  0.6737 -0.1714  0.0845
 2320TIP3    H128375   3.990   0.978  16.280  0.8821  0.1809 -1.7787
 2320TIP3    H228376   4.096   1.056  16.356 -0.3600 -1.6435  2.0813
 2321TIP3   OH228377   6.618   0.908   0.302  0.5950 -0.5936  0.4504
 2321TIP3    H128378   6.583   0.994   0.324  1.2532  0.3127 -1.7675
 2321TIP3    H228379   6.690   0.895   0.363  0.8493  0.6997  0.4595
 2322TIP3   OH228380   2.320   5.522   0.934  0.0301  0.6325 -0.3234
 2322TIP3    H128381   2.378   5.480   0.998 -0.8598  1.5839  1.1656
 2322TIP3    H228382   2.379   5.550   0.864  0.8836 -1.4986 -0.5481
 2323TIP3   OH228383   2.788   5.636  12.726  0.0456 -0.3414  0.7579
 2323TIP3    H128384   2.758   5.552  12.762  1.9145 -1.4500 -0.1468
 2323TIP3    H228385   2.851   5.612  12.658  0.4565  1.8141  0.3112
 2324TIP3   OH228386   1.979   4.827  11.556 -0.3113  0.0382  0.6911
 2324TIP3    H128387   1.919   4.851  11.485  0.7555  0.6227 -0.0423
 2324TIP3    H228388   2.065   4.826  11.515 -0.0271 -3.0929  1.1635
 2325TIP3   OH228389   0.769   4.268   3.666 -0.2109  0.2986 -0.0165
 2325TIP3    H128390   0.751   4.229   3.751  1.5365 -0.8959 -0.1414
 2325TIP3    H228391   0.721   4.214   3.604 -1.8060  1.4076  0.2030
 2326TIP3   OH228392   5.391   0.631   2.528 -0.2948  0.0058 -0.6403
 2326TIP3    H128393   5.401   0.537   2.515 -2.8696 -0.4738  0.3025
 2326TIP3    H228394   5.425   0.647   2.616 -0.7084 -0.2132 -0.4398
 2327TIP3   OH228395   5.544   0.003  15.034  0.0550 -0.2332  0.4033
 2327TIP3    H128396   5.609  -0.037  14.976  1.5390  0.1006  1.7658
 2327TIP3    H228397   5.504   0.072  14.981  1.1949 -0.0998 -0.3152
 2328TIP3   OH228398   0.853   2.434  15.709  0.6399  0.9610 -0.1802
 2328TIP3    H128399   0.813   2.429  15.622  1.4503  0.6364 -0.5496
 2328TIP3    H228400   0.840   2.347  15.747  1.7379  0.5607 -0.6605
 2329TIP3   OH228401   5.202   0.252  13.646 -0.5461  0.2091 -0.3021
 2329TIP3    H128402   5.235   0.233  13.558 -0.0823  1.1442 -0.3427
 2329TIP3    H228403   5.192   0.166  13.686  0.4724 -0.1823 -0.8326
 2330TIP3   OH228404   1.022   1.953   2.499 -0.1320 -0.2865  0.0275
 2330TIP3    H128405   1.057   1.864   2.492 -0.7931 -0.5349 -0.1711
 2330TIP3    H228406   1.000   1.977   2.409 -0.2005 -0.0252  0.1151
 2331TIP3   OH228407   4.796   5.987   0.804 -0.0718 -0.7167  0.2597
 2331TIP3    H128408   4.705   5.964   0.825 -0.7824  0.4176 -1.3564
 2331TIP3    H228409   4.810   5.948   0.718  0.6143  0.0148  0.0349
 2332TIP3   OH228410   3.313   1.856   0.102  0.2057 -0.1249  0.1928
 2332TIP3    H128411   3.380   1.838   0.168  0.4426 -0.3777 -0.1126
 2332TIP3    H228412   3.341   1.807   0.025  0.9916  1.7136 -0.7456
 2333TIP3   OH228413   2.868   0.881   1.322 -0.2588 -0.2850 -0.0024
 2333TIP3    H128414   2.916   0.932   1.387 -1.2879 -1.7166  1.9953
 2333TIP3    H228415   2.800   0.939   1.290 -1.2950 -0.2590  2.0890
 2334TIP3   OH228416   3.662   1.294   2.046  0.3350  0.3947  0.6989
 2334TIP3    H128417   3.718   1.362   2.083 -1.7399  1.4176  2.1896
 2334TIP3    H228418   3.646   1.322   1.956  0.3103  1.3718  0.9983
 2335TIP3   OH228419   1.711   1.774   4.761  0.3232 -0.2101 -0.2394
 2335TIP3    H128420   1.625   1.806   4.791  0.3384 -0.8582  0.5241
 2335TIP3    H228421   1.690   1.719   4.686  0.1158  0.0731 -0.3909
 2336TIP3   OH228422   4.839   2.661  13.354  0.1621  0.1020  0.4006
 2336TIP3    H128423   4.861   2.568  13.353  0.5690  0.1025  2.9036
 2336TIP3    H228424   4.745   2.663  13.373 -0.0663  0.2186 -0.6767
 2337TIP3   OH228425   6.412   2.790   3.441 -0.3259 -0.2000  0.6382
 2337TIP3    H128426   6.491   2.739   3.422 -0.1672 -0.0278  0.8235
 2337TIP3    H228427   6.346   2.755   3.382  0.1698  0.3763 -0.2669
 2338TIP3   OH228428   5.794   2.268  16.451 -0.3196 -0.6655  0.3196
 2338TIP3    H128429   5.827   2.294  16.537  0.2091 -0.2443 -0.0046
 2338TIP3    H228430   5.834   2.330  16.391 -1.5785 -0.2297 -0.1067
 2339TIP3   OH228431   1.406   3.914   3.164 -0.3830  0.3495 -0.0193
 2339TIP3    H128432   1.468   3.967   3.114 -0.2645 -0.9059 -1.2563
 2339TIP3    H228433   1.350   3.978   3.208  1.3007  1.5091  0.5482
 2340TIP3   OH228434   4.541   3.770   0.665  0.3864  0.1377 -0.6616
 2340TIP3    H128435   4.484   3.847   0.660 -0.8125 -0.8072 -2.8044
 2340TIP3    H228436   4.521   3.732   0.751  1.1273  2.2443  0.5149
 2341TIP3   OH228437   6.666   4.403  16.778  0.3721 -0.0965  0.4926
 2341TIP3    H128438   6.636   4.325  16.824  0.1765 -0.7931 -0.7716
 2341TIP3    H228439   6.589   4.460  16.775 -0.3074 -1.0273 -0.9581
 2342TIP3   OH228440   2.206   2.926  11.812 -0.1147 -0.0630 -0.4035
 2342TIP3    H128441   2.149   2.915  11.737  1.0992 -1.1684 -1.2173
 2342TIP3    H228442   2.290   2.953  11.775  0.3723 -0.1377  0.5866
 2343TIP3   OH228443   2.703   3.730   0.453 -0.5455  0.1322  0.0588
 2343TIP3    H128444   2.784   3.680   0.442 -2.0179 -2.3678 -0.2642
 2343TIP3    H228445   2.672   3.747   0.363 -0.7362  0.4660  0.1833
 2344TIP3   OH228446   4.782   1.202   4.051 -0.0140  0.4066  0.5295
 2344TIP3    H128447   4.776   1.161   4.138 -0.4226 -0.3017  0.1760
 2344TIP3    H228448   4.850   1.153   4.006 -2.0932 -1.5313 -0.7280
 2345TIP3   OH228449   4.715   2.989  17.093 -0.2502 -0.1146 -0.1155
 2345TIP3    H128450   4.795   3.037  17.111  0.0282 -0.7953  0.4985
 2345TIP3    H228451   4.744   2.903  17.063 -0.7376  0.1502 -1.4575
 2346TIP3   OH228452   4.585   5.185  15.335  0.2001  0.4188 -0.0467
 2346TIP3    H128453   4.622   5.263  15.294 -0.6922 -0.1376 -2.0579
 2346TIP3    H228454   4.572   5.124  15.262 -2.3180 -0.3186  0.9208
 2347TIP3   OH228455   3.213   4.954  13.881 -0.3667 -0.4082  0.1616
 2347TIP3    H128456   3.248   5.012  13.814  1.0110 -2.0945 -0.6655
 2347TIP3    H228457   3.210   5.007  13.960  0.4773  0.8825 -0.6473
 2348TIP3   OH228458   2.032   3.639  14.616 -0.1490  0.3737 -0.0178
 2348TIP3    H128459   2.008   3.722  14.576 -0.2210 -0.1885 -1.1673
 2348TIP3    H228460   1.949   3.603  14.648 -0.0958  0.8015  0.6312
 2349TIP3   OH228461   1.687   5.956   5.870 -0.8426 -0.5886 -0.2366
 2349TIP3    H128462   1.658   5.943   5.780 -0.8148  1.2735 -0.5369
 2349TIP3    H228463   1.775   5.993   5.862 -0.6186 -0.9215  0.5828
 2350TIP3   OH228464   1.972   2.357  16.425 -0.3841 -0.1810  0.3233
 2350TIP3    H128465   1.937   2.370  16.513 -1.8782 -0.8449 -0.1432
 2350TIP3    H228466   1.912   2.407  16.368 -0.4693 -1.1738 -0.4824
 2351TIP3   OH228467   5.909   1.472   2.933 -0.0432 -0.2041  0.2161
 2351TIP3    H128468   5.954   1.439   3.010  0.5634  0.2577  0.0633
 2351TIP3    H228469   5.832   1.415   2.924  0.2012 -0.6344  0.8072
 2352TIP3   OH228470   1.755   0.221  11.720 -0.5077 -0.2010  0.1828
 2352TIP3    H128471   1.812   0.189  11.650 -1.0017 -0.1417 -0.2478
 2352TIP3    H228472   1.756   0.316  11.710  1.1655 -0.0063  1.6160
 2353TIP3   OH228473   6.256   0.833   4.330 -0.5883 -0.3728  0.3025
 2353TIP3    H128474   6.307   0.913   4.338  1.4637 -1.5249 -0.4139
 2353TIP3    H228475   6.178   0.858   4.281 -0.4069  1.3397  0.8513
 2354TIP3   OH228476   0.681   3.214  16.689 -0.2622  0.0058 -0.2143
 2354TIP3    H128477   0.757   3.162  16.715  0.2897  0.6405 -0.5441
 2354TIP3    H228478   0.682   3.289  16.749 -0.3882  0.2307 -0.4946
 2355TIP3   OH228479   4.384   6.557   2.935 -0.3117  0.1986  0.4404
 2355TIP3    H128480   4.417   6.508   3.010 -0.2909  1.0556  1.0046
 2355TIP3    H228481   4.440   6.530   2.862 -1.4896 -2.0386  0.2903
 2356TIP3   OH228482   2.685   4.979   5.640 -0.0935 -0.4174  0.5175
 2356TIP3    H128483   2.725   5.061   5.613 -1.5417 -0.1024 -0.7819
 2356TIP3    H228484   2.730   4.912   5.588 -1.9836  0.0601 -1.9094
 2357TIP3   OH228485   2.051   4.201  14.665 -0.4030  0.4467  0.1985
 2357TIP3    H128486   2.057   4.110  14.637  1.5257  1.1098 -1.8330
 2357TIP3    H228487   1.959   4.225  14.651 -0.6085 -0.7765 -0.6385
 2358TIP3   OH228488   4.126   5.491  17.050  0.2273 -0.2222  0.0518
 2358TIP3    H128489   4.036   5.456  17.048  0.3458 -0.4951 -1.6812
 2358TIP3    H228490   4.182   5.414  17.044  0.6185 -0.0665  1.2962
 2359TIP3   OH228491   6.683   0.827  15.738 -0.0723 -0.0701  0.2506
 2359TIP3    H128492   6.608   0.809  15.796  0.4268 -0.5664  0.7589
 2359TIP3    H228493   6.759   0.800  15.789  0.4579  0.4343 -0.2615
 2360TIP3   OH228494   3.499   5.624   3.998 -0.4488 -0.0093  0.0299
 2360TIP3    H128495   3.586   5.621   4.038 -0.5212 -0.1133  0.1772
 2360TIP3    H228496   3.504   5.698   3.937 -1.2870  2.1702  2.4175
 2361TIP3   OH228497   4.487   5.055   3.534  0.1540  0.1527 -0.8674
 2361TIP3    H128498   4.528   5.006   3.462  1.7859  1.1497 -0.6664
 2361TIP3    H228499   4.516   5.145   3.521 -2.0763  0.9536 -0.7252
 2362TIP3   OH228500   1.721   1.361  12.080  0.0039 -0.2581 -0.4831
 2362TIP3    H128501   1.687   1.396  12.162 -0.4432 -2.6360  0.4148
 2362TIP3    H228502   1.656   1.386  12.014 -1.8115 -1.8050  0.6199
 2363TIP3   OH228503   5.828   0.073   5.833 -0.5434 -0.1874  0.0240
 2363TIP3    H128504   5.824   0.149   5.891  0.6080 -1.5394  1.9576
 2363TIP3    H228505   5.890   0.098   5.765 -1.2949  1.1186 -0.2153
 2364TIP3   OH228506   3.778   5.336  13.592  0.5304  0.3799  0.2244
 2364TIP3    H128507   3.855   5.300  13.547  0.4312  0.9221 -0.3819
 2364TIP3    H228508   3.745   5.262  13.644  1.4907  0.1557  0.5475
 2365TIP3   OH228509   5.982   1.962   2.629  0.3974 -0.1234 -0.4133
 2365TIP3    H128510   5.887   1.960   2.642  0.5218  1.7630  1.2139
 2365TIP3    H228511   6.019   1.937   2.714  1.2732  2.7221  0.1859
 2366TIP3   OH228512   1.064   1.046  16.882  1.0958  0.5231  0.2373
 2366TIP3    H128513   1.008   1.077  16.811  0.6775  1.6886  1.0470
 2366TIP3    H228514   1.004   1.001  16.942  1.3339  0.1679  0.2171
 2367TIP3   OH228515   5.392   0.255   5.937 -0.7897  0.5963 -0.1424
 2367TIP3    H128516   5.373   0.344   5.908 -0.9233  0.6301  0.0443
 2367TIP3    H228517   5.366   0.200   5.863  0.8561  0.8096 -0.9239
 2368TIP3   OH228518   1.532   5.670   5.208 -0.1990  0.2211  0.7361
 2368TIP3    H128519   1.517   5.764   5.205  0.2953  0.2963  0.4679
 2368TIP3    H228520   1.565   5.653   5.296  0.3852  0.4091  0.5592
 2369TIP3   OH228521   3.918   5.052   0.725  0.2048 -0.0132  0.2436
 2369TIP3    H128522   3.965   5.135   0.716 -1.6905  1.3256  2.0309
 2369TIP3    H228523   3.947   5.017   0.809  1.8061 -1.7924 -0.9647
 2370TIP3   OH228524   2.785   6.001  13.731 -0.1589  0.3291  0.2473
 2370TIP3    H128525   2.716   6.005  13.664  0.3188  0.9103 -0.2262
 2370TIP3    H228526   2.800   5.908  13.744 -0.6004  0.2028 -0.0964
 2371TIP3   OH228527   1.480   4.130  17.244 -0.4775 -0.4659  0.5630
 2371TIP3    H128528   1.442   4.124  17.332  2.3451  0.8137  2.0167
 2371TIP3    H228529   1.548   4.062  17.244  2.1435  1.9664  0.9242
 2372TIP3   OH228530   5.909   1.781  12.418  0.0279  0.4561  0.0155
 2372TIP3    H128531   5.941   1.856  12.469  0.7477  0.4911 -0.4728
 2372TIP3    H228532   5.899   1.711  12.482  2.4911  0.0059  0.0105
 2373TIP3   OH228533   1.009   1.993   4.725 -0.3466 -0.0820  0.0260
 2373TIP3    H128534   0.986   2.070   4.778  1.5554  0.6725 -0.1568
 2373TIP3    H228535   1.088   2.020   4.677 -0.1713 -1.8464 -0.7451
 2374TIP3   OH228536   1.518   1.554  12.687 -0.3404 -0.5310 -0.2311
 2374TIP3    H128537   1.472   1.557  12.771  1.3946 -1.3009  0.8107
 2374TIP3    H228538   1.608   1.530  12.710  0.2938 -0.3222 -2.2844
 2375TIP3   OH228539   0.439   4.038  11.215 -0.1216  0.1075 -0.2819
 2375TIP3    H128540   0.413   4.069  11.128  0.4766  1.2870 -0.0597
 2375TIP3    H228541   0.509   4.097  11.241  0.8660 -1.2585  0.3061
 2376TIP3   OH228542   1.297   0.288   1.162 -0.4172 -0.3580 -0.0527
 2376TIP3    H128543   1.286   0.198   1.130 -0.3599 -0.5677  0.5088
 2376TIP3    H228544   1.388   0.309   1.143 -0.9945  0.4159 -2.2609
 2377TIP3   OH228545   4.680   6.732  11.205  0.1809 -0.1904  0.2768
 2377TIP3    H128546   4.724   6.659  11.160  0.3727  0.0773  0.0270
 2377TIP3    H228547   4.748   6.797  11.216  0.1561 -0.2930  1.0511
 2378TIP3   OH228548   3.402   2.928   5.489  0.2083  0.6792 -0.0438
 2378TIP3    H128549   3.377   2.919   5.581 -0.5520 -1.4727 -0.4049
 2378TIP3    H228550   3.463   2.856   5.474 -0.1088  0.6659 -1.3620
 2379TIP3   OH228551   3.632   0.579   4.175 -0.5515 -0.4049  0.4408
 2379TIP3    H128552   3.680   0.540   4.247  1.9511  0.6941 -0.5060
 2379TIP3    H228553   3.551   0.612   4.214  0.4369 -0.3919  2.5924
 2380TIP3   OH228554   4.219   3.537  13.548  0.3570 -0.1493 -0.3836
 2380TIP3    H128555   4.230   3.444  13.563 -0.2322 -0.2733 -0.6779
 2380TIP3    H228556   4.153   3.543  13.479 -0.4893  0.5085  0.4568
 2381TIP3   OH228557   6.527   2.134   3.582  0.0431  0.3634  0.2876
 2381TIP3    H128558   6.458   2.170   3.637  1.9913  1.9912  1.7950
 2381TIP3    H228559   6.552   2.053   3.626 -0.3218  0.1891  0.1839
 2382TIP3   OH228560   2.817   4.703   3.498 -0.3800  0.2292 -0.5742
 2382TIP3    H128561   2.755   4.662   3.559 -0.2489 -1.6733 -1.6521
 2382TIP3    H228562   2.781   4.791   3.483 -2.1361 -0.3875 -0.1897
 2383TIP3   OH228563   1.177   2.375   1.950  0.2759 -0.2254  0.2493
 2383TIP3    H128564   1.233   2.452   1.939  0.8213 -0.3436  1.8378
 2383TIP3    H228565   1.091   2.402   1.917  0.5426  0.9533  0.4627
 2384TIP3   OH228566   6.289   3.587   1.769  0.2700 -0.8160 -0.1851
 2384TIP3    H128567   6.338   3.632   1.837 -0.2319  0.9222 -0.9156
 2384TIP3    H228568   6.227   3.531   1.817  0.1547  0.1145  0.7840
 2385TIP3   OH228569   6.455   4.726  12.799  0.3024  0.1650  0.4591
 2385TIP3    H128570   6.398   4.649  12.792  0.0253  0.5194 -2.8093
 2385TIP3    H228571   6.539   4.696  12.765  0.2006  1.2517 -0.8047
 2386TIP3   OH228572   5.140   2.731   1.966 -0.0060  0.0150  0.0557
 2386TIP3    H128573   5.216   2.676   1.984 -0.9491 -1.2637  0.2612
 2386TIP3    H228574   5.065   2.680   1.997 -0.8579  1.8132  1.1360
 2387TIP3   OH228575   4.879   5.568  15.156 -0.1243 -0.1667  0.5941
 2387TIP3    H128576   4.961   5.549  15.111 -0.3739  0.4826 -0.1655
 2387TIP3    H228577   4.890   5.657  15.190  0.4786 -1.0259  2.8187
 2388TIP3   OH228578   2.993   6.523  14.942  0.2376  0.1132 -0.8236
 2388TIP3    H128579   2.937   6.533  15.019  0.0087  0.0612 -0.9827
 2388TIP3    H228580   2.933   6.496  14.872  0.2478  1.2924 -1.3053
 2389TIP3   OH228581   0.845   3.342   0.155 -0.3717  0.1298  0.2116
 2389TIP3    H128582   0.752   3.322   0.145 -0.1005 -2.1520  1.7226
 2389TIP3    H228583   0.874   3.360   0.065 -2.0769  0.1620 -0.3849
 2390TIP3   OH228584   4.671   1.983   3.856  0.5625  0.6275 -0.7240
 2390TIP3    H128585   4.752   2.001   3.904  0.1002  0.6795  0.0504
 2390TIP3    H228586   4.624   2.066   3.855 -0.2882  0.1928  0.4010
 2391TIP3   OH228587   1.663   1.541  16.225 -0.5261 -0.1799 -0.0847
 2391TIP3    H128588   1.597   1.594  16.270 -0.7857  0.3492 -1.0423
 2391TIP3    H228589   1.621   1.517  16.142  0.7540  0.8846 -1.0920
 2392TIP3   OH228590   3.449   4.408   3.200  0.2181 -0.4212  0.4798
 2392TIP3    H128591   3.441   4.484   3.142  0.3624 -0.4840  0.3776
 2392TIP3    H228592   3.370   4.357   3.183 -0.0404 -0.1225  0.7952
 2393TIP3   OH228593   5.792   6.171  16.142 -0.2053 -0.7944 -0.2058
 2393TIP3    H128594   5.876   6.133  16.114 -0.2482  0.1521 -1.7508
 2393TIP3    H228595   5.811   6.263  16.158 -0.9252 -0.5732 -0.5622
 2394TIP3   OH228596   2.408   2.683   5.552  0.1453 -0.2057  0.5052
 2394TIP3    H128597   2.375   2.646   5.470  1.5313  0.5993 -0.4557
 2394TIP3    H228598   2.455   2.610   5.593 -1.3842 -0.8977  1.1115
 2395TIP3   OH228599   0.601   3.710  12.885  0.0351  0.3845  0.4498
 2395TIP3    H128600   0.665   3.758  12.937  0.7100  1.2496 -1.1080
 2395TIP3    H228601   0.519   3.719  12.933  0.0455  3.4589  0.0796
 2396TIP3   OH228602   4.487   1.592   3.244 -0.3246  0.3402  0.5324
 2396TIP3    H128603   4.454   1.502   3.241 -0.5844  0.4378  0.4410
 2396TIP3    H228604   4.466   1.622   3.332  0.2713  0.1218  0.7537
 2397TIP3   OH228605   0.618   3.872   0.109 -0.2133  0.0670 -0.1187
 2397TIP3    H128606   0.581   3.953   0.145  0.2711  0.2374  0.0063
 2397TIP3    H228607   0.698   3.900   0.064 -1.5390  0.0643 -2.6200
 2398TIP3   OH228608   4.562   1.454  11.817  0.3601  0.1718  0.2126
 2398TIP3    H128609   4.507   1.394  11.867  0.5430  0.0111  0.2257
 2398TIP3    H228610   4.608   1.398  11.754  1.1574  0.1692  0.7745
 2399TIP3   OH228611   6.102   5.124   0.973  0.1291  0.4367  0.2239
 2399TIP3    H128612   6.160   5.188   0.933 -0.1718  0.3801 -0.3078
 2399TIP3    H228613   6.067   5.073   0.900 -0.7428  0.5974  0.5156
 2400TIP3   OH228614   0.374   3.646   5.860 -0.3765 -0.2912  0.2118
 2400TIP3    H128615   0.315   3.712   5.824 -0.0860  0.6813  1.4578
 2400TIP3    H228616   0.458   3.691   5.871  0.0281 -1.0680  0.3918
 2401TIP3   OH228617   1.360   6.215   0.453  0.3874  0.0758  0.7928
 2401TIP3    H128618   1.450   6.250   0.450  0.6018 -0.4688  0.7285
 2401TIP3    H228619   1.371   6.122   0.435 -0.2885  0.1714 -0.1649
 2402TIP3   OH228620   6.092   0.613   1.779  0.2374 -0.4259 -0.1493
 2402TIP3    H128621   6.144   0.646   1.706 -2.3253  0.7371 -1.5798
 2402TIP3    H228622   6.059   0.528   1.749 -0.2409 -0.2781 -0.0464
 2403TIP3   OH228623   4.281   0.926  14.138 -0.5056  0.3499 -0.8322
 2403TIP3    H128624   4.331   0.845  14.147 -0.6799  0.3523  0.1869
 2403TIP3    H228625   4.298   0.954  14.048  1.4210  0.4158 -0.4770
 2404TIP3   OH228626   1.337   3.333   2.104 -0.8500 -0.4909 -0.1308
 2404TIP3    H128627   1.345   3.392   2.028  1.0157  0.5613  0.8030
 2404TIP3    H228628   1.393   3.259   2.082  0.2900  0.1572  0.4632
 2405TIP3   OH228629   2.826   2.959  13.712 -0.6128 -0.3391  0.6939
 2405TIP3    H128630   2.811   2.936  13.620 -1.9520 -1.0456  1.0554
 2405TIP3    H228631   2.813   3.054  13.715 -2.8987 -0.5847  0.5146
 2406TIP3   OH228632   1.335   0.566  11.667  0.5993  0.3065  0.1266
 2406TIP3    H128633   1.242   0.588  11.661  0.3515 -0.9820 -1.4156
 2406TIP3    H228634   1.370   0.625  11.734 -1.2911  0.9073  0.6265
 2407TIP3   OH228635   5.220   6.627  12.349 -0.1152 -0.0512 -0.1489
 2407TIP3    H128636   5.207   6.558  12.415 -1.2590 -0.1664 -0.4756
 2407TIP3    H228637   5.302   6.602  12.305 -0.4287 -1.1330 -0.1678
 2408TIP3   OH228638   3.090   3.115   1.357 -0.1655  0.8421 -0.4196
 2408TIP3    H128639   3.096   3.159   1.442  0.2143 -0.5906  0.3262
 2408TIP3    H228640   3.057   3.027   1.377  2.6707 -0.5538 -1.3598
 2409TIP3   OH228641   5.817   1.335   0.334  0.3534  0.5248 -0.5890
 2409TIP3    H128642   5.817   1.401   0.404 -0.5091 -0.3082  0.2042
 2409TIP3    H228643   5.881   1.369   0.271 -0.2406  2.2515 -0.3252
 2410TIP3   OH228644   6.237   5.769  11.508 -0.3477 -0.8089 -0.4847
 2410TIP3    H128645   6.293   5.802  11.437  1.8892 -0.4996  1.2932
 2410TIP3    H228646   6.162   5.730  11.463  1.1316 -0.9755 -3.0157
 2411TIP3   OH228647   4.097   4.766  13.151 -0.3910  0.4640  0.1028
 2411TIP3    H128648   4.006   4.754  13.180 -0.4876 -0.4736 -0.5198
 2411TIP3    H228649   4.120   4.683  13.110  0.1265  1.3045 -1.3997
 2412TIP3   OH228650   0.090   5.763  15.472 -0.4104 -0.4332  0.5247
 2412TIP3    H128651   0.094   5.740  15.565  1.2334 -1.2325  0.2867
 2412TIP3    H228652   0.058   5.684  15.429 -0.8112 -0.1882  0.3735
 2413TIP3   OH228653   1.314   4.768   5.129 -0.1945  0.3873  0.2132
 2413TIP3    H128654   1.272   4.838   5.077 -0.8650  0.4483  0.8168
 2413TIP3    H228655   1.243   4.707   5.148  0.3347 -0.3372 -0.0816
 2414TIP3   OH228656   0.062   2.633  17.148 -0.4925  0.5215 -0.2405
 2414TIP3    H128657   0.125   2.585  17.202 -1.1211 -1.7981 -1.4506
 2414TIP3    H228658   0.068   2.724  17.179  0.4120 -0.3800  2.4781
 2415TIP3   OH228659   5.366   5.632   2.900  0.3410  0.2788 -0.1962
 2415TIP3    H128660   5.351   5.616   2.993 -0.3468  0.2308 -0.3129
 2415TIP3    H228661   5.284   5.606   2.858  0.0284  1.8928 -0.6482
 2416TIP3   OH228662   2.888   0.543  15.370  0.2880 -0.1066 -0.0989
 2416TIP3    H128663   2.941   0.610  15.326  0.6029  1.4419  2.4222
 2416TIP3    H228664   2.802   0.585  15.382 -0.7493 -1.6071 -1.7585
 2417TIP3   OH228665   3.639   0.922  14.988  0.2645 -0.4081 -0.0487
 2417TIP3    H128666   3.548   0.934  15.014 -0.6678 -0.7947 -2.8014
 2417TIP3    H228667   3.637   0.851  14.924  2.3010  0.4339 -1.1615
 2418TIP3   OH228668   4.366   4.012   3.009  0.0170  0.3545  0.1445
 2418TIP3    H128669   4.320   4.053   3.082 -0.5393  0.2473 -0.1361
 2418TIP3    H228670   4.420   3.944   3.050  0.6082  1.0645  0.5635
 2419TIP3   OH228671   2.601   3.677  12.991  0.3980  0.6391  0.9524
 2419TIP3    H128672   2.613   3.702  13.083 -2.2233  0.5443  1.3867
 2419TIP3    H228673   2.599   3.581  12.993 -0.6645  0.6595  0.9518
 2420TIP3   OH228674   1.819   2.772  15.473  0.3519  0.2033  0.2006
 2420TIP3    H128675   1.801   2.777  15.567 -0.6065  3.4750 -0.0188
 2420TIP3    H228676   1.777   2.691  15.445 -1.6571  0.4524  2.1928
 2421TIP3   OH228677   6.509   1.493  14.576  0.2367  0.0239  0.0976
 2421TIP3    H128678   6.434   1.437  14.597  0.5462  0.0264  1.2340
 2421TIP3    H228679   6.492   1.575  14.624  0.2723  0.5541 -0.7688
 2422TIP3   OH228680   2.687   2.709  13.663 -0.0085 -0.2388  0.3729
 2422TIP3    H128681   2.607   2.760  13.671 -1.0570 -2.0506  2.6314
 2422TIP3    H228682   2.742   2.739  13.735  0.4876 -0.3890  0.0562
 2423TIP3   OH228683   1.997   0.852   0.921 -0.2957 -0.2318 -0.4467
 2423TIP3    H128684   1.998   0.774   0.865 -1.2451 -0.9000  0.4349
 2423TIP3    H228685   1.962   0.822   1.004  0.6239  0.8568  0.3655
 2424TIP3   OH228686   0.263   0.681  13.689  0.2740 -0.0688 -0.6760
 2424TIP3    H128687   0.198   0.726  13.636  0.4634 -1.1967 -1.8912
 2424TIP3    H228688   0.212   0.637  13.758  0.0281  1.3283  0.0752
 2425TIP3   OH228689   5.901   0.494  16.219 -0.5214 -0.6099  1.2427
 2425TIP3    H128690   5.973   0.444  16.179  0.1056  0.1719  1.3765
 2425TIP3    H228691   5.832   0.493  16.153  0.3187  0.2335  0.3256
 2426TIP3   OH228692   6.054   4.095   5.508 -0.5970  0.7833  0.4443
 2426TIP3    H128693   6.039   4.180   5.550  0.3174  1.0675  0.2090
 2426TIP3    H228694   6.089   4.040   5.579 -0.0388  0.9628  0.3151
 2427TIP3   OH228695   3.552   1.242   5.707  0.2050  0.3553  0.7243
 2427TIP3    H128696   3.614   1.299   5.662  1.2779 -0.5867  0.9685
 2427TIP3    H228697   3.605   1.170   5.740 -0.7317  0.4221  2.5029
 2428TIP3   OH228698   1.383   2.312  14.863  0.1289 -0.0865 -0.2295
 2428TIP3    H128699   1.446   2.241  14.854  0.8788  0.4144  0.8710
 2428TIP3    H228700   1.432   2.391  14.842 -0.2278  0.2697  0.2394
 2429TIP3   OH228701   5.118   6.736  12.776  0.5600  0.1459  0.6197
 2429TIP3    H128702   5.112   6.708  12.867 -0.8065  2.8502  1.4638
 2429TIP3    H228703   5.076   6.822  12.774 -3.2859 -1.4681 -3.3521
 2430TIP3   OH228704   6.728   0.027  13.158 -0.5603  0.1204 -0.1454
 2430TIP3    H128705   6.808  -0.016  13.126 -0.7813 -0.6942  0.3627
 2430TIP3    H228706   6.661   0.002  13.094 -0.4127  0.8188 -0.5807
 2431TIP3   OH228707   1.241   0.404   3.074 -0.0417  0.4819  0.5710
 2431TIP3    H128708   1.285   0.379   3.155 -1.3391  0.7078  1.3734
 2431TIP3    H228709   1.216   0.321   3.033  0.5847  0.3677  0.4211
 2432TIP3   OH228710   0.832   0.691  12.016  0.1407 -0.4506  0.3596
 2432TIP3    H128711   0.902   0.756  12.018  0.0878 -0.2967 -1.4490
 2432TIP3    H228712   0.861   0.623  12.077  0.3800  1.0375  1.9865
 2433TIP3   OH228713   4.713   0.767   5.424  0.6304  0.1060 -0.2676
 2433TIP3    H128714   4.646   0.813   5.372  0.9381 -0.0133 -0.7818
 2433TIP3    H228715   4.709   0.677   5.392 -0.9035 -0.5834  1.6660
 2434TIP3   OH228716   5.278   4.601  14.597  0.2458  0.4214  0.3309
 2434TIP3    H128717   5.189   4.583  14.626  0.9643 -0.8173  1.9857
 2434TIP3    H228718   5.322   4.516  14.599  1.8561  1.2033  1.1010
 2435TIP3   OH228719   2.649   1.064   0.373 -0.3735  0.1896  0.2398
 2435TIP3    H128720   2.608   1.035   0.291  1.2491 -2.3588  0.1959
 2435TIP3    H228721   2.708   1.134   0.347 -0.1478 -0.3380 -0.7425
 2436TIP3   OH228722   2.733   0.517   3.588  0.2542 -0.6223 -0.0544
 2436TIP3    H128723   2.663   0.452   3.593 -0.6920  0.4360  1.9023
 2436TIP3    H228724   2.686   0.601   3.591  1.4522  0.1762 -2.0990
 2437TIP3   OH228725   2.320   4.484   1.602 -0.4553  0.0852 -0.3063
 2437TIP3    H128726   2.239   4.530   1.582 -0.4636  0.0576 -0.3366
 2437TIP3    H228727   2.382   4.553   1.624 -0.7652  0.0549  0.7260
 2438TIP3   OH228728   4.261   3.646   1.696 -0.4839 -0.6247 -0.1223
 2438TIP3    H128729   4.207   3.568   1.709  0.3137 -1.1901 -0.1164
 2438TIP3    H228730   4.311   3.653   1.778 -0.7881  0.0936  0.0114
 2439TIP3   OH228731   4.340   1.114   2.026  0.0192  0.1122 -0.5436
 2439TIP3    H128732   4.424   1.113   2.072 -0.1393 -0.1261 -0.2537
 2439TIP3    H228733   4.294   1.191   2.062 -0.0975 -0.0638 -0.3163
 2440TIP3   OH228734   0.111   1.380   2.647 -0.1049  0.0505 -0.0011
 2440TIP3    H128735   0.153   1.466   2.656 -0.7198  0.3131  0.4184
 2440TIP3    H228736   0.172   1.330   2.592 -0.5817  1.3310 -1.8002
 2441TIP3   OH228737   5.708   3.770  13.276 -0.1276  0.3243 -0.5406
 2441TIP3    H128738   5.705   3.854  13.230 -0.3914  1.2096  1.0425
 2441TIP3    H228739   5.651   3.713  13.223 -2.0938  1.8787 -0.2533
 2442TIP3   OH228740   1.545   2.598   0.169  0.0125 -0.1183  0.2556
 2442TIP3    H128741   1.463   2.646   0.178  0.6871  1.0731  0.1463
 2442TIP3    H228742   1.607   2.643   0.227  1.1384  0.2695 -1.1950
 2443TIP3   OH228743   3.903   2.602  16.352  0.1740 -0.3708  0.4097
 2443TIP3    H128744   3.859   2.621  16.269  0.2880  4.1923  1.1629
 2443TIP3    H228745   3.971   2.538  16.329 -0.1952  0.2430 -2.8949
 2444TIP3   OH228746   4.027   0.019   5.380 -0.4591 -0.1094  0.0022
 2444TIP3    H128747   3.960  -0.027   5.431  0.2096 -1.5743 -0.4020
 2444TIP3    H228748   4.108  -0.029   5.396  0.0585  0.2796 -1.2717
 2445TIP3   OH228749   4.698   5.361   0.379 -0.5872  0.1340 -0.2330
 2445TIP3    H128750   4.792   5.375   0.375 -0.5496 -0.0745 -0.0746
 2445TIP3    H228751   4.661   5.433   0.327 -0.5134  1.9665  2.0880
 2446TIP3   OH228752   5.535   0.315   4.121  0.1553 -0.4488 -0.1373
 2446TIP3    H128753   5.538   0.411   4.122 -2.7287 -0.2465 -0.2742
 2446TIP3    H228754   5.567   0.290   4.208  0.9314  0.6410 -0.0893
 2447TIP3   OH228755   2.373   5.347  12.914  0.2867  0.1784 -0.9307
 2447TIP3    H128756   2.391   5.264  12.870  0.2556  0.1024 -0.8007
 2447TIP3    H228757   2.425   5.343  12.994 -1.7606 -0.8890  0.4369
 2448TIP3   OH228758   6.328   1.268  11.063  0.1683  0.6807 -0.3329
 2448TIP3    H128759   6.420   1.295  11.055  0.9251 -1.3013  0.8613
 2448TIP3    H228760   6.324   1.183  11.020 -0.2174 -0.9125  2.6339
 2449TIP3   OH228761   2.974   1.945   3.624 -0.4069  0.6178 -0.1032
 2449TIP3    H128762   2.994   1.927   3.532 -0.8392  0.7894 -0.2357
 2449TIP3    H228763   2.901   1.888   3.645 -1.5926  1.9428 -0.4444
 2450TIP3   OH228764   2.144   0.182   3.204  0.2643 -0.1145  0.2621
 2450TIP3    H128765   2.113   0.272   3.210  1.2618  0.1564  2.3409
 2450TIP3    H228766   2.141   0.161   3.111 -1.3631  1.5486 -0.1223
 2451TIP3   OH228767   6.263   1.512   2.359  0.2553  0.2487 -0.0414
 2451TIP3    H128768   6.300   1.451   2.423  2.0714 -0.5843 -1.7886
 2451TIP3    H228769   6.270   1.597   2.401  0.8768 -0.3325  1.0990
 2452TIP3   OH228770   2.622   3.889  12.836 -0.0004 -0.4503 -0.8668
 2452TIP3    H128771   2.714   3.910  12.823  0.0920  2.2411  2.5146
 2452TIP3    H228772   2.621   3.807  12.885  1.0782  1.5423  2.8617
 2453TIP3   OH228773   0.014   5.119  15.133 -0.0436  0.2843 -0.3154
 2453TIP3    H128774   0.091   5.151  15.180 -0.7085 -0.2257  1.1792
 2453TIP3    H228775  -0.057   5.177  15.159 -0.2996  0.4189 -1.2571
 2454TIP3   OH228776   1.389   3.579  15.694  0.3557 -0.1732  0.2409
 2454TIP3    H128777   1.409   3.633  15.770 -0.5388 -0.0566  0.4053
 2454TIP3    H228778   1.312   3.528  15.719  0.6562 -0.8858 -0.2278
 2455TIP3   OH228779   5.045   1.788   0.253  0.1499 -0.4992 -0.0942
 2455TIP3    H128780   4.995   1.864   0.280  1.8308 -0.6986  4.5402
 2455TIP3    H228781   5.125   1.824   0.213  0.2148  0.1357  0.5963
 2456TIP3   OH228782   5.393   2.906   0.373  0.6088  0.3324 -0.6548
 2456TIP3    H128783   5.297   2.908   0.380  0.6366 -0.7315  0.1435
 2456TIP3    H228784   5.418   2.820   0.407  1.7207 -0.1548 -2.5711
 2457TIP3   OH228785   5.377   2.752  10.996  0.2209 -0.1985  0.3286
 2457TIP3    H128786   5.351   2.718  10.911  4.6330  0.0323 -1.3710
 2457TIP3    H228787   5.416   2.678  11.041  2.2331  0.6360  0.0749
 2458TIP3   OH228788   3.101   3.025  14.986 -0.4384 -0.0817  0.2551
 2458TIP3    H128789   3.106   2.941  14.939 -0.3360  0.8580 -1.5064
 2458TIP3    H228790   3.011   3.055  14.971  0.1390  1.1279 -1.0353
 2459TIP3   OH228791   2.067   3.270  11.764  0.2587  0.0850  0.0662
 2459TIP3    H128792   2.058   3.209  11.691 -0.1396  1.0746 -0.7490
 2459TIP3    H228793   1.978   3.282  11.796  0.5336 -1.0001  1.2974
 2460TIP3   OH228794   2.662   2.389   0.570  0.0859 -0.5925 -0.2506
 2460TIP3    H128795   2.747   2.358   0.604  0.0284 -1.1003 -0.5536
 2460TIP3    H228796   2.670   2.484   0.568  0.8089 -0.6526 -0.6688
 2461TIP3   OH228797   5.215   3.365   3.314  0.2718  0.3584 -0.1531
 2461TIP3    H128798   5.297   3.415   3.320 -0.3997  1.3753  0.9219
 2461TIP3    H228799   5.214   3.312   3.394 -0.4109  0.8068  0.1361
 2462TIP3   OH228800   5.192   4.476  13.562  0.0142 -0.1383 -0.3262
 2462TIP3    H128801   5.271   4.480  13.616 -0.5470  0.8231  0.4595
 2462TIP3    H228802   5.130   4.426  13.613 -0.7321  1.3061  0.2518
 2463TIP3   OH228803   1.529   3.096   2.974 -0.3620 -0.2707  0.3686
 2463TIP3    H128804   1.448   3.055   2.943 -1.1193  0.8937  0.7280
 2463TIP3    H228805   1.501   3.152   3.046  0.6351  0.7935 -0.0384
 2464TIP3   OH228806   1.238   1.881   1.086  0.0974  0.1774  0.8989
 2464TIP3    H128807   1.332   1.877   1.102 -0.0463  0.2992  1.7880
 2464TIP3    H228808   1.211   1.789   1.079  0.0245  0.0887  2.2007
 2465TIP3   OH228809   5.891   4.300  15.688  0.5184  0.5477 -0.2341
 2465TIP3    H128810   5.800   4.269  15.686  0.2658  0.5975  3.6433
 2465TIP3    H228811   5.943   4.224  15.662 -0.5054 -0.4727  0.6064
 2466TIP3   OH228812   3.439   0.949  13.629  0.0240  0.4771  0.2109
 2466TIP3    H128813   3.394   1.006  13.566 -2.2354  1.9291  2.9270
 2466TIP3    H228814   3.516   0.999  13.655 -1.7672  2.3477  2.3237
 2467TIP3   OH228815   4.580   6.451  13.920  0.3364  0.3567  0.0300
 2467TIP3    H128816   4.632   6.490  13.850 -0.3074  1.3455  0.0725
 2467TIP3    H228817   4.642   6.436  13.991  0.8622 -0.0116 -0.4963
 2468TIP3   OH228818   0.703   3.857  17.058 -0.1957 -0.0172  0.5485
 2468TIP3    H128819   0.622   3.812  17.082  0.0330 -0.4103  0.5860
 2468TIP3    H228820   0.769   3.789  17.056  0.0361  0.2163  0.0081
 2469TIP3   OH228821   3.539   1.231   5.414 -0.1801  0.7388  0.1151
 2469TIP3    H128822   3.611   1.243   5.477  0.2503  0.8003 -0.3811
 2469TIP3    H228823   3.508   1.142   5.429  0.2664  0.5723  0.0632
 2470TIP3   OH228824   0.817   3.793  14.645 -0.4186 -0.3535  0.0532
 2470TIP3    H128825   0.802   3.888  14.649 -0.3119 -0.3543  0.5549
 2470TIP3    H228826   0.745   3.756  14.697  1.8374 -0.2970  3.5237
 2471TIP3   OH228827   5.823   0.289  15.689 -0.4283  0.3236 -0.1118
 2471TIP3    H128828   5.879   0.212  15.698 -1.6323 -0.4646  0.8949
 2471TIP3    H228829   5.882   0.363  15.703  0.4964 -0.4551  0.2496
 2472TIP3   OH228830   0.190   1.039  15.861 -0.7290  0.2455 -0.1967
 2472TIP3    H128831   0.182   0.947  15.836  0.5047  0.2396 -0.6514
 2472TIP3    H228832   0.178   1.040  15.956 -0.2664 -0.4437 -0.1285
 2473TIP3   OH228833   1.194   5.701   5.287 -0.0253  0.3606 -0.2389
 2473TIP3    H128834   1.256   5.647   5.238 -0.4068  0.1957 -0.5515
 2473TIP3    H228835   1.197   5.665   5.376 -0.4085 -0.3091 -0.4839
 2474TIP3   OH228836   2.790   2.553  14.063  0.9193  0.6080 -0.0014
 2474TIP3    H128837   2.823   2.517  14.146  1.1731  2.0288  0.5336
 2474TIP3    H228838   2.702   2.516  14.055  1.7434 -1.4287 -0.3103
 2475TIP3   OH228839   4.719   0.574  16.873 -0.2325 -0.3838 -0.1175
 2475TIP3    H128840   4.695   0.649  16.928 -0.2296 -1.4419  1.3891
 2475TIP3    H228841   4.764   0.613  16.798 -1.9348  1.2603 -0.3816
 2476TIP3   OH228842   1.329   6.527  15.774 -0.4997 -0.1758  0.3091
 2476TIP3    H128843   1.237   6.516  15.796 -0.5765  0.4927  0.3260
 2476TIP3    H228844   1.348   6.618  15.794 -0.6595  0.6161 -2.6897
 2477TIP3   OH228845   6.464   2.365   0.125  0.0529  0.0417  0.7770
 2477TIP3    H128846   6.522   2.348   0.199  0.6225  1.0119  0.5810
 2477TIP3    H228847   6.466   2.460   0.114 -0.7429  0.0000  0.0874
 2478TIP3   OH228848   3.233   1.233  10.906 -0.4487  0.0007 -0.1036
 2478TIP3    H128849   3.321   1.271  10.900  0.1306 -1.1487  0.7348
 2478TIP3    H228850   3.181   1.284  10.844  1.4434 -1.0392 -2.7561
 2479TIP3   OH228851   0.213   4.298  15.961 -0.3057 -0.2019  0.1576
 2479TIP3    H128852   0.265   4.340  15.893 -0.5303  2.4646  1.5175
 2479TIP3    H228853   0.130   4.278  15.919 -1.3045  3.4974  0.0705
 2480TIP3   OH228854   4.633   0.651  11.784  0.5607  0.4966 -0.4841
 2480TIP3    H128855   4.659   0.559  11.774  0.8912  0.4868  0.3747
 2480TIP3    H228856   4.669   0.677  11.869  1.0382  1.6203 -1.0152
 2481TIP3   OH228857   3.669   4.783   2.876 -0.8303  0.0981  0.7819
 2481TIP3    H128858   3.673   4.866   2.924 -2.1026  0.5289  0.1900
 2481TIP3    H228859   3.661   4.808   2.785  1.1085 -0.7177  0.3281
 2482TIP3   OH228860   2.979   4.602  13.415  0.3000 -0.6700 -0.1079
 2482TIP3    H128861   2.919   4.659  13.366  1.2946  1.0807  0.6028
 2482TIP3    H228862   2.924   4.530  13.445 -0.7701 -0.7386 -2.0261
 2483TIP3   OH228863   6.409   0.757   2.559  0.0404 -0.2569  0.0348
 2483TIP3    H128864   6.456   0.673   2.555 -1.3073 -1.1431  1.3785
 2483TIP3    H228865   6.344   0.744   2.629 -0.1440  1.9544  0.3388
 2484TIP3   OH228866   2.097   2.381  15.986 -0.1700 -0.5077  0.6199
 2484TIP3    H128867   2.048   2.351  15.909 -0.1180  2.0064 -0.4719
 2484TIP3    H228868   2.188   2.379  15.958 -0.1697  0.6455  0.5057
 2485TIP3   OH228869   4.338   2.136  12.772  0.1286  0.3430 -0.3558
 2485TIP3    H128870   4.390   2.081  12.714  0.4437  0.3073 -0.0470
 2485TIP3    H228871   4.259   2.156  12.723 -0.6500 -1.5560  0.0336
 2486TIP3   OH228872   0.435   5.232   5.625 -0.1262 -0.0363 -0.4608
 2486TIP3    H128873   0.469   5.177   5.555  0.4623  0.2002 -0.3689
 2486TIP3    H228874   0.342   5.210   5.631  0.3869 -2.2013  0.6471
 2487TIP3   OH228875   6.401   6.547  13.222  0.6757  0.1386  0.1099
 2487TIP3    H128876   6.362   6.500  13.296  2.3841  1.2164  1.7935
 2487TIP3    H228877   6.496   6.534  13.233  1.0825  2.0843 -0.6297
 2488TIP3   OH228878   5.610   5.941   2.286 -0.2197  0.1902  0.1952
 2488TIP3    H128879   5.580   5.995   2.359  0.7068 -0.3090  0.9590
 2488TIP3    H228880   5.571   5.855   2.302  0.3479 -0.0406  0.3426
 2489TIP3   OH228881   3.087   3.241   5.960 -0.0890  0.3132 -0.1707
 2489TIP3    H128882   3.052   3.327   5.984  0.2560  0.2132  0.7510
 2489TIP3    H228883   3.024   3.205   5.899  0.3146  1.6718 -1.4343
 2490TIP3   OH228884   4.390   0.302   3.390 -0.5986  0.4633 -0.3744
 2490TIP3    H128885   4.426   0.355   3.319  0.9449  0.7675  0.6018
 2490TIP3    H228886   4.461   0.295   3.453 -1.3603 -1.2901  0.3424
 2491TIP3   OH228887   3.015   4.539  12.125 -0.0347 -0.1106  0.2367
 2491TIP3    H128888   3.032   4.493  12.044 -0.7222  0.1233 -0.0474
 2491TIP3    H228889   2.987   4.627  12.098  2.5602  0.9902  0.7652
 2492TIP3   OH228890   3.605   6.644  15.570  0.1163  0.2879  0.2054
 2492TIP3    H128891   3.645   6.574  15.518 -1.8491 -1.1704  0.5483
 2492TIP3    H228892   3.677   6.680  15.622  1.4117 -0.6097 -0.9157
 2493TIP3   OH228893   5.033   3.184  15.758 -0.0978 -0.5090  0.3796
 2493TIP3    H128894   5.072   3.259  15.801 -2.3266  0.7591  0.3676
 2493TIP3    H228895   5.022   3.119  15.828 -0.7336  0.2891  1.0460
 2494TIP3   OH228896   0.873   4.261   1.009 -0.3406  0.6038 -0.3518
 2494TIP3    H128897   0.902   4.352   1.013 -0.3860  0.7883 -2.7060
 2494TIP3    H228898   0.837   4.243   1.096  0.9657  2.3632  0.6139
 2495TIP3   OH228899   1.026   4.741  14.611 -0.1070 -0.0307  0.2096
 2495TIP3    H128900   1.081   4.766  14.685  0.4644  0.0160 -0.2238
 2495TIP3    H228901   1.076   4.674  14.565 -0.6838 -0.4276  0.1490
 2496TIP3   OH228902   6.044   3.215  15.463 -0.1103  0.2448  0.0749
 2496TIP3    H128903   6.045   3.137  15.408  0.1180 -0.8664  1.5769
 2496TIP3    H228904   5.963   3.209  15.513  0.2886  0.5495  0.7751
 2497TIP3   OH228905   6.050   1.406   3.180  0.0805  0.7823 -0.0396
 2497TIP3    H128906   6.005   1.389   3.263  0.2116 -4.3671 -0.6906
 2497TIP3    H228907   6.143   1.398   3.201  0.0919 -2.0036 -0.6893
 2498TIP3   OH228908   3.159   5.562   1.502 -0.1195 -0.0780  0.5771
 2498TIP3    H128909   3.133   5.501   1.570 -0.4233 -0.6969 -0.0743
 2498TIP3    H228910   3.254   5.571   1.512  0.2759 -2.2455 -0.5375
 2499TIP3   OH228911   5.284   4.144   5.084  0.5218  0.0538 -0.2045
 2499TIP3    H128912   5.260   4.052   5.093  1.3958 -0.0422  1.5845
 2499TIP3    H228913   5.280   4.161   4.990 -0.2668 -1.6294 -0.5119
 2500TIP3   OH228914   3.871   1.897  13.649 -0.0888 -0.1801  0.0881
 2500TIP3    H128915   3.839   1.859  13.567  0.1768 -1.1306  0.4043
 2500TIP3    H228916   3.797   1.887  13.710 -0.4845  1.0401 -0.1817
 2501TIP3   OH228917   0.913   4.658  15.423  0.5668 -0.2201 -0.3066
 2501TIP3    H128918   0.836   4.633  15.372  0.9575 -1.2189 -0.4331
 2501TIP3    H228919   0.987   4.628  15.371  0.9610 -2.5744  1.4346
 2502TIP3   OH228920   6.539   5.710   0.241  0.8094 -0.0666  0.2176
 2502TIP3    H128921   6.451   5.730   0.273 -0.1344 -0.0140 -2.2314
 2502TIP3    H228922   6.571   5.792   0.204  0.7370 -0.7227 -1.3749
 2503TIP3   OH228923   2.688   5.007  12.121 -0.3869  0.3434 -0.4375
 2503TIP3    H128924   2.700   5.067  12.047  0.8557 -0.7237 -1.1390
 2503TIP3    H228925   2.746   4.933  12.102 -0.4985 -0.2376  1.3170
 2504TIP3   OH228926   6.211   3.429   1.257  0.8971  0.2159 -0.5858
 2504TIP3    H128927   6.302   3.418   1.286  0.7932 -1.4486 -0.7775
 2504TIP3    H228928   6.165   3.462   1.334  1.6447  1.0271 -0.4716
 2505TIP3   OH228929   2.690   5.998   5.927 -0.5363 -0.0775  0.1106
 2505TIP3    H128930   2.752   6.022   5.996 -1.0951 -1.1589  1.0074
 2505TIP3    H228931   2.692   6.073   5.867 -1.0084  1.5074  1.9683
 2506TIP3   OH228932   1.840   4.345   3.604  0.0726  0.3255  0.2532
 2506TIP3    H128933   1.924   4.365   3.645 -0.2978  0.3454  1.0273
 2506TIP3    H228934   1.802   4.430   3.585 -0.0339  0.3252  0.4608
 2507TIP3   OH228935   1.901   0.794  15.621  0.2975  0.1045 -0.1083
 2507TIP3    H128936   1.854   0.727  15.571  1.8127 -0.1318 -1.3221
 2507TIP3    H228937   1.874   0.877  15.581 -1.3254  0.2232  1.1765
 2508TIP3   OH228938   6.698   3.341   1.208 -0.1280 -0.2871  0.3650
 2508TIP3    H128939   6.679   3.263   1.260 -4.0673 -0.2159 -0.7009
 2508TIP3    H228940   6.690   3.414   1.269 -2.1797 -0.3897  0.2805
 2509TIP3   OH228941   0.321   0.262   2.574  0.7142 -0.2702 -0.0417
 2509TIP3    H128942   0.362   0.281   2.490  0.9548 -1.1439 -0.1289
 2509TIP3    H228943   0.287   0.347   2.604 -0.2202 -0.1046 -1.4669
 2510TIP3   OH228944   2.246   4.483  11.511  0.0087  0.0982  0.9371
 2510TIP3    H128945   2.299   4.453  11.437 -0.9708  0.4538  0.0777
 2510TIP3    H228946   2.166   4.432  11.507 -0.5864  0.9974  0.9911
 2511TIP3   OH228947   1.334   6.248  15.854 -0.4168 -0.3082 -0.9136
 2511TIP3    H128948   1.318   6.329  15.806 -1.0920  0.7420  0.9510
 2511TIP3    H228949   1.266   6.188  15.824 -0.3781  0.0682 -1.7759
 2512TIP3   OH228950   0.257   1.214  16.591 -0.2044  0.3156  0.1810
 2512TIP3    H128951   0.292   1.299  16.617  0.0383  0.3917 -0.3891
 2512TIP3    H228952   0.333   1.164  16.562 -0.3177 -0.1701  0.6841
 2513TIP3   OH228953   1.412   1.509   5.270 -0.0906 -0.7172 -0.1521
 2513TIP3    H128954   1.350   1.443   5.304 -0.3868 -0.2741  0.1827
 2513TIP3    H228955   1.443   1.555   5.348 -1.0842  0.5848 -0.4887
 2514TIP3   OH228956   0.467   0.871   4.515 -1.0136  0.1346  0.2531
 2514TIP3    H128957   0.506   0.834   4.595  0.3539 -0.0953 -0.4947
 2514TIP3    H228958   0.503   0.960   4.510 -0.3173 -0.1914 -0.6215
 2515TIP3   OH228959   2.150   6.519  15.951  0.2330 -0.2211  0.6618
 2515TIP3    H128960   2.176   6.602  15.912 -1.1287 -0.6239 -1.2190
 2515TIP3    H228961   2.069   6.539  15.997 -0.7251 -0.6917 -0.7581
 2516TIP3   OH228962   6.185   5.092   3.440  0.3934 -0.3352 -0.3530
 2516TIP3    H128963   6.237   5.087   3.520 -1.8472 -1.4485  1.1179
 2516TIP3    H228964   6.186   5.003   3.405 -0.2126 -0.2917 -0.4946
 2517TIP3   OH228965   5.192   1.800   4.757 -0.2694  0.2628  0.2001
 2517TIP3    H128966   5.263   1.752   4.713  1.1645  2.0221  0.4646
 2517TIP3    H228967   5.236   1.875   4.798 -1.8820 -0.0613  2.7204
 2518TIP3   OH228968   1.733   2.278  16.635  0.1521 -0.7383  0.2439
 2518TIP3    H128969   1.659   2.282  16.575  1.1167 -1.3667 -1.0188
 2518TIP3    H228970   1.783   2.201  16.607  1.7120  0.1281  0.5745
 2519TIP3   OH228971   2.563   3.278  13.524  0.3449 -0.3865  0.0746
 2519TIP3    H128972   2.604   3.314  13.603 -0.1752  0.5077 -0.0495
 2519TIP3    H228973   2.565   3.350  13.461  0.6115 -1.0440 -0.6867
 2520TIP3   OH228974   0.740   1.324  13.056  0.4426 -0.4482  0.4995
 2520TIP3    H128975   0.680   1.350  13.126  1.4770  0.0399  1.2295
 2520TIP3    H228976   0.824   1.309  13.100  1.2197  0.2524 -0.6719
 2521TIP3   OH228977   4.434   3.417  13.265 -0.3833  0.0315 -0.2154
 2521TIP3    H128978   4.521   3.456  13.267 -0.5743  0.4791  1.5716
 2521TIP3    H228979   4.413   3.402  13.358 -1.1580 -2.4607 -0.7180
 2522TIP3   OH228980   6.656   3.392   3.600 -0.0436 -1.0864 -0.2970
 2522TIP3    H128981   6.592   3.444   3.649  1.4046  0.4537  0.0694
 2522TIP3    H228982   6.697   3.336   3.666 -0.0757 -1.0929 -0.2826
 2523TIP3   OH228983   3.935   4.499   2.003  0.4763 -0.0147  0.4115
 2523TIP3    H128984   4.020   4.495   1.960  0.1340  2.4714 -0.6297
 2523TIP3    H228985   3.952   4.546   2.085  0.8744 -3.5767  2.5848
 2524TIP3   OH228986   4.531   6.452   3.750  0.0870  0.3235 -0.1716
 2524TIP3    H128987   4.539   6.380   3.812  1.3722  0.2491 -0.4076
 2524TIP3    H228988   4.494   6.524   3.802 -1.7098 -0.6256 -0.0602
 2525TIP3   OH228989   0.958   3.104  17.292  0.3954 -0.2618  0.5363
 2525TIP3    H128990   0.973   3.085  17.199 -0.2583  0.4008  0.2793
 2525TIP3    H228991   0.961   3.019  17.335  0.0774 -0.6495 -0.1858
 2526TIP3   OH228992   4.445   6.316  16.180 -0.5937  0.0423 -0.2929
 2526TIP3    H128993   4.495   6.389  16.217 -0.7045  0.1984 -0.4504
 2526TIP3    H228994   4.357   6.326  16.218  0.1577 -1.8382  2.2387
 2527TIP3   OH228995   3.152   3.573  12.704 -0.9212  0.4106 -0.6801
 2527TIP3    H128996   3.081   3.548  12.764 -0.1316  0.7610  0.4444
 2527TIP3    H228997   3.159   3.499  12.644  0.8485 -1.9070  2.0960
 2528TIP3   OH228998   3.454   6.690  14.012  0.2186  0.7146 -0.5041
 2528TIP3    H128999   3.532   6.745  14.014  0.1875  0.8222  2.3082
 2528TIP3    H229000   3.484   6.607  13.976  1.3679  1.0996 -0.4660
 2529TIP3   OH229001   1.595   4.417   0.952  0.1950 -0.0047 -0.0978
 2529TIP3    H129002   1.508   4.437   0.915  0.1290 -1.2913 -0.7240
 2529TIP3    H229003   1.576   4.363   1.028  0.3243  2.8615  2.1296
 2530TIP3   OH229004   2.432   4.215   1.222  0.0025  0.2250 -0.1804
 2530TIP3    H129005   2.462   4.138   1.173 -0.3146 -0.2141  0.3055
 2530TIP3    H229006   2.496   4.224   1.293  0.1414  0.5236 -0.3395
 2531TIP3   OH229007   2.413   5.097  12.778  0.2910  0.2401  0.2359
 2531TIP3    H129008   2.463   5.067  12.701 -0.6346 -0.2647 -0.1819
 2531TIP3    H229009   2.401   5.019  12.831 -0.4754  0.2536  0.0895
 2532TIP3   OH229010   0.384   6.686   4.825 -0.7419  0.2268  0.0045
 2532TIP3    H129011   0.376   6.734   4.908 -0.2830  0.7863 -0.2634
 2532TIP3    H229012   0.304   6.635   4.819 -0.2172 -0.8155  1.4118
 2533TIP3   OH229013   3.580   2.651   5.719 -0.5473  0.3754  0.3744
 2533TIP3    H129014   3.642   2.591   5.760  1.9902  1.6415 -1.3516
 2533TIP3    H229015   3.496   2.604   5.720  0.4742 -1.5912  2.4145
 2534TIP3   OH229016   1.427   2.909  12.136 -0.2533 -0.0165  0.0178
 2534TIP3    H129017   1.448   2.884  12.226 -0.8993  3.0350  1.1517
 2534TIP3    H229018   1.363   2.845  12.107 -0.5721 -0.6656  2.0005
 2535TIP3   OH229019   2.704   3.945  16.392 -0.0328  0.4724 -0.0707
 2535TIP3    H129020   2.756   3.909  16.463 -0.5961  0.7457  0.4886
 2535TIP3    H229021   2.631   3.883  16.381  0.3835  0.0947 -0.8440
 2536TIP3   OH229022   4.608   3.019  16.435 -0.5702  0.0348  0.2033
 2536TIP3    H129023   4.586   2.927  16.421  1.6961 -0.5854  0.4390
 2536TIP3    H229024   4.564   3.041  16.518 -1.8051 -0.5588 -0.2668
 2537TIP3   OH229025   1.080   2.503  11.874 -0.5974  0.2256 -0.0744
 2537TIP3    H129026   1.095   2.451  11.795  0.9316 -1.3102  1.1392
 2537TIP3    H229027   1.047   2.440  11.938  1.5643  0.5958  1.5368
 2538TIP3   OH229028   1.524   0.795  14.288  0.0141  0.1184  0.0628
 2538TIP3    H129029   1.533   0.847  14.208  0.0445  3.1446  1.8801
 2538TIP3    H229030   1.448   0.740  14.271  0.7027 -0.2049 -2.4453
 2539TIP3   OH229031   1.263   4.004  15.704  0.4881 -0.4291  0.2599
 2539TIP3    H129032   1.168   4.010  15.716  0.0320 -1.9967 -2.0368
 2539TIP3    H229033   1.284   4.072  15.641  0.7636 -0.5828  0.1839
 2540TIP3   OH229034   5.434   3.034  10.708  0.2677  0.2528 -0.1842
 2540TIP3    H129035   5.493   2.992  10.645  1.3945  1.2451  0.1520
 2540TIP3    H229036   5.348   2.996  10.691  1.2251 -2.2699  0.2145
 2541TIP3   OH229037   5.702   6.180   3.764  0.4232  0.8835 -0.2053
 2541TIP3    H129038   5.652   6.171   3.846  0.3949  3.0692  0.0939
 2541TIP3    H229039   5.733   6.092   3.745  0.6856  0.3420  2.3376
 2542TIP3   OH229040   0.940   6.223  11.800  0.4428 -0.4613  0.1806
 2542TIP3    H129041   1.013   6.245  11.858  1.0337 -0.2367 -0.6297
 2542TIP3    H229042   0.941   6.293  11.734  2.0730 -2.5569 -2.2098
 2543TIP3   OH229043   4.894   4.498   3.287 -0.0850  0.6375  0.2992
 2543TIP3    H129044   4.981   4.525   3.317 -0.2108 -0.8412  2.2301
 2543TIP3    H229045   4.874   4.556   3.214  2.3222  1.3154  0.0965
 2544TIP3   OH229046   6.018   0.653  13.891 -0.5135 -0.0740 -0.2980
 2544TIP3    H129047   6.029   0.571  13.940 -2.2201 -0.5274 -0.6032
 2544TIP3    H229048   6.040   0.721  13.954 -0.5995 -0.7178  0.4547
 2545TIP3   OH229049   0.295   1.351   5.549  0.3393 -0.1173 -0.2281
 2545TIP3    H129050   0.248   1.304   5.618  0.3412  0.1337 -0.0544
 2545TIP3    H229051   0.351   1.413   5.596 -0.4475  0.8084 -0.4752
 2546TIP3   OH229052   1.086   6.214   1.515  0.3450  0.2072  0.6596
 2546TIP3    H129053   1.142   6.228   1.590 -0.4043  1.4802  1.0195
 2546TIP3    H229054   1.146   6.198   1.442  1.1070  0.0939  1.3038
 2547TIP3   OH229055   3.187   4.845  15.647 -0.5699  0.1040 -0.3828
 2547TIP3    H129056   3.150   4.887  15.569  1.3294  1.7998 -0.4802
 2547TIP3    H229057   3.169   4.907  15.718  0.6409  0.2378 -0.1642
 2548TIP3   OH229058   4.548   3.643   5.989  0.5528  0.0344  0.5336
 2548TIP3    H129059   4.570   3.681   5.904 -1.0983  0.7454  0.3959
 2548TIP3    H229060   4.605   3.689   6.052 -0.5199  1.9120  0.2118
 2549TIP3   OH229061   2.189   4.000  15.015  0.5139  0.1196 -0.1640
 2549TIP3    H129062   2.114   3.979  14.960 -1.3680 -0.0191  2.2836
 2549TIP3    H229063   2.216   3.917  15.053 -0.1345  0.5816  1.3709
 2550TIP3   OH229064   0.651   0.434  12.746 -0.0805  0.4008  0.5936
 2550TIP3    H129065   0.690   0.348  12.764  0.0614  0.5768  1.1659
 2550TIP3    H229066   0.719   0.482  12.699 -0.3277  0.0478 -0.1314
 2551TIP3   OH229067   1.914   2.142  15.968 -0.1229  0.1191  0.1723
 2551TIP3    H129068   1.869   2.132  16.052 -0.4917  0.5091  0.0276
 2551TIP3    H229069   2.006   2.125  15.987 -0.1530  0.5789  0.7305
 2552TIP3   OH229070   2.296   1.127   4.780 -0.0407  0.7824 -0.0641
 2552TIP3    H129071   2.280   1.096   4.869  0.8561  1.4835  0.3601
 2552TIP3    H229072   2.210   1.128   4.739 -0.7040  1.9219  1.2750
 2553TIP3   OH229073   3.379   3.854  16.900 -0.2853  0.1084  0.2379
 2553TIP3    H129074   3.448   3.887  16.958 -1.2887  1.2882  0.8169
 2553TIP3    H229075   3.397   3.760  16.892  0.8129  0.2160  1.1369
 2554TIP3   OH229076   0.025   4.222  15.768  0.1160 -0.2654 -0.4728
 2554TIP3    H129077  -0.047   4.202  15.829 -1.7439 -0.0990 -2.5052
 2554TIP3    H229078   0.031   4.145  15.712  0.9382  0.0968 -0.9000
 2555TIP3   OH229079   3.595   6.296   4.028  0.0902 -0.0280 -0.5261
 2555TIP3    H129080   3.518   6.240   4.043  0.1592  0.2874  1.1536
 2555TIP3    H229081   3.570   6.351   3.954 -1.5620  0.4680  0.3492
 2556TIP3   OH229082   6.743   5.343  13.226  0.0151  0.0151 -0.2299
 2556TIP3    H129083   6.835   5.367  13.218  0.3928 -0.4478  1.9731
 2556TIP3    H229084   6.745   5.249  13.248 -0.9067  0.1798  0.6441
 2557TIP3   OH229085   0.694   2.224   5.728 -1.0674 -0.4814  0.0833
 2557TIP3    H129086   0.658   2.266   5.806 -0.2499 -0.2612  0.3432
 2557TIP3    H229087   0.631   2.246   5.659 -0.4918  1.4915  0.1218
 2558TIP3   OH229088   3.247   5.210  15.626  1.0176 -0.1710 -0.9691
 2558TIP3    H129089   3.292   5.253  15.553  0.6054  0.3902 -0.9029
 2558TIP3    H229090   3.166   5.177  15.588 -0.8760  3.0756 -0.1454
 2559TIP3   OH229091   6.437   6.027  13.720  0.5165  0.2088 -0.3482
 2559TIP3    H129092   6.411   6.039  13.628 -1.4513  0.2306  0.1601
 2559TIP3    H229093   6.532   6.042  13.721  0.3548  1.6032 -2.1370
 2560TIP3   OH229094   5.643   1.299   6.127  0.6622  0.1721 -0.9289
 2560TIP3    H129095   5.660   1.312   6.220  0.8942 -0.5231 -0.8655
 2560TIP3    H229096   5.725   1.323   6.083  0.3903  0.9793 -0.9987
 2561TIP3   OH229097   3.097   5.517  12.115  0.0331  0.4989  0.0976
 2561TIP3    H129098   3.187   5.548  12.115  0.3680 -0.4019  1.4522
 2561TIP3    H229099   3.044   5.597  12.108  0.9086  1.2064  1.2467
 2562TIP3   OH229100   4.057   4.797  16.482 -0.2894 -0.0245 -0.4768
 2562TIP3    H129101   4.035   4.739  16.410 -0.7890 -1.4173  0.7447
 2562TIP3    H229102   3.975   4.807  16.531  0.3013 -0.0603  0.5540
 2563TIP3   OH229103   3.608   0.019  15.096 -0.4737 -0.3035 -0.2669
 2563TIP3    H129104   3.585  -0.073  15.108 -1.9057  0.0681  0.0104
 2563TIP3    H229105   3.670   0.019  15.023 -2.5309 -1.2511 -2.1183
 2564TIP3   OH229106   0.572   5.935  16.339 -0.1880 -0.8818 -0.1633
 2564TIP3    H129107   0.587   5.926  16.245 -1.9662  1.8868 -0.8279
 2564TIP3    H229108   0.646   5.985  16.371 -0.3715 -0.4428 -0.4185
 2565TIP3   OH229109   6.061   2.715  17.037  0.0061 -0.0632 -0.2903
 2565TIP3    H129110   6.114   2.766  17.099  0.3880 -1.0710  0.2470
 2565TIP3    H229111   6.024   2.780  16.978 -0.2991  0.9338  0.9409
 2566TIP3   OH229112   6.416   4.407   3.186  0.5390 -0.0440 -0.4978
 2566TIP3    H129113   6.498   4.408   3.136 -0.3196  1.6542 -2.0264
 2566TIP3    H229114   6.393   4.500   3.194  0.4869 -0.2423  2.9417
 2567TIP3   OH229115   1.348   3.377  10.996 -0.6374  0.3360 -0.2250
 2567TIP3    H129116   1.381   3.290  10.973  0.6198  0.4002  1.2090
 2567TIP3    H229117   1.426   3.428  11.015 -1.4649  0.9195  1.9031
 2568TIP3   OH229118   5.191   5.580   4.735 -0.3629 -0.3596 -0.2174
 2568TIP3    H129119   5.119   5.536   4.781  0.8816 -1.2288  0.9892
 2568TIP3    H229120   5.247   5.508   4.705  0.1166  0.3114 -0.9627
 2569TIP3   OH229121   0.312   1.922  15.508 -0.2019 -0.1070  0.1563
 2569TIP3    H129122   0.302   1.977  15.586 -0.1824  2.2100 -1.3885
 2569TIP3    H229123   0.396   1.949  15.470 -1.8115  1.5289 -2.5965
 2570TIP3   OH229124   5.468   1.964  16.758 -0.1811  0.0162 -0.1914
 2570TIP3    H129125   5.514   2.038  16.717  0.4215  1.1972  2.4005
 2570TIP3    H229126   5.533   1.895  16.763 -0.7762 -0.8509 -2.7291
 2571TIP3   OH229127   4.593   3.341   2.525  0.4267 -0.0505  0.2502
 2571TIP3    H129128   4.594   3.316   2.432 -0.4818 -0.6273  0.3758
 2571TIP3    H229129   4.545   3.270   2.568 -0.6399  1.0184  0.9076
 2572TIP3   OH229130   0.215   4.565  12.164  0.2138  0.4604 -0.2553
 2572TIP3    H129131   0.279   4.630  12.136  1.5370 -0.6520  0.0825
 2572TIP3    H229132   0.264   4.483  12.169 -0.8799 -0.1509  1.4887
 2573TIP3   OH229133   4.438   4.059  11.752  0.3227  0.4240 -0.2681
 2573TIP3    H129134   4.350   4.056  11.790  0.6243 -0.3762  0.4084
 2573TIP3    H229135   4.427   4.104  11.669 -1.1524 -1.6056 -1.2714
 2574TIP3   OH229136   2.597   0.710  12.090 -0.1120  0.5197 -0.1623
 2574TIP3    H129137   2.671   0.764  12.117  0.5983 -0.2690 -0.4677
 2574TIP3    H229138   2.573   0.661  12.169  0.0363  0.4019 -0.1877
 2575TIP3   OH229139   6.455   0.819  16.212  0.1254  0.1498  0.1132
 2575TIP3    H129140   6.500   0.775  16.284  0.0585 -1.8384 -0.9914
 2575TIP3    H229141   6.433   0.905  16.247  5.1158  1.5193  0.6028
 2576TIP3   OH229142   4.469   5.278  16.730  0.1913 -0.0579  0.2467
 2576TIP3    H129143   4.559   5.291  16.701 -0.0790  1.7143  0.0802
 2576TIP3    H229144   4.473   5.203  16.789  1.8313  0.2440  0.5488
 2577TIP3   OH229145   3.411   4.017  16.692  0.4940  0.0002  0.1924
 2577TIP3    H129146   3.399   3.962  16.768  0.4248 -2.9341 -1.7742
 2577TIP3    H229147   3.501   4.048  16.699  1.0274 -1.5535  0.7052
 2578TIP3   OH229148   1.241   6.133   0.950 -0.4803  0.6700 -0.0158
 2578TIP3    H129149   1.308   6.117   1.017 -0.0106  0.2851 -0.5702
 2578TIP3    H229150   1.273   6.088   0.872 -0.4518  2.0477 -0.8355
 2579TIP3   OH229151   3.863   2.217  15.021  0.1394  0.1159  0.7873
 2579TIP3    H129152   3.881   2.151  14.954 -0.2589  1.2463 -0.4796
 2579TIP3    H229153   3.937   2.211  15.081 -0.5945 -2.4880  1.5848
 2580TIP3   OH229154   2.920   5.076  16.372 -0.1521 -0.2682  0.1217
 2580TIP3    H129155   2.834   5.095  16.408 -0.1643 -0.9897  0.5123
 2580TIP3    H229156   2.979   5.139  16.414 -0.6000  0.7062 -0.7061
 2581TIP3   OH229157   4.819   1.903  13.681 -0.2125 -1.0345  0.0953
 2581TIP3    H129158   4.830   1.965  13.753  1.0180 -0.6067 -0.4350
 2581TIP3    H229159   4.832   1.817  13.721 -0.7625 -0.8826  0.6140
 2582TIP3   OH229160   3.143   0.403  11.399 -0.2883 -0.2141  0.5946
 2582TIP3    H129161   3.083   0.453  11.454 -0.2670  0.5905 -0.0813
 2582TIP3    H229162   3.137   0.445  11.313 -0.2246 -1.3541  0.0175
 2583TIP3   OH229163   3.739   3.719   3.804 -0.3291 -0.6835 -0.1670
 2583TIP3    H129164   3.762   3.640   3.852  0.0106 -0.6752 -0.3123
 2583TIP3    H229165   3.822   3.750   3.767 -0.7690 -1.3982 -1.8463
 2584TIP3   OH229166   0.561   3.322   6.227 -0.2995 -0.1651  0.3697
 2584TIP3    H129167   0.506   3.398   6.212  0.2075  0.4192  1.3343
 2584TIP3    H229168   0.543   3.297   6.318  0.2467 -0.6045  0.3632
 2585TIP3   OH229169   3.041   5.275   2.677 -0.2093  0.3825  0.1395
 2585TIP3    H129170   3.010   5.195   2.718 -0.5158  1.0119  1.1835
 2585TIP3    H229171   3.094   5.246   2.603  2.4031 -0.8983  2.3538
 2586TIP3   OH229172   0.902   3.960   0.078  0.0388 -0.0714 -0.0274
 2586TIP3    H129173   0.919   3.873   0.043 -3.5940 -0.6107 -0.8375
 2586TIP3    H229174   0.930   4.020   0.008  1.1849 -0.6175 -0.0603
 2587TIP3   OH229175   0.518   2.081   3.647  0.2472  0.3751 -0.4805
 2587TIP3    H129176   0.435   2.062   3.602 -0.2890 -1.1804  1.0708
 2587TIP3    H229177   0.493   2.097   3.738  1.5065  1.6208 -0.3208
 2588TIP3   OH229178   4.364   2.095  14.297  0.0463  0.4697 -0.5701
 2588TIP3    H129179   4.317   2.134  14.224 -0.8675  1.1143  0.3318
 2588TIP3    H229180   4.383   2.169  14.356 -2.1154 -0.4342  1.4082
 2589TIP3   OH229181   6.295   5.417  11.466  0.4160 -0.0943  0.3181
 2589TIP3    H129182   6.353   5.481  11.425  0.8515 -0.5196  0.2534
 2589TIP3    H229183   6.223   5.406  11.404  1.1855 -0.8990 -0.4542
 2590TIP3   OH229184   2.647   6.567  14.124 -0.1075 -0.1739 -0.7526
 2590TIP3    H129185   2.727   6.517  14.141  0.6437  1.1966 -0.0644
 2590TIP3    H229186   2.580   6.522  14.176  0.1762 -1.3928 -1.3993
 2591TIP3   OH229187   3.431   3.293   0.578 -0.3165 -0.6489 -0.7936
 2591TIP3    H129188   3.442   3.218   0.519  3.0897 -0.9546 -0.0051
 2591TIP3    H229189   3.478   3.268   0.658 -0.8723  1.5221  0.3068
 2592TIP3   OH229190   5.920   2.411  12.045 -0.4227  0.1827 -0.1781
 2592TIP3    H129191   5.995   2.448  11.998  1.1363 -2.7831 -0.2066
 2592TIP3    H229192   5.854   2.397  11.977  0.4254 -0.6271 -0.8638
 2593TIP3   OH229193   2.058   3.777  12.676 -0.1126 -0.2598 -0.7651
 2593TIP3    H129194   2.056   3.731  12.760 -0.1651  1.6865  0.3640
 2593TIP3    H229195   1.995   3.730  12.621 -0.7154 -1.0619  0.5571
 2594TIP3   OH229196   3.933   2.979  17.331 -0.3786  0.2323 -0.3358
 2594TIP3    H129197   3.990   3.054  17.316 -0.3181 -0.2541 -2.8527
 2594TIP3    H229198   3.875   2.976  17.255  0.1246 -2.6986 -0.7155
 2595TIP3   OH229199   4.111   0.102   2.448  0.2801 -0.5422  0.7302
 2595TIP3    H129200   4.128   0.196   2.444 -1.2739 -0.2556 -0.2097
 2595TIP3    H229201   4.157   0.072   2.526  1.6568  0.7946  0.4881
 2596TIP3   OH229202   6.392   0.561  11.562  0.5532  0.2336 -0.2200
 2596TIP3    H129203   6.376   0.596  11.650  1.3633 -0.8954  0.3883
 2596TIP3    H229204   6.308   0.575  11.516  0.1365  0.8774  0.6965
 2597TIP3   OH229205   1.501   6.032   0.144 -0.1628 -0.3237  0.2001
 2597TIP3    H129206   1.449   6.002   0.218 -0.1675  1.4173  0.9585
 2597TIP3    H229207   1.441   6.029   0.069 -0.0495 -2.4622  0.1176
 2598TIP3   OH229208   3.888   2.998   5.525  0.4306 -0.3215  0.4535
 2598TIP3    H129209   3.841   3.015   5.444 -0.8384 -2.2735  0.7074
 2598TIP3    H229210   3.965   2.947   5.498 -0.1715 -1.2649  0.4902
 2599TIP3   OH229211   4.233   1.830  11.620  0.0205 -0.4709  0.2558
 2599TIP3    H129212   4.162   1.769  11.640 -2.0962  1.8951  0.4533
 2599TIP3    H229213   4.274   1.847  11.705 -1.1204  0.3664  0.6620
 2600TIP3   OH229214   2.633   3.363  16.435  0.4094 -0.0975 -0.3410
 2600TIP3    H129215   2.636   3.455  16.462 -1.0487 -0.1148  0.0167
 2600TIP3    H229216   2.622   3.315  16.517 -0.6393 -0.4310 -0.6606
 2601TIP3   OH229217   2.957   2.292   0.661 -0.5683 -0.9344  0.0692
 2601TIP3    H129218   2.993   2.222   0.715  0.4804  0.1022  0.7605
 2601TIP3    H229219   2.994   2.277   0.574  0.5199 -0.6508  0.4656
 2602TIP3   OH229220   0.108   1.843   5.458  0.3359  0.3285 -0.2354
 2602TIP3    H129221   0.082   1.851   5.550 -1.0512 -1.2955 -0.4326
 2602TIP3    H229222   0.029   1.864   5.408  0.3346 -1.1863 -0.9540
 2603TIP3   OH229223   4.939   1.570   0.482 -0.2797 -0.0707 -0.2083
 2603TIP3    H129224   5.021   1.540   0.442 -0.2617 -0.4153  0.0734
 2603TIP3    H229225   4.961   1.654   0.522 -0.0736 -0.1410 -0.1730
 2604TIP3   OH229226   5.726   4.822   1.307  0.0787  0.2078  0.2977
 2604TIP3    H129227   5.774   4.766   1.368 -0.6832  0.1222  0.8391
 2604TIP3    H229228   5.749   4.911   1.333 -0.6795  0.1821  1.0864
 2605TIP3   OH229229   4.803   6.712  10.677 -0.0393  0.5577  0.2375
 2605TIP3    H129230   4.822   6.642  10.738 -1.1106 -0.4545 -0.5636
 2605TIP3    H229231   4.881   6.716  10.621 -0.1720 -0.3229 -0.0181
 2606TIP3   OH229232   3.274   1.609  16.727 -0.1871  0.5033 -0.8128
 2606TIP3    H129233   3.206   1.629  16.663 -0.0258  1.0790 -0.8157
 2606TIP3    H229234   3.321   1.692  16.738 -1.3540  0.9453  1.4170
 2607TIP3   OH229235   2.102   4.220  13.587 -1.2222 -0.1753  0.2673
 2607TIP3    H129236   2.145   4.141  13.620  0.1758  0.6630  0.5230
 2607TIP3    H229237   2.172   4.285  13.582 -2.4720  1.2555  0.7077
 2608TIP3   OH229238   2.951   4.917   2.300  0.0570 -0.4405  0.5809
 2608TIP3    H129239   2.994   4.985   2.351  1.3214 -0.6493 -0.1757
 2608TIP3    H229240   2.980   4.932   2.210 -0.5249 -1.3153  0.2293
 2609TIP3   OH229241   4.131   0.747  17.111  0.2678 -0.2508 -0.3057
 2609TIP3    H129242   4.166   0.822  17.063  3.0696 -0.1363  1.6948
 2609TIP3    H229243   4.127   0.776  17.202 -3.4267 -0.9648 -0.0540
 2610TIP3   OH229244   0.931   6.007  14.301 -0.6315  0.1227  0.1531
 2610TIP3    H129245   0.923   5.968  14.388  0.1304 -1.2359 -0.3529
 2610TIP3    H229246   1.002   6.071  14.310  1.9526 -2.4754 -0.2001
 2611TIP3   OH229247   3.185   6.053  11.193 -0.6100 -0.1963 -0.3775
 2611TIP3    H129248   3.209   6.124  11.133  1.4352  0.0770  0.6812
 2611TIP3    H229249   3.137   6.097  11.264 -0.3296 -0.0313 -0.2866
 2612TIP3   OH229250   5.275   0.136  12.147 -0.2049 -0.1936  0.9164
 2612TIP3    H129251   5.281   0.063  12.086 -1.2181  0.6582 -0.2694
 2612TIP3    H229252   5.357   0.184  12.134 -0.7724  0.4619 -0.4692
 2613TIP3   OH229253   4.332   0.713  16.763  0.3331  0.0096 -0.0244
 2613TIP3    H129254   4.408   0.764  16.792  0.1652  2.3498 -3.1908
 2613TIP3    H229255   4.257   0.768  16.785 -0.1622 -0.5529 -0.2912
 2614TIP3   OH229256   6.582   2.988  10.629 -0.7545 -0.1767 -0.2024
 2614TIP3    H129257   6.563   3.077  10.657  0.4449  0.3000 -0.8049
 2614TIP3    H229258   6.504   2.960  10.581 -1.2253  0.4595  0.1908
 2615TIP3   OH229259   0.535   3.665   3.185 -0.0784  0.5874  0.6324
 2615TIP3    H129260   0.578   3.619   3.114 -0.9768  0.5216  0.1201
 2615TIP3    H229261   0.450   3.691   3.150 -1.0786 -0.5379  2.0510
 2616TIP3   OH229262   2.766   4.048   1.706  0.3966 -0.3273  0.3229
 2616TIP3    H129263   2.809   3.968   1.676  1.4878  0.3136  0.1223
 2616TIP3    H229264   2.826   4.085   1.771 -0.8442 -0.4790  1.6102
 2617TIP3   OH229265   4.227   5.908   2.736 -0.8325 -0.0876 -0.4109
 2617TIP3    H129266   4.198   5.997   2.755  0.5740 -0.1684  3.0122
 2617TIP3    H229267   4.190   5.856   2.807  2.0849 -1.3107  0.3792
 2618TIP3   OH229268   3.446   0.479   5.167 -0.2073  0.2377  0.1147
 2618TIP3    H129269   3.493   0.519   5.240 -2.0505 -1.8379  2.6062
 2618TIP3    H229270   3.512   0.426   5.122  0.8027  0.9433  0.7187
 2619TIP3   OH229271   2.956   3.561   2.941 -0.0438  0.3492 -0.1168
 2619TIP3    H129272   3.044   3.524   2.927  0.7810  2.0913  0.2036
 2619TIP3    H229273   2.933   3.535   3.030  0.9788  1.4056  0.4905
 2620TIP3   OH229274   4.832   0.638  14.563 -0.0038 -0.1568  0.2054
 2620TIP3    H129275   4.780   0.558  14.563 -1.8121  0.9396 -1.5681
 2620TIP3    H229276   4.804   0.685  14.641 -0.6872 -0.1904 -0.0150
 2621TIP3   OH229277   2.323   3.391  12.389 -0.5328  0.6809 -0.1809
 2621TIP3    H129278   2.419   3.393  12.394 -0.5117  0.4085 -0.4696
 2621TIP3    H229279   2.297   3.483  12.397 -0.1244  1.0227 -2.3704
 2622TIP3   OH229280   5.073   6.280   4.929 -0.0055  0.1317  0.2520
 2622TIP3    H129281   4.997   6.226   4.904  1.7854 -2.6655  0.3955
 2622TIP3    H229282   5.057   6.302   5.021 -0.7872 -0.1002  0.1856
 2623TIP3   OH229283   2.172   5.332  14.905 -0.5762 -0.0809 -0.1990
 2623TIP3    H129284   2.157   5.393  14.977  2.5345  1.3565 -0.6023
 2623TIP3    H229285   2.171   5.246  14.945  1.3038  0.6950  1.6970
 2624TIP3   OH229286   2.191   0.794   6.354 -0.1821 -0.7762 -0.1562
 2624TIP3    H129287   2.280   0.778   6.321 -0.7965 -0.9863 -1.7839
 2624TIP3    H229288   2.186   0.742   6.434  1.0298 -1.0764 -0.2507
 2625TIP3   OH229289   0.845   4.946  14.721  0.6259  0.0047  0.1295
 2625TIP3    H129290   0.792   4.951  14.800  1.1404  3.3932  0.4410
 2625TIP3    H229291   0.912   4.880  14.741  0.3004  0.2323  2.2522
 2626TIP3   OH229292   5.864   0.394   2.713 -0.5705  0.4048 -0.6623
 2626TIP3    H129293   5.874   0.475   2.764  0.1238 -0.4207  0.5587
 2626TIP3    H229294   5.954   0.371   2.688 -0.6044 -0.7100  0.1728
 2627TIP3   OH229295   5.037   1.709  12.170  0.4356  0.4353 -0.2698
 2627TIP3    H129296   5.005   1.687  12.258  0.5556  1.2939  0.0042
 2627TIP3    H229297   5.005   1.798  12.155  0.2895  0.2406 -1.1663
 2628TIP3   OH229298   4.113   6.603  16.243 -0.1980  0.3259  0.3002
 2628TIP3    H129299   4.047   6.672  16.247  1.4118  2.0151 -0.5327
 2628TIP3    H229300   4.185   6.635  16.298  0.8161 -0.3807 -0.5651
 2629TIP3   OH229301   3.587   4.714  15.028 -0.3198  0.1320 -0.5141
 2629TIP3    H129302   3.582   4.647  14.960  0.2244 -0.4352 -0.0125
 2629TIP3    H229303   3.532   4.680  15.099  2.2378 -1.2579  0.9400
 2630TIP3   OH229304   3.862   2.207  14.623  0.0320  0.5534 -0.3801
 2630TIP3    H129305   3.816   2.208  14.708 -0.3576  0.3883 -0.5878
 2630TIP3    H229306   3.916   2.286  14.625  2.0982 -0.7807  1.1295
 2631TIP3   OH229307   0.308   5.018  17.046 -0.0244 -0.2235  0.3266
 2631TIP3    H129308   0.356   5.030  17.128 -0.1117 -0.0360  0.3494
 2631TIP3    H229309   0.217   5.038  17.068  0.0656  0.5405  0.0149
 2632TIP3   OH229310   4.609   2.152  16.829  0.1709  0.4668 -0.4706
 2632TIP3    H129311   4.567   2.093  16.766 -0.4011 -0.9439  1.1727
 2632TIP3    H229312   4.668   2.096  16.879  0.1272  1.4154  0.6872
 2633TIP3   OH229313   3.883   4.118   5.021 -0.0052  0.2449  0.4798
 2633TIP3    H129314   3.942   4.192   5.030  0.2007 -0.1242  2.6069
 2633TIP3    H229315   3.940   4.044   5.001  0.1890  0.0715  1.5940
 2634TIP3   OH229316   1.315   4.593   3.267 -0.5039  0.4095  0.5494
 2634TIP3    H129317   1.397   4.614   3.311 -0.2021  1.4483 -0.4345
 2634TIP3    H229318   1.249   4.594   3.336  0.3651 -0.9226  1.4397
 2635TIP3   OH229319   3.152   0.696   4.074  0.4036  0.5064  0.3575
 2635TIP3    H129320   3.222   0.681   4.139  1.3107  1.1178 -0.4640
 2635TIP3    H229321   3.114   0.780   4.099  0.6736  0.6839  0.1814
 2636TIP3   OH229322   2.936   4.423   2.224 -0.4536  0.0396  0.1893
 2636TIP3    H129323   2.907   4.513   2.209  0.7856  0.4621  0.2932
 2636TIP3    H229324   3.031   4.427   2.219 -0.4018 -1.3330 -0.1314
 2637TIP3   OH229325   3.204   0.693   4.577  0.4820  0.2661 -0.1308
 2637TIP3    H129326   3.219   0.787   4.570  0.6678  0.1816 -1.1236
 2637TIP3    H229327   3.175   0.679   4.667  2.9003  0.9261  0.8337
 2638TIP3   OH229328   2.957   3.729  12.550  0.2489 -0.3072  0.3455
 2638TIP3    H129329   3.005   3.676  12.614  1.0038  0.8320  0.7723
 2638TIP3    H229330   2.865   3.716  12.573  0.2151 -3.1767 -0.9996
 2639TIP3   OH229331   3.687   2.081   3.109  0.4406 -0.2016 -0.4159
 2639TIP3    H129332   3.621   2.013   3.125  0.8480 -0.2595  1.1956
 2639TIP3    H229333   3.733   2.052   3.031 -2.1411  0.4120 -2.2991
 2640TIP3   OH229334   2.153   2.829  12.071  0.1671 -0.0880 -0.2592
 2640TIP3    H129335   2.247   2.814  12.077  0.2396  0.5783  0.5362
 2640TIP3    H229336   2.140   2.868  11.984  0.8373  1.1168  0.1539
 2641TIP3   OH229337   5.158   2.841  17.088 -0.3896  0.3437  0.8779
 2641TIP3    H129338   5.200   2.927  17.092  1.7358 -0.6357  0.6007
 2641TIP3    H229339   5.192   2.794  17.164 -1.0647 -0.4804  0.6909
 2642TIP3   OH229340   0.800   4.609  12.047 -0.3438  1.1173 -0.3735
 2642TIP3    H129341   0.774   4.659  12.124  2.7534  3.8843 -0.8999
 2642TIP3    H229342   0.881   4.565  12.074  0.1487  1.1967 -1.6811
 2643TIP3   OH229343   3.184   2.178   4.278 -0.2756 -0.7471  0.1286
 2643TIP3    H129344   3.094   2.203   4.295  0.1914  0.6480  0.7384
 2643TIP3    H229345   3.184   2.148   4.187 -1.4846 -1.5281  0.3764
 2644TIP3   OH229346   2.396   0.881   3.483 -0.5030  0.1289  0.1696
 2644TIP3    H129347   2.305   0.851   3.478 -0.5927  0.1371  1.5359
 2644TIP3    H229348   2.400   0.934   3.562  0.9344 -0.7188  0.7034
 2645TIP3   OH229349   2.385   2.734   1.533  0.2918 -0.4774  0.2550
 2645TIP3    H129350   2.317   2.720   1.467  1.2804 -0.5596 -0.7808
 2645TIP3    H229351   2.424   2.818   1.510  0.4128 -0.3406  0.9546
 2646TIP3   OH229352   3.730   3.709   1.397 -0.1048  0.1468 -0.1157
 2646TIP3    H129353   3.811   3.757   1.419  0.0568 -0.4022  0.5170
 2646TIP3    H229354   3.666   3.778   1.380  0.6477  0.6035 -1.2571
 2647TIP3   OH229355   0.152   5.867   1.603 -0.4090 -0.0594  0.5125
 2647TIP3    H129356   0.204   5.809   1.659 -0.2009 -1.3997 -0.9811
 2647TIP3    H229357   0.127   5.939   1.660  2.8407  0.5420  1.3924
 2648TIP3   OH229358   6.537   6.722  12.212 -0.2876  1.0295 -0.1909
 2648TIP3    H129359   6.523   6.764  12.127 -0.6476 -0.1836 -0.7511
 2648TIP3    H229360   6.631   6.702  12.214 -0.8695 -3.0874 -2.3987
 2649TIP3   OH229361   3.594   4.663  10.428  0.2224 -0.0299  0.0901
 2649TIP3    H129362   3.688   4.659  10.446  0.4141 -0.5295 -0.9621
 2649TIP3    H229363   3.577   4.590  10.369 -0.7248  0.4024 -0.2002
 2650TIP3   OH229364   2.165   1.441   4.292 -0.4559  0.4107 -0.1547
 2650TIP3    H129365   2.181   1.398   4.376 -1.0296 -0.8767 -0.6776
 2650TIP3    H229366   2.116   1.376   4.241  0.3084  0.9803 -1.6646
 2651TIP3   OH229367   4.516   0.291   4.212  0.2045 -0.0566  0.2166
 2651TIP3    H129368   4.507   0.344   4.291 -1.2664 -1.0787  0.7754
 2651TIP3    H229369   4.427   0.263   4.191  1.0861 -4.7049  1.6366
 2652TIP3   OH229370   0.919   5.469  13.276  0.6206  0.2771  0.3074
 2652TIP3    H129371   0.978   5.413  13.328 -0.3828 -1.4262 -0.3296
 2652TIP3    H229372   0.836   5.465  13.323 -0.0663 -0.6051 -0.9325
 2653TIP3   OH229373   3.997   0.558   2.910  0.4982 -0.4881 -0.5098
 2653TIP3    H129374   4.035   0.637   2.950 -1.0258  0.8213 -1.5103
 2653TIP3    H229375   4.054   0.539   2.836  1.1694 -0.6555  0.0355
 2654TIP3   OH229376   1.967   5.379  11.215  0.3405 -0.5961  0.1832
 2654TIP3    H129377   1.950   5.471  11.238  1.1032 -0.4165  0.0533
 2654TIP3    H229378   2.045   5.355  11.265  0.6325 -0.9171 -0.4068
 2655TIP3   OH229379   0.048   0.887   5.053 -0.0261  0.5131 -0.2368
 2655TIP3    H129380  -0.005   0.886   4.973  0.4859  1.0097 -0.5842
 2655TIP3    H229381   0.083   0.798   5.060 -0.6712  0.2575 -0.1542
 2656TIP3   OH229382   5.318   3.300   0.539 -0.5498 -0.4177  0.1797
 2656TIP3    H129383   5.397   3.258   0.504  0.7719  2.4019 -0.5439
 2656TIP3    H229384   5.302   3.373   0.480 -3.3886 -0.5295  0.7058
 2657TIP3   OH229385   3.483   1.890  16.427  0.3150 -0.2071  0.4905
 2657TIP3    H129386   3.527   1.812  16.393  1.7844  0.3432  1.0271
 2657TIP3    H229387   3.392   1.863  16.438  0.3786 -1.2418 -1.1651
 2658TIP3   OH229388   3.378   4.188  11.218 -0.7967 -0.9942  0.5317
 2658TIP3    H129389   3.458   4.232  11.188 -2.2098 -1.1753 -4.4962
 2658TIP3    H229390   3.402   4.095  11.223 -0.8435 -1.3431 -2.8512
 2659TIP3   OH229391   3.802   5.597  16.159  0.6785 -0.7125 -0.2859
 2659TIP3    H129392   3.774   5.527  16.100  1.0689 -1.8217  0.8215
 2659TIP3    H229393   3.898   5.591  16.160  0.7672  0.3173 -0.7338
 2660TIP3   OH229394   2.537   0.503  15.007  0.5349  0.1254 -0.3373
 2660TIP3    H129395   2.481   0.501  14.930 -0.1516  0.9151  0.1245
 2660TIP3    H229396   2.583   0.586  15.001 -0.2390  0.6405  0.5804
 2661TIP3   OH229397   5.647   2.896   3.096 -0.4523  0.3220  0.0651
 2661TIP3    H129398   5.692   2.924   3.017  2.5304 -0.0455  1.4780
 2661TIP3    H229399   5.606   2.975   3.130  1.7114  1.4405  0.2279
 2662TIP3   OH229400   3.167   3.322   3.798  0.4505  0.3125  0.4361
 2662TIP3    H129401   3.213   3.398   3.766  0.8321  0.3557  1.0643
 2662TIP3    H229402   3.109   3.296   3.726 -0.1408  1.5558  0.4382
 2663TIP3   OH229403   2.126   2.577  17.041  0.3196 -0.0722  0.0305
 2663TIP3    H129404   2.121   2.580  16.945  1.2008 -1.7802 -0.1151
 2663TIP3    H229405   2.049   2.625  17.070 -0.5813 -0.4688 -1.5546
 2664TIP3   OH229406   5.989   0.471  15.798 -0.3246  0.2965  0.4111
 2664TIP3    H129407   6.046   0.548  15.795 -1.2143  0.9405 -0.5679
 2664TIP3    H229408   6.022   0.420  15.872  1.7794  0.4466 -0.3458
 2665TIP3   OH229409   0.392   4.866   5.084  0.1697 -0.7141 -0.0096
 2665TIP3    H129410   0.384   4.777   5.117 -0.1604 -1.0711 -1.0073
 2665TIP3    H229411   0.302   4.900   5.085  0.4857  0.2180  1.9192
 2666TIP3   OH229412   6.695   1.565   4.398  0.3056  0.5039 -0.0662
 2666TIP3    H129413   6.621   1.624   4.410 -0.2386 -0.3280  0.8408
 2666TIP3    H229414   6.767   1.606   4.446 -0.1403  0.3281  0.7711
 2667TIP3   OH229415   1.668   5.550   5.432 -0.3161 -0.6425 -0.9268
 2667TIP3    H129416   1.721   5.504   5.497 -1.0608 -0.0947  0.0837
 2667TIP3    H229417   1.685   5.502   5.350  1.0580 -1.0035 -0.4659
 2668TIP3   OH229418   4.734   6.489  14.143  0.7051 -0.3670 -0.0366
 2668TIP3    H129419   4.667   6.475  14.211  1.1468  0.7514  0.6638
 2668TIP3    H229420   4.796   6.551  14.183  0.3924  1.2049 -1.8364
 2669TIP3   OH229421   3.837   5.644  12.402 -0.0390  0.3063 -0.4477
 2669TIP3    H129422   3.773   5.625  12.471  1.1009  1.4349  0.9928
 2669TIP3    H229423   3.911   5.587  12.420 -1.1018 -2.0904 -2.9926
 2670TIP3   OH229424   1.053   0.760  10.832 -0.1159 -0.3710 -0.1725
 2670TIP3    H129425   1.011   0.677  10.810 -0.8161  0.3869 -1.8796
 2670TIP3    H229426   1.147   0.741  10.829 -0.1022 -0.4430 -3.8738
 2671TIP3   OH229427   0.763   4.657  11.225 -0.1774  0.1690  0.6672
 2671TIP3    H129428   0.730   4.739  11.189  0.9884 -0.1886 -1.3564
 2671TIP3    H229429   0.686   4.599  11.227 -0.6370  0.7601  0.4312
 2672TIP3   OH229430   4.766   1.534   3.912  0.6373 -0.1365 -0.1210
 2672TIP3    H129431   4.697   1.586   3.953 -1.4735 -1.5006 -1.7347
 2672TIP3    H229432   4.731   1.445   3.910  1.2629 -0.4407 -3.3444
 2673TIP3   OH229433   2.831   0.235   5.514  0.5890  0.4515  0.2753
 2673TIP3    H129434   2.874   0.205   5.594  2.4944  0.6793 -0.6046
 2673TIP3    H229435   2.843   0.163   5.452 -0.9369  0.2451  0.1877
 2674TIP3   OH229436   3.573   3.050  12.917  0.0312 -0.1329  0.0730
 2674TIP3    H129437   3.650   3.106  12.930  1.3148 -1.3852 -1.6587
 2674TIP3    H229438   3.498   3.110  12.924  1.1871  1.2884  0.9311
 2675TIP3   OH229439   2.287   2.116   5.578 -0.0406 -0.1095 -0.0369
 2675TIP3    H129440   2.224   2.045   5.585 -0.9956  0.6292 -0.9151
 2675TIP3    H229441   2.235   2.196   5.588  0.9853  0.4941  0.7423
 2676TIP3   OH229442   3.210   6.190  16.353 -0.2124 -0.3139  0.1974
 2676TIP3    H129443   3.237   6.138  16.277 -0.1569 -0.5923  0.4059
 2676TIP3    H229444   3.257   6.152  16.427 -0.4038 -0.1601  0.4014
 2677TIP3   OH229445   4.956   4.518  17.073 -0.0114 -0.6197 -0.9380
 2677TIP3    H129446   4.876   4.559  17.104  0.9305  0.2740  0.4535
 2677TIP3    H229447   4.954   4.430  17.111 -0.4907 -0.7155 -1.1899
 2678TIP3   OH229448   5.014   5.186  12.973 -0.5792 -0.0632 -0.0670
 2678TIP3    H129449   4.929   5.188  13.017  0.1366 -0.6608  1.4249
 2678TIP3    H229450   5.077   5.212  13.041  0.2194  3.0526 -1.8165
 2679TIP3   OH229451   6.442   0.212   3.561 -0.2834 -0.6117  0.2854
 2679TIP3    H129452   6.485   0.216   3.647 -0.4949  0.0116  0.3697
 2679TIP3    H229453   6.363   0.161   3.576 -0.4213 -0.3356  0.5096
 2680TIP3   OH229454   2.741   5.425  16.640  0.1238  0.0543 -0.8525
 2680TIP3    H129455   2.691   5.385  16.711 -1.8056  1.1941 -1.5003
 2680TIP3    H229456   2.767   5.511  16.674 -1.7975  1.0858 -1.8499
 2681TIP3   OH229457   4.857   3.357  13.252  0.0758  0.1294 -0.2459
 2681TIP3    H129458   4.939   3.398  13.281  0.1525 -0.2156  0.0286
 2681TIP3    H229459   4.815   3.424  13.198  1.0311 -0.0685 -1.2667
 2682TIP3   OH229460   2.827   5.806  14.112 -0.6811 -0.1793  0.1583
 2682TIP3    H129461   2.922   5.811  14.112 -0.5476 -1.9601  1.0415
 2682TIP3    H229462   2.801   5.860  14.187 -0.4894  1.2708 -0.7679
 2683TIP3   OH229463   1.760   3.593  13.969 -0.6957 -0.4094  0.0819
 2683TIP3    H129464   1.776   3.668  13.912 -0.2080 -2.0705 -2.0940
 2683TIP3    H229465   1.824   3.603  14.039  1.5280 -0.3697 -1.8315
 2684TIP3   OH229466   2.292   5.112  17.385 -0.1782 -0.3867  0.1123
 2684TIP3    H129467   2.259   5.028  17.355 -0.1954 -0.7983  1.2382
 2684TIP3    H229468   2.237   5.134  17.461  0.9432 -0.2160  0.9060
 2685TIP3   OH229469   6.264   2.254   4.114  0.9422  0.0959  0.4678
 2685TIP3    H129470   6.208   2.320   4.155  0.1548 -0.8824  1.0296
 2685TIP3    H229471   6.216   2.172   4.125  1.2888 -0.4003 -1.3551
 2686TIP3   OH229472   2.982   2.670   0.530  0.5232  0.1372 -0.2397
 2686TIP3    H129473   2.976   2.605   0.460 -0.3568 -0.0737  0.0138
 2686TIP3    H229474   3.074   2.667   0.558  0.1965 -2.2071  0.8655
 2687TIP3   OH229475   4.908   3.632  15.122  0.0154 -0.2161 -0.2433
 2687TIP3    H129476   4.983   3.674  15.080  2.1315 -1.0535  2.3935
 2687TIP3    H229477   4.888   3.687  15.197 -1.4418 -0.5103 -0.3785
 2688TIP3   OH229478   2.013   2.452  11.588  0.0781 -0.0322 -0.5383
 2688TIP3    H129479   1.942   2.516  11.594  0.8767  0.7485  1.7383
 2688TIP3    H229480   2.084   2.499  11.544  0.9451  1.0337  1.8368
 2689TIP3   OH229481   3.719   0.594  13.250 -0.4941 -0.1306  0.6041
 2689TIP3    H129482   3.695   0.646  13.327 -0.6163  1.3104 -0.3555
 2689TIP3    H229483   3.756   0.658  13.188 -0.6562 -1.1886 -0.6399
 2690TIP3   OH229484   5.154   2.163   5.579 -0.1922  0.1256  0.7241
 2690TIP3    H129485   5.153   2.238   5.520  0.2349  0.1964  0.8015
 2690TIP3    H229486   5.241   2.125   5.568  0.0270  0.3434  1.5582
 2691TIP3   OH229487   5.825   2.274   5.036 -0.2956  0.3789 -0.3722
 2691TIP3    H129488   5.872   2.194   5.013 -0.1977 -0.5700  2.6472
 2691TIP3    H229489   5.741   2.243   5.070  0.1529  1.3895  1.8444
 2692TIP3   OH229490   1.257   6.378   0.238 -0.3454 -0.4855 -0.7658
 2692TIP3    H129491   1.165   6.374   0.264 -0.0746  0.8844  0.5469
 2692TIP3    H229492   1.303   6.328   0.305  0.0804  0.7956 -0.0657
 2693TIP3   OH229493   2.618   6.188  14.399 -0.2621 -0.8686 -0.3687
 2693TIP3    H129494   2.560   6.264  14.396 -0.0354 -0.7163 -1.8524
 2693TIP3    H229495   2.598   6.139  14.319  0.3129 -1.8320  0.0517
 2694TIP3   OH229496   2.825   2.097  13.270 -0.0886  0.3074  0.1473
 2694TIP3    H129497   2.801   2.079  13.179 -1.4682  2.5709 -0.0091
 2694TIP3    H229498   2.907   2.147  13.263  0.0847  0.0277  0.1796
 2695TIP3   OH229499   1.186   6.437  17.203 -0.1418 -0.5549  0.5471
 2695TIP3    H129500   1.168   6.346  17.180 -0.1610 -0.2967 -0.4962
 2695TIP3    H229501   1.234   6.472  17.128  1.3354 -0.1546  1.6337
 2696TIP3   OH229502   5.236   4.846   1.781  0.5026  0.6173  0.2998
 2696TIP3    H129503   5.269   4.915   1.839 -0.0842  1.8943 -0.8248
 2696TIP3    H229504   5.315   4.799   1.753  0.9203  0.8483  1.0480
 2697TIP3   OH229505   2.556   3.225   0.453  0.4250  0.2998 -0.5366
 2697TIP3    H129506   2.649   3.246   0.454  1.0494 -2.1850  0.4917
 2697TIP3    H229507   2.527   3.237   0.543 -0.5630  2.0418 -1.0330
 2698TIP3   OH229508   3.815   1.551   2.062 -0.1033  0.3596 -0.2120
 2698TIP3    H129509   3.766   1.568   1.982  1.0515 -0.7327 -1.2111
 2698TIP3    H229510   3.867   1.630   2.076 -1.7429  1.3479  0.6086
 2699TIP3   OH229511   0.770   2.706  15.123 -0.1781  0.1221  0.0784
 2699TIP3    H129512   0.763   2.614  15.098 -1.9157  0.3232 -0.3382
 2699TIP3    H229513   0.768   2.753  15.040 -0.0578  0.5681  0.3264
 2700TIP3   OH229514   2.458   1.250  14.167  0.2981 -0.3997 -0.1558
 2700TIP3    H129515   2.424   1.331  14.205 -0.8423 -1.6662  1.7483
 2700TIP3    H229516   2.517   1.215  14.234  0.2753 -1.4468 -0.6545
 2701TIP3   OH229517   6.716   5.455  12.536  0.0579 -0.9214  0.8557
 2701TIP3    H129518   6.696   5.363  12.553 -0.7569 -1.3530 -2.0334
 2701TIP3    H229519   6.655   5.503  12.593 -0.7616 -2.1782  1.0872
 2702TIP3   OH229520   1.326   2.165  14.438 -0.3756  0.0968  0.3039
 2702TIP3    H129521   1.408   2.193  14.478  0.0469 -0.1039 -0.4243
 2702TIP3    H229522   1.262   2.169  14.510  0.6356 -1.5260  1.3452
 2703TIP3   OH229523   3.535   4.363   4.201  0.4348 -0.3460  0.0558
 2703TIP3    H129524   3.444   4.380   4.225  0.1588 -0.8166 -0.6223
 2703TIP3    H229525   3.530   4.292   4.137  1.3016 -0.5733  0.2334
 2704TIP3   OH229526   0.757   2.406   6.283 -0.1854 -0.4582 -0.1030
 2704TIP3    H129527   0.731   2.455   6.361  0.5896  1.6621 -1.0862
 2704TIP3    H229528   0.711   2.322   6.290  0.0525 -0.4608  2.7315
 2705TIP3   OH229529   2.053   5.719   1.594 -0.1893  0.4669  1.0357
 2705TIP3    H129530   2.080   5.796   1.644  0.4777  0.5855  0.4921
 2705TIP3    H229531   2.120   5.708   1.527 -1.5026  0.8195 -0.4008
 2706TIP3   OH229532   0.519   1.985   1.524 -0.2189 -0.0376  0.3708
 2706TIP3    H129533   0.503   1.993   1.430 -0.3323  1.1597  0.4868
 2706TIP3    H229534   0.596   1.928   1.529  0.0988  0.2918 -0.4707
 2707TIP3   OH229535   3.097   5.182  12.742 -0.3745 -0.2123  0.3274
 2707TIP3    H129536   3.011   5.212  12.714 -0.1687  0.3528  0.2980
 2707TIP3    H229537   3.079   5.103  12.793 -0.9643  0.2516  0.8556
 2708TIP3   OH229538   5.995   3.411   5.940  0.4062  0.1308 -0.6441
 2708TIP3    H129539   5.918   3.453   5.902 -1.6384 -1.7976  1.0555
 2708TIP3    H229540   5.986   3.319   5.915  1.2255 -0.4260  1.0058
 2709TIP3   OH229541   1.617   5.508  16.437 -0.4564  0.5071  0.0597
 2709TIP3    H129542   1.698   5.557  16.453 -1.0928  1.6415 -0.0631
 2709TIP3    H229543   1.565   5.522  16.516  0.1424 -1.6873  0.9034
 2710TIP3   OH229544   2.881   5.882   3.546 -0.4674 -0.3029 -0.2083
 2710TIP3    H129545   2.867   5.789   3.526 -1.3615  0.0311 -1.2079
 2710TIP3    H229546   2.963   5.904   3.500 -0.3980 -0.5333 -0.1952
 2711TIP3   OH229547   1.947   3.677   3.649 -0.1954 -0.2397  0.1179
 2711TIP3    H129548   1.923   3.739   3.718 -2.0538 -0.5766 -0.1660
 2711TIP3    H229549   1.924   3.723   3.568  0.1941 -0.5786 -0.1881
 2712TIP3   OH229550   1.502   3.695   3.822  0.2329 -1.2083 -0.4598
 2712TIP3    H129551   1.457   3.768   3.866  0.7956 -1.5491  0.7536
 2712TIP3    H229552   1.506   3.626   3.889  1.5976 -1.5585 -0.8606
 2713TIP3   OH229553   5.816   4.851  15.423 -0.4964  0.6058 -0.2512
 2713TIP3    H129554   5.740   4.841  15.480  1.5886  0.1063  2.6623
 2713TIP3    H229555   5.867   4.770  15.436  2.3826  2.4484  1.0255
 2714TIP3   OH229556   5.205   4.944  13.746 -0.4318 -0.5665  0.2269
 2714TIP3    H129557   5.199   5.015  13.682  1.0412 -0.1062  0.5772
 2714TIP3    H229558   5.281   4.893  13.718  0.5148 -0.1067  1.8266
 2715TIP3   OH229559   0.836   5.116   2.584  0.0649  0.3773  0.8266
 2715TIP3    H129560   0.817   5.160   2.502 -1.0631 -0.0424  0.8394
 2715TIP3    H229561   0.928   5.135   2.602  0.1870  0.8615 -0.2839
 2716TIP3   OH229562   2.041   3.238   3.439  0.0732  0.2766 -0.6395
 2716TIP3    H129563   2.036   3.238   3.535 -1.0295 -3.3224 -0.5387
 2716TIP3    H229564   2.121   3.191   3.419 -0.5839 -0.5385 -1.4363
 2717TIP3   OH229565   2.387   1.252   2.437  0.0130  0.2060  0.0429
 2717TIP3    H129566   2.320   1.186   2.427  1.1339 -0.5853 -3.8376
 2717TIP3    H229567   2.353   1.329   2.392  1.4289 -0.0757 -1.6276
 2718TIP3   OH229568   4.733   0.326   3.012  0.6766 -0.1323  0.2015
 2718TIP3    H129569   4.815   0.353   3.054  1.7750 -1.0239 -1.2724
 2718TIP3    H229570   4.726   0.233   3.033  0.2118 -0.1373  0.0236
 2719TIP3   OH229571   2.983   1.084  13.907 -0.5150  0.3391 -0.5843
 2719TIP3    H129572   2.955   1.110  13.819  0.0585 -1.1441 -1.2330
 2719TIP3    H229573   3.074   1.056  13.896 -0.2684  0.6288  0.5920
 2720TIP3   OH229574   1.506   6.644  14.374 -0.1760  0.0532 -0.4792
 2720TIP3    H129575   1.443   6.707  14.409 -0.4869 -0.1727 -0.6216
 2720TIP3    H229576   1.589   6.668  14.413 -0.6638 -0.7384  1.1405
 2721TIP3   OH229577   2.825   6.311   4.184 -0.1565  0.1689 -0.7218
 2721TIP3    H129578   2.905   6.311   4.132 -0.4086 -1.5810 -1.1872
 2721TIP3    H229579   2.821   6.222   4.221 -0.6444  0.9747  1.2751
 2722TIP3   OH229580   6.099   1.471   1.125  0.6187 -0.6609 -0.1063
 2722TIP3    H129581   6.153   1.394   1.138  0.6992 -0.1979  3.0240
 2722TIP3    H229582   6.020   1.456   1.177  1.1433  1.7589  1.5853
 2723TIP3   OH229583   1.308   5.650   1.827 -0.1796  0.1139  0.4707
 2723TIP3    H129584   1.218   5.624   1.849 -0.0181 -0.4516  0.4859
 2723TIP3    H229585   1.327   5.723   1.886  0.4674 -1.7484  2.6862
 2724TIP3   OH229586   3.435   4.436  11.667  0.7436  0.0179 -0.0343
 2724TIP3    H129587   3.370   4.371  11.693  0.2784  0.3027 -0.4668
 2724TIP3    H229588   3.502   4.386  11.622 -0.3985  0.0068 -1.8137
 2725TIP3   OH229589   2.523   4.446   2.680 -0.1473 -0.1419 -0.1042
 2725TIP3    H129590   2.602   4.472   2.727 -0.2773 -1.2152  0.7506
 2725TIP3    H229591   2.485   4.376   2.733 -2.4534  1.2887  0.3062
 2726TIP3   OH229592   1.265   3.676  13.485  0.5848 -0.1438  0.6410
 2726TIP3    H129593   1.271   3.592  13.439  0.4106  1.1671 -1.9422
 2726TIP3    H229594   1.354   3.711  13.482  0.5900 -0.0572  1.4481
 2727TIP3   OH229595   1.825   5.059   2.308  0.1700 -0.0173 -0.2171
 2727TIP3    H129596   1.838   5.131   2.371  0.4856 -0.7316  0.5567
 2727TIP3    H229597   1.913   5.030   2.286  0.0635 -1.8972  1.5405
 2728TIP3   OH229598   6.457   1.297  12.493 -0.8245  0.2391  0.2850
 2728TIP3    H129599   6.456   1.343  12.409 -1.6716  0.7985  0.5833
 2728TIP3    H229600   6.416   1.358  12.554 -0.9903 -0.4964  0.9267
 2729TIP3   OH229601   0.538   5.428  17.338 -0.0257 -0.4135 -0.4377
 2729TIP3    H129602   0.456   5.401  17.296  0.1911 -0.9979 -0.4867
 2729TIP3    H229603   0.511   5.492  17.404 -0.3434  0.8202 -1.7159
 2730TIP3   OH229604   3.818   2.579   4.650 -0.1078  0.0640 -0.8582
 2730TIP3    H129605   3.841   2.636   4.724  0.3273  0.9393 -1.6416
 2730TIP3    H229606   3.893   2.585   4.591 -0.0965 -1.2738 -0.9983
 2731TIP3   OH229607   5.285   1.319   3.458 -0.2007  0.1966 -0.2361
 2731TIP3    H129608   5.363   1.267   3.439 -1.1695 -1.3750 -0.1202
 2731TIP3    H229609   5.296   1.347   3.549 -0.4264 -1.3070  0.2868
 2732TIP3   OH229610   3.261   5.346  13.450  0.1160  0.7183 -0.1023
 2732TIP3    H129611   3.199   5.337  13.522 -0.3725  0.1143 -0.5797
 2732TIP3    H229612   3.317   5.420  13.474  0.3472  0.1455  1.1763
 2733TIP3   OH229613   4.014   2.697   5.733  0.3816  0.5611  0.2898
 2733TIP3    H129614   4.075   2.754   5.781  0.0023  1.2908 -0.0664
 2733TIP3    H229615   4.048   2.697   5.643  1.0408 -0.7308  0.5122
 2734TIP3   OH229616   1.555   6.068  11.570 -0.7373 -0.2390 -0.1785
 2734TIP3    H129617   1.504   6.148  11.579 -0.1946 -0.0181  1.1469
 2734TIP3    H229618   1.634   6.083  11.622 -0.4895 -1.5231 -0.1339
 2735TIP3   OH229619   3.138   2.113  15.623  0.5437  0.4112  0.9815
 2735TIP3    H129620   3.231   2.132  15.637  0.4583  0.7836  1.0364
 2735TIP3    H229621   3.100   2.113  15.711  0.9116 -2.0238  1.2251
 2736TIP3   OH229622   5.513   5.816   5.745  0.6675  1.0187  0.1880
 2736TIP3    H129623   5.524   5.737   5.692  2.0762  1.0235  0.4316
 2736TIP3    H229624   5.448   5.867   5.698 -2.1433 -1.2999  1.2599
 2737TIP3   OH229625   6.295   0.514  14.825 -0.2637  0.2062  0.3487
 2737TIP3    H129626   6.358   0.542  14.891  2.2569  1.8983 -2.5467
 2737TIP3    H229627   6.244   0.592  14.805  0.3590  0.2839 -1.0584
 2738TIP3   OH229628   0.488   4.429   1.397 -0.6416 -0.0057 -0.3433
 2738TIP3    H129629   0.452   4.443   1.310  1.1242 -1.9367 -1.4834
 2738TIP3    H229630   0.573   4.386   1.382 -0.3174 -0.5162  2.3227
 2739TIP3   OH229631   2.899   5.927   6.548  0.2340 -0.2275 -0.1299
 2739TIP3    H129632   2.827   5.946   6.608  0.1993 -0.7676  0.0064
 2739TIP3    H229633   2.906   6.005   6.492  0.4549  0.4073  0.7556
 2740TIP3   OH229634   0.848   0.057  14.271  0.1396 -0.1278 -0.2070
 2740TIP3    H129635   0.818   0.026  14.186  0.1640  1.5002 -0.8468
 2740TIP3    H229636   0.901  -0.015  14.306 -0.6707 -1.1952 -1.1236
 2741TIP3   OH229637   5.303   4.501   0.709  0.2872  0.0244  0.3909
 2741TIP3    H129638   5.351   4.581   0.729 -0.7628  1.1133 -1.1350
 2741TIP3    H229639   5.345   4.433   0.761  4.3500  0.5782 -1.8221
 2742TIP3   OH229640   3.959   5.509  14.981  0.1544  0.1999  0.4902
 2742TIP3    H129641   3.965   5.419  14.949  1.7980  0.7065 -0.7429
 2742TIP3    H229642   3.901   5.553  14.919 -0.1281  0.1646  0.7235
 2743TIP3   OH229643   4.880   1.393  14.058  0.2976  0.0604  0.1189
 2743TIP3    H129644   4.845   1.399  13.969  1.5500  1.2952 -0.3332
 2743TIP3    H229645   4.824   1.329  14.102 -1.2503  0.5065 -1.1232
 2744TIP3   OH229646   4.761   6.662   1.339 -0.1822 -0.1225 -0.0623
 2744TIP3    H129647   4.807   6.587   1.375 -1.7853 -1.3356 -0.3982
 2744TIP3    H229648   4.829   6.725   1.318  1.2399 -1.5773  0.0310
 2745TIP3   OH229649   0.546   6.116  10.894  0.3907 -0.0738  0.5165
 2745TIP3    H129650   0.559   6.192  10.952 -3.0773  0.8458  0.3492
 2745TIP3    H229651   0.607   6.130  10.822  2.2220  0.7128  2.1231
 2746TIP3   OH229652   2.528   0.826   3.045  0.6086 -0.5675  0.0840
 2746TIP3    H129653   2.560   0.873   2.968 -0.3007 -0.4515 -0.2403
 2746TIP3    H229654   2.435   0.850   3.051  0.5090 -1.0968  0.8282
 2747TIP3   OH229655   0.331   4.784   4.138 -0.0551 -1.1712  0.5945
 2747TIP3    H129656   0.422   4.811   4.151 -0.1700  0.6347 -1.7276
 2747TIP3    H229657   0.334   4.722   4.065 -0.8566  1.1504 -1.5722
 2748TIP3   OH229658   2.860   2.259  14.589 -0.0593 -0.1415  0.0012
 2748TIP3    H129659   2.780   2.312  14.599 -1.4657 -2.4200  1.9276
 2748TIP3    H229660   2.931   2.320  14.609 -1.4703  1.3703  0.7167
 2749TIP3   OH229661   2.311   6.632   1.415 -0.1135 -0.2953 -0.2121
 2749TIP3    H129662   2.355   6.547   1.413 -0.9615 -0.7754  0.7529
 2749TIP3    H229663   2.375   6.691   1.456  0.6939 -0.3176 -1.4011
 2750TIP3   OH229664   2.382   1.189  13.777  0.1824 -0.1473 -0.4173
 2750TIP3    H129665   2.433   1.153  13.706 -1.1154 -0.8373 -1.0361
 2750TIP3    H229666   2.438   1.181  13.854  0.9744 -0.8963 -1.0595
 2751TIP3   OH229667   3.882   4.975   2.963 -0.0665  0.1216  0.0680
 2751TIP3    H129668   3.818   5.011   3.026 -0.1386  1.5520 -0.7705
 2751TIP3    H229669   3.944   4.926   3.017  0.5545  2.2814  1.4367
 2752TIP3   OH229670   2.234   5.853   1.724 -0.4854 -0.2046  0.1040
 2752TIP3    H129671   2.319   5.889   1.699 -0.9201  0.5608 -0.2800
 2752TIP3    H229672   2.247   5.820   1.813  1.1491 -3.1168 -1.0434
 2753TIP3   OH229673   0.030   5.448   3.759  0.8053 -0.1279 -0.4743
 2753TIP3    H129674  -0.041   5.484   3.812  2.5082  2.3054  0.3454
 2753TIP3    H229675   0.099   5.428   3.823  1.8894  0.2473 -1.4979
 2754TIP3   OH229676   6.410   2.632   5.029  0.0367  0.1885  0.7357
 2754TIP3    H129677   6.349   2.560   5.013 -0.9206  1.1139  0.0736
 2754TIP3    H229678   6.476   2.595   5.087  0.6701 -1.7857 -1.1132
 2755TIP3   OH229679   2.768   6.163  16.825  0.5086 -0.1659  0.4264
 2755TIP3    H129680   2.745   6.216  16.748 -0.6128  0.3018  1.0607
 2755TIP3    H229681   2.855   6.129  16.805 -0.6301 -1.9368 -2.0677
 2756TIP3   OH229682   0.891   0.811   3.492  0.0636 -0.3542 -0.3246
 2756TIP3    H129683   0.983   0.794   3.511 -0.0414 -0.8559 -0.2507
 2756TIP3    H229684   0.887   0.905   3.473 -0.3343  1.0962  5.3597
 2757TIP3   OH229685   4.927   2.316  14.664  0.0981  0.2428 -0.4509
 2757TIP3    H129686   4.916   2.410  14.655  0.2641  0.1593 -1.7165
 2757TIP3    H229687   4.888   2.280  14.584 -1.0275 -0.8521  0.5408
 2758TIP3   OH229688   0.909   0.126  16.182  0.6145 -0.2400 -0.1395
 2758TIP3    H129689   0.964   0.179  16.125  0.5690  0.9899  0.9214
 2758TIP3    H229690   0.924   0.161  16.270 -0.5175 -1.0432  0.4045
 2759TIP3   OH229691   1.723   2.338  11.931 -0.1181  0.5737 -0.4121
 2759TIP3    H129692   1.656   2.275  11.906 -2.0111  0.8845  3.2239
 2759TIP3    H229693   1.803   2.306  11.889 -1.6243 -2.3817 -1.3076
 2760TIP3   OH229694   1.983   3.343  17.077  0.3330 -0.0984 -0.1594
 2760TIP3    H129695   1.907   3.380  17.122  0.2416 -0.4538 -0.0200
 2760TIP3    H229696   1.993   3.397  16.999  0.8506  0.9038  0.5813
 2761TIP3   OH229697   1.560   5.977   2.449  0.0540 -0.2766  0.0436
 2761TIP3    H129698   1.537   6.069   2.437 -0.5844 -0.2746  1.1111
 2761TIP3    H229699   1.572   5.943   2.360 -1.8370  0.3151 -0.4832
 2762TIP3   OH229700   6.348   4.242   2.815 -0.0965 -0.1775  0.0122
 2762TIP3    H129701   6.355   4.255   2.720  1.3695 -0.7940  0.0239
 2762TIP3    H229702   6.438   4.234   2.846 -0.3235  2.8438  1.8941
 2763TIP3   OH229703   5.143   4.226  11.087 -0.2771 -0.1382 -0.2734
 2763TIP3    H129704   5.229   4.252  11.119 -0.8819 -0.6490  1.9569
 2763TIP3    H229705   5.142   4.251  10.995  1.2435  2.3646  0.3200
 2764TIP3   OH229706   5.398   5.706   0.158 -0.0698 -0.1449 -0.1524
 2764TIP3    H129707   5.464   5.637   0.155  0.5153  0.4218 -0.8320
 2764TIP3    H229708   5.320   5.664   0.195  1.2998 -0.2824  2.8575
 2765TIP3   OH229709   0.703   6.454  15.677 -0.1741  0.3112 -0.6345
 2765TIP3    H129710   0.728   6.456  15.585  0.2816  1.1050 -0.5064
 2765TIP3    H229711   0.610   6.431  15.676 -0.4496  1.3594 -1.3637
 2766TIP3   OH229712   2.639   1.636   3.666  0.1116 -0.7695  0.0993
 2766TIP3    H129713   2.695   1.594   3.601  0.6606 -0.7922  0.5807
 2766TIP3    H229714   2.590   1.565   3.707 -1.0950 -0.6591 -1.0575
 2767TIP3   OH229715   6.206   5.982  12.214 -0.5688  0.1220 -0.5221
 2767TIP3    H129716   6.159   6.003  12.296 -0.4827 -1.5702 -0.0031
 2767TIP3    H229717   6.260   6.059  12.198 -1.2591  0.8662  0.5305
 2768TIP3   OH229718   1.127   6.486   6.642 -0.5226  0.4437  0.1655
 2768TIP3    H129719   1.142   6.473   6.548  2.4550 -0.5404  0.6638
 2768TIP3    H229720   1.125   6.398   6.679 -1.0054  0.8384  1.1252
 2769TIP3   OH229721   0.165   5.387  16.657 -0.0671  0.4492 -0.3078
 2769TIP3    H129722   0.203   5.423  16.737  0.5617  0.7273 -0.7253
 2769TIP3    H229723   0.238   5.341  16.615 -0.6906 -0.7680 -0.1108
 2770TIP3   OH229724   2.574   1.430  10.899  0.1913  0.2013 -0.1506
 2770TIP3    H129725   2.658   1.473  10.912 -1.5446  2.8889  4.1619
 2770TIP3    H229726   2.531   1.480  10.829  0.8999  0.9852 -0.0334
 2771TIP3   OH229727   5.421   5.063   6.333 -0.5628 -0.8900 -0.6607
 2771TIP3    H129728   5.486   5.067   6.264  1.6509  0.2668  1.3399
 2771TIP3    H229729   5.465   5.099   6.410 -3.8575  0.9264  0.6198
 2772TIP3   OH229730   3.370   1.050  16.504  0.0878  0.4671 -0.6159
 2772TIP3    H129731   3.293   1.046  16.446 -0.1929  0.6207 -0.2584
 2772TIP3    H229732   3.428   1.113  16.461 -0.3588  0.9975 -0.4590
 2773TIP3   OH229733   4.573   5.811   4.890  0.0508  0.1812 -0.4859
 2773TIP3    H129734   4.525   5.828   4.970  2.2146 -0.4823  1.0331
 2773TIP3    H229735   4.538   5.728   4.857  1.2240 -1.1932  1.5233
 2774TIP3   OH229736   1.868   5.729  17.101 -0.4728  0.6435 -0.0437
 2774TIP3    H129737   1.927   5.799  17.130 -1.2973  1.8714 -1.2176
 2774TIP3    H229738   1.924   5.651  17.097  0.6178  1.3589  0.6829
 2775TIP3   OH229739   3.894   1.371   2.257 -0.7936  0.0783  0.1568
 2775TIP3    H129740   3.887   1.440   2.191 -1.0429 -0.8009 -0.7541
 2775TIP3    H229741   3.868   1.414   2.338 -0.7357  1.1141 -0.3485
 2776TIP3   OH229742   1.321   6.034  11.775 -0.1443 -0.1666  0.7330
 2776TIP3    H129743   1.304   6.067  11.687  0.8731 -2.3270 -0.3497
 2776TIP3    H229744   1.416   6.027  11.781 -0.2126 -0.4841  1.8459
 2777TIP3   OH229745   0.066   0.890  16.784 -0.6421 -0.6740  0.3635
 2777TIP3    H129746   0.114   0.856  16.859  1.3735 -0.0298 -0.5604
 2777TIP3    H229747   0.063   0.816  16.723  0.3691 -0.3651 -0.0918
 2778TIP3   OH229748   3.734   6.322  12.817  0.2660 -0.7104  0.3064
 2778TIP3    H129749   3.719   6.243  12.869 -3.1823  0.1929  0.9041
 2778TIP3    H229750   3.747   6.290  12.728  0.1377 -2.0125  0.7330
 2779TIP3   OH229751   5.486   3.215  10.440 -0.4822  0.0225  0.1721
 2779TIP3    H129752   5.419   3.155  10.408  1.2278 -2.2430  0.6561
 2779TIP3    H229753   5.541   3.162  10.498 -0.3003  2.6467  2.6395
 2780TIP3   OH229754   3.952   5.945   0.246  0.1599  0.5400 -0.7239
 2780TIP3    H129755   3.891   5.900   0.188 -0.5832  2.3538 -1.4256
 2780TIP3    H229756   3.951   6.036   0.216  2.5189  0.8221 -0.1639
 2781TIP3   OH229757   2.112   3.677  13.756  0.9907 -0.0008 -0.1120
 2781TIP3    H129758   2.052   3.616  13.713  1.0100 -0.9766  1.1792
 2781TIP3    H229759   2.152   3.626  13.827  3.4545  0.5705 -0.9878
 2782TIP3   OH229760   2.936   5.900  16.312 -0.5560 -0.2661  0.0180
 2782TIP3    H129761   2.857   5.910  16.259  0.2273 -0.2482 -1.1974
 2782TIP3    H229762   2.915   5.942  16.395 -0.8435  2.5338 -1.3211
 2783TIP3   OH229763   6.760   5.934   2.091  0.6688 -0.4463 -0.0493
 2783TIP3    H129764   6.707   6.009   2.063 -0.9139 -1.2788  0.6052
 2783TIP3    H229765   6.757   5.874   2.017  1.7875  0.0202 -0.5021
 2784TIP3   OH229766   5.658   6.391   1.879 -0.4707  0.5832  0.5871
 2784TIP3    H129767   5.710   6.335   1.936 -0.1164  1.9296  1.6406
 2784TIP3    H229768   5.576   6.405   1.926 -0.8308  0.4109  0.0236
 2785TIP3   OH229769   1.351   3.606   5.924 -0.2915  0.2049  0.0995
 2785TIP3    H129770   1.309   3.630   6.006 -2.5305 -1.2979 -0.5299
 2785TIP3    H229771   1.306   3.658   5.858 -0.4923 -0.7045 -0.4868
 2786TIP3   OH229772   4.885   1.793  16.291  0.1749 -0.3985  0.0880
 2786TIP3    H129773   4.870   1.748  16.374 -1.0658 -0.9863 -0.4355
 2786TIP3    H229774   4.799   1.797  16.249  0.9101 -0.9437 -1.5858
 2787TIP3   OH229775   2.866   2.741   1.863 -0.3160 -0.1262  0.0726
 2787TIP3    H129776   2.782   2.765   1.823 -0.1425 -0.2136 -0.3494
 2787TIP3    H229777   2.845   2.667   1.920 -0.1586 -1.5977 -1.7031
 2788TIP3   OH229778   1.195   4.045   5.024  0.3671  0.2650  0.1685
 2788TIP3    H129779   1.115   4.001   5.050  1.2037 -0.8730  0.8835
 2788TIP3    H229780   1.183   4.065   4.932 -0.7672  0.1941  0.2917
 2789TIP3   OH229781   3.059   5.749   4.366  0.6139  0.2652  0.7823
 2789TIP3    H129782   3.078   5.842   4.378 -0.3139  0.6254 -0.3343
 2789TIP3    H229783   3.040   5.716   4.454  1.8296  0.9124  1.3036
 2790TIP3   OH229784   4.582   1.395   0.845  0.3193 -0.1535 -0.6337
 2790TIP3    H129785   4.583   1.321   0.784  0.7886  1.2932 -2.4954
 2790TIP3    H229786   4.582   1.472   0.788 -1.3150  1.3063  1.2202
 2791TIP3   OH229787   1.687   0.705   4.945 -0.2204 -0.4471 -0.1855
 2791TIP3    H129788   1.604   0.661   4.968  0.3800 -1.5991 -0.1409
 2791TIP3    H229789   1.755   0.646   4.978  0.6361  1.1611  1.0280
 2792TIP3   OH229790   5.405   1.990   3.092  0.2307 -0.2534 -0.0384
 2792TIP3    H129791   5.389   2.074   3.049  1.0213  1.0434  2.0442
 2792TIP3    H229792   5.489   2.001   3.136  0.2690 -2.0962  0.4361
 2793TIP3   OH229793   1.971   6.396  15.209 -0.6275 -0.3812 -0.0396
 2793TIP3    H129794   2.031   6.323  15.221 -0.2675 -0.0178  0.3925
 2793TIP3    H229795   1.967   6.438  15.295 -0.7580  0.1615 -0.3086
 2794TIP3   OH229796   2.526   2.734  15.121  0.0276  0.1298  0.1936
 2794TIP3    H129797   2.468   2.692  15.184 -1.3993 -1.0183 -1.7964
 2794TIP3    H229798   2.613   2.727  15.160 -0.5805 -2.0378  1.2857
 2795TIP3   OH229799   2.989   0.953   0.015 -0.1761 -0.4838  0.0540
 2795TIP3    H129800   3.056   1.011   0.052  0.7161 -1.2685 -0.2649
 2795TIP3    H229801   3.029   0.866   0.018 -0.5853 -0.7676 -1.5194
 2796TIP3   OH229802   5.287   3.686  11.118 -0.5340  0.1070  0.4671
 2796TIP3    H129803   5.358   3.647  11.067  0.6331  3.0640 -0.3601
 2796TIP3    H229804   5.283   3.632  11.198  1.4151 -1.2252 -0.2583
 2797TIP3   OH229805   6.422   1.946   4.148  0.6851 -0.0788  0.0839
 2797TIP3    H129806   6.449   1.904   4.066  0.8154 -0.7223  0.4486
 2797TIP3    H229807   6.455   2.035   4.141 -1.4195  0.6490 -1.6207
 2798TIP3   OH229808   4.826   2.028  16.543 -0.7281 -0.2564 -0.2201
 2798TIP3    H129809   4.849   1.938  16.522  0.5957  0.1532 -0.6182
 2798TIP3    H229810   4.731   2.026  16.553 -0.8486 -1.4884 -1.2739
 2799TIP3   OH229811   2.513   3.337   2.448  0.2296  0.1890 -0.4189
 2799TIP3    H129812   2.580   3.372   2.508  1.2130  1.0026 -1.9258
 2799TIP3    H229813   2.450   3.409   2.439  0.5847  0.4288 -1.0667
 2800TIP3   OH229814   2.383   1.047   6.096  0.0413  0.1892  0.0221
 2800TIP3    H129815   2.333   1.129   6.101  0.8145  0.7659 -1.2867
 2800TIP3    H229816   2.452   1.065   6.032  1.2365 -0.9614  0.9358
 2801TIP3   OH229817   0.070   4.216  17.304  0.3293  0.4745  0.2277
 2801TIP3    H129818   0.065   4.221  17.400 -1.6689 -0.8301  0.2365
 2801TIP3    H229819   0.035   4.300  17.274  0.6065  0.7385  0.6265
 2802TIP3   OH229820   6.081   3.521   1.046  0.2303 -0.3990  0.0719
 2802TIP3    H129821   6.129   3.493   1.123  0.3465 -0.9824 -0.2068
 2802TIP3    H229822   5.990   3.524   1.073  0.0657 -2.1492 -0.1806
 2803TIP3   OH229823   6.368   2.253   5.306 -0.0601  0.3936 -0.2222
 2803TIP3    H129824   6.379   2.215   5.394  2.3027  0.9473 -0.2158
 2803TIP3    H229825   6.447   2.305   5.293 -0.8248  1.1020 -2.3195
 2804TIP3   OH229826   2.155   0.820  15.949  0.5663  0.0284  0.1334
 2804TIP3    H129827   2.066   0.849  15.925  0.4558  0.6288  1.2191
 2804TIP3    H229828   2.152   0.811  16.044  1.2247 -1.5220  0.0351
 2805TIP3   OH229829   0.727   4.747  14.540 -0.0336  0.3940 -0.2885
 2805TIP3    H129830   0.800   4.777  14.595 -0.3745  3.2459 -1.2447
 2805TIP3    H229831   0.648   4.776  14.587 -0.5192 -0.9744 -0.2109
 2806TIP3   OH229832   6.522   6.145   1.482  0.2436  0.5531 -0.2779
 2806TIP3    H129833   6.509   6.096   1.563  0.4605  1.6045  0.4084
 2806TIP3    H229834   6.500   6.083   1.413 -2.0815  0.2649  0.6148
 2807TIP3   OH229835   4.876   6.324  11.832  0.2157 -0.2191 -0.5204
 2807TIP3    H129836   4.939   6.259  11.800  0.4081  0.5141 -1.6935
 2807TIP3    H229837   4.930   6.399  11.856  0.0355 -0.5976  1.2278
 2808TIP3   OH229838   5.417   1.165   4.840 -0.0914  0.0897  0.3168
 2808TIP3    H129839   5.510   1.183   4.853  0.0465 -1.2967  1.3563
 2808TIP3    H229840   5.386   1.133   4.924 -0.8409 -2.1991 -0.7424
 2809TIP3   OH229841   3.477   0.229  12.512 -0.0563  0.6134  0.0982
 2809TIP3    H129842   3.391   0.191  12.526  0.6248 -1.4481 -0.9088
 2809TIP3    H229843   3.537   0.155  12.513  1.3856  1.6534 -1.7495
 2810TIP3   OH229844   4.043   1.108  11.543 -0.6897  0.0335 -0.0133
 2810TIP3    H129845   4.068   1.023  11.578  0.7587  0.3835 -0.1346
 2810TIP3    H229846   4.055   1.100  11.448 -0.9820  0.2440 -0.0727
 2811TIP3   OH229847   6.315   4.488  12.656 -0.3401 -0.5257 -0.2215
 2811TIP3    H129848   6.296   4.408  12.609  2.1466 -0.9436 -0.6833
 2811TIP3    H229849   6.279   4.558  12.602 -0.1703 -1.1867 -1.1995
 2812TIP3   OH229850   4.928   5.558  14.774  0.0560 -0.3672  0.2664
 2812TIP3    H129851   4.896   5.643  14.802 -0.0241  0.2818 -1.6661
 2812TIP3    H229852   4.969   5.521  14.852  0.3548  1.5541  1.0770
 2813TIP3   OH229853   3.872   3.354  13.449 -0.3296  0.0932  0.1774
 2813TIP3    H129854   3.851   3.439  13.489 -0.6008  0.7478 -1.2844
 2813TIP3    H229855   3.927   3.376  13.374  0.1186 -1.0990  0.1302
 2814TIP3   OH229856   6.222   3.244   1.612 -0.3375 -0.0098  0.1709
 2814TIP3    H129857   6.178   3.161   1.593 -0.0143  0.2733 -2.1019
 2814TIP3    H229858   6.298   3.220   1.666 -1.2074 -0.9336  1.0288
 2815TIP3   OH229859   5.969   5.188  15.322  0.0450 -0.0824 -0.0237
 2815TIP3    H129860   5.973   5.129  15.397  1.2125 -0.6050 -0.4641
 2815TIP3    H229861   6.046   5.244  15.332 -0.0970  0.2112 -0.5389
 2816TIP3   OH229862   5.536   6.629  16.866 -0.1836  0.3981  0.0093
 2816TIP3    H129863   5.620   6.583  16.855 -0.4242 -0.1345  0.3169
 2816TIP3    H229864   5.528   6.641  16.961 -0.0653  1.2041 -0.0744
 2817TIP3   OH229865   3.671   1.665  13.797  0.0534 -0.0875 -0.4908
 2817TIP3    H129866   3.636   1.579  13.820 -0.6654 -0.3261 -2.3003
 2817TIP3    H229867   3.694   1.705  13.881  0.0410 -1.8777  0.4163
 2818TIP3   OH229868   5.805   1.157  12.890 -0.3959 -0.2982 -0.3721
 2818TIP3    H129869   5.778   1.066  12.881  0.7377 -0.6249 -0.6537
 2818TIP3    H229870   5.895   1.158  12.858 -0.1050  0.7533  0.4270
 2819TIP3   OH229871   1.133   6.697  11.165  0.1278 -0.0037 -0.3103
 2819TIP3    H129872   1.109   6.611  11.131  1.7512 -0.8752  0.6099
 2819TIP3    H229873   1.123   6.756  11.090  1.4832 -1.4761 -1.7431
 2820TIP3   OH229874   1.933   1.668   2.385 -0.6221 -0.4885  0.2109
 2820TIP3    H129875   1.841   1.647   2.368 -0.9349 -0.8185  2.1484
 2820TIP3    H229876   1.959   1.608   2.454  1.7265 -1.9053 -1.7216
 2821TIP3   OH229877   0.434   4.158  15.781 -0.4394 -0.1738 -0.0358
 2821TIP3    H129878   0.423   4.111  15.698  0.5568  0.7358 -0.7095
 2821TIP3    H229879   0.408   4.248  15.761 -0.3976  0.0099  0.7000
 2822TIP3   OH229880   5.384   3.602  16.299  0.1277 -0.1165 -0.1569
 2822TIP3    H129881   5.384   3.697  16.294 -0.3783 -0.1691 -2.7342
 2822TIP3    H229882   5.356   3.573  16.212 -1.5904 -2.6188  1.0879
 2823TIP3   OH229883   3.810   6.354   5.691 -0.5608 -1.0760  0.3424
 2823TIP3    H129884   3.891   6.341   5.739 -2.8058  1.2623  5.6270
 2823TIP3    H229885   3.769   6.268   5.689  1.1018 -1.8865 -0.5606
 2824TIP3   OH229886   0.800   4.540  14.361 -0.6004 -0.3601  0.1900
 2824TIP3    H129887   0.842   4.616  14.323 -3.1108 -0.1004 -2.3879
 2824TIP3    H229888   0.770   4.570  14.447 -0.3878  1.1639 -0.2406
 2825TIP3   OH229889   2.141   4.767   3.319 -0.7163 -0.3004 -0.1980
 2825TIP3    H129890   2.150   4.696   3.256  1.5441 -0.2501 -0.0373
 2825TIP3    H229891   2.159   4.846   3.269 -3.2185  0.2121 -0.3752
 2826TIP3   OH229892   1.203   2.486  15.987 -0.3144 -0.0064  0.1884
 2826TIP3    H129893   1.202   2.482  15.891 -0.9386 -0.8867  0.2296
 2826TIP3    H229894   1.116   2.518  16.010 -0.0272  0.6056  0.4621
 2827TIP3   OH229895   3.930   0.143   5.965  0.0737 -0.0651 -0.0636
 2827TIP3    H129896   3.842   0.180   5.953 -0.0586  0.0130  1.0873
 2827TIP3    H229897   3.987   0.219   5.973  0.4118 -0.1008 -1.7541
 2828TIP3   OH229898   0.549   5.590   2.509  0.2060  0.1833 -0.0539
 2828TIP3    H129899   0.460   5.578   2.476  0.0670  1.4806 -0.2028
 2828TIP3    H229900   0.571   5.507   2.551 -1.0657 -0.1581 -0.0437
 2829TIP3   OH229901   1.599   5.790   6.282  0.9981  0.6465 -0.9079
 2829TIP3    H129902   1.597   5.696   6.303 -0.3941  1.0883  1.2781
 2829TIP3    H229903   1.684   5.820   6.312 -0.0226  0.7667  2.2432
 2830TIP3   OH229904   6.351   6.550  12.296 -0.0112  0.2323 -0.0443
 2830TIP3    H129905   6.383   6.537  12.385  2.2736  0.1513 -0.8196
 2830TIP3    H229906   6.415   6.607  12.255  0.0605 -1.2623 -2.2009
 2831TIP3   OH229907   0.150   2.269  17.104 -0.3680 -0.4795 -0.0248
 2831TIP3    H129908   0.233   2.318  17.110 -2.4338  3.2672  1.8876
 2831TIP3    H229909   0.161   2.195  17.163  1.4605  0.2373  0.6051
 2832TIP3   OH229910   5.426   6.708   2.835  0.2740  0.0174  0.0198
 2832TIP3    H129911   5.495   6.769   2.861 -0.4483 -0.1568  2.6558
 2832TIP3    H229912   5.354   6.764   2.807 -0.0445  0.4041  1.5106
 2833TIP3   OH229913   1.685   0.700  12.604  0.6425 -0.1090 -0.0986
 2833TIP3    H129914   1.753   0.705  12.671 -1.1822 -1.9257  2.0735
 2833TIP3    H229915   1.626   0.772  12.623 -0.7456 -1.5449  1.4385
 2834TIP3   OH229916   6.204   4.430  11.656 -0.3060 -0.5892  0.7695
 2834TIP3    H129917   6.174   4.433  11.565 -2.0999 -1.4228  1.2863
 2834TIP3    H229918   6.286   4.382  11.653  0.1356  0.2130 -0.5153
 2835TIP3   OH229919   5.851   5.735  15.132  0.9001 -0.2858  0.1238
 2835TIP3    H129920   5.857   5.743  15.037  2.4046  0.2629  0.2369
 2835TIP3    H229921   5.941   5.724  15.161  0.5163  0.0301  1.5306
 2836TIP3   OH229922   5.112   5.846  17.013 -0.1415  0.2016 -1.0096
 2836TIP3    H129923   5.063   5.875  16.936 -0.6698  2.3605  0.0816
 2836TIP3    H229924   5.081   5.902  17.084 -0.3810 -2.3469  1.0358
 2837TIP3   OH229925   3.310   5.472  16.514  0.5664  0.4648  0.2031
 2837TIP3    H129926   3.225   5.436  16.537  0.1159  1.2041 -0.2754
 2837TIP3    H229927   3.304   5.490  16.420  0.7470  1.8240  0.4261
 2838TIP3   OH229928   0.188   3.967  13.130 -0.2765  0.2018 -0.5441
 2838TIP3    H129929   0.108   3.968  13.077 -1.5059 -1.2865  1.1537
 2838TIP3    H229930   0.159   3.995  13.217  0.9773 -0.6150  0.1613
 2839TIP3   OH229931   4.186   4.785  14.753  0.1151  0.7223  0.7791
 2839TIP3    H129932   4.202   4.710  14.696  1.7891  1.5134  0.1638
 2839TIP3    H229933   4.224   4.760  14.837 -1.3057  0.0349  1.2616
 2840TIP3   OH229934   4.022   1.905  10.856  0.2689  0.0441  0.3866
 2840TIP3    H129935   3.944   1.957  10.874  0.5756  0.4094  0.6626
 2840TIP3    H229936   3.988   1.824  10.819 -0.3220 -0.3048  1.6360
 2841TIP3   OH229937   1.478   2.334   5.630 -0.3196 -0.3208 -0.2759
 2841TIP3    H129938   1.520   2.346   5.715  1.2557  1.1545 -1.1903
 2841TIP3    H229939   1.548   2.350   5.566 -1.4462 -1.3818 -1.8643
 2842TIP3   OH229940   6.606   2.993  12.600 -0.0676  0.2873  0.2454
 2842TIP3    H129941   6.580   3.084  12.585 -1.9080  0.1105  1.9435
 2842TIP3    H229942   6.640   2.992  12.689 -0.3275 -0.7333  0.3479
 2843TIP3   OH229943   6.224   1.799  17.149  0.0916  0.5110 -0.2967
 2843TIP3    H129944   6.217   1.709  17.119 -0.9058  0.8756 -1.2166
 2843TIP3    H229945   6.285   1.840  17.087 -1.5334  1.1196 -1.5778
 2844TIP3   OH229946   2.002   3.776   5.521  0.3308  0.1171  0.0329
 2844TIP3    H129947   1.954   3.730   5.452 -0.8452  2.0629 -0.5192
 2844TIP3    H229948   1.960   3.746   5.602  1.5609 -1.9950 -0.0414
 2845TIP3   OH229949   3.712   1.898   2.082  0.2343  0.5422  0.1764
 2845TIP3    H129950   3.777   1.896   2.152  0.9875  0.9824 -0.4946
 2845TIP3    H229951   3.664   1.816   2.092  0.2730  0.6362  1.2525
 2846TIP3   OH229952   0.195   3.500  11.652  0.3966 -0.0697 -0.7198
 2846TIP3    H129953   0.282   3.512  11.690  0.4821 -0.1559 -0.8859
 2846TIP3    H229954   0.136   3.547  11.711  0.8334  2.0053 -1.8082
 2847TIP3   OH229955   1.700   5.449  15.455  0.5433 -0.1632  0.3519
 2847TIP3    H129956   1.618   5.417  15.492 -1.1431  3.7787  0.5418
 2847TIP3    H229957   1.681   5.460  15.362  0.8390  0.6728  0.3788
 2848TIP3   OH229958   4.684   5.927  15.773 -0.8683 -0.1220  0.2421
 2848TIP3    H129959   4.634   5.845  15.771  0.6531 -1.1476  1.8998
 2848TIP3    H229960   4.729   5.926  15.857  0.6042  1.5768 -0.4651
 2849TIP3   OH229961   2.492   2.060   2.619  0.0585  0.3358  0.0907
 2849TIP3    H129962   2.425   2.057   2.551  0.3190 -0.4013 -0.1511
 2849TIP3    H229963   2.552   2.129   2.592 -0.2931  0.6128  0.0133
 2850TIP3   OH229964   3.760   1.302  15.203  0.1869 -0.1618  0.0444
 2850TIP3    H129965   3.809   1.280  15.282  0.3222 -0.0128  0.0045
 2850TIP3    H229966   3.814   1.369  15.160  0.0106 -0.0897 -0.0655
 2851TIP3   OH229967   6.142   0.974   4.583  0.7407 -0.4299  0.1725
 2851TIP3    H129968   6.137   1.024   4.665  0.7469 -2.0729  1.2246
 2851TIP3    H229969   6.234   0.977   4.559  0.2859  2.9545 -1.7372
 2852TIP3   OH229970   3.450   0.095   0.413 -0.0327 -0.0599  0.2910
 2852TIP3    H129971   3.486   0.053   0.335 -0.3475  0.2836 -0.0449
 2852TIP3    H229972   3.364   0.055   0.425  0.3436 -0.7035  0.9511
 2853TIP3   OH229973   3.729   2.537  15.722  0.8388  0.3306 -0.2429
 2853TIP3    H129974   3.770   2.464  15.767  0.5928  0.0579 -0.4578
 2853TIP3    H229975   3.800   2.578  15.673  1.0004  0.3063 -0.0312
 2854TIP3   OH229976   0.672   2.533   2.593 -0.4010 -0.2073  0.1996
 2854TIP3    H129977   0.590   2.526   2.642 -1.0778  0.0701 -0.8431
 2854TIP3    H229978   0.666   2.619   2.550 -0.2118 -0.7704 -0.9882
 2855TIP3   OH229979   4.084   2.610   6.618 -0.7462 -0.2047 -0.5813
 2855TIP3    H129980   4.141   2.539   6.648  0.9749  0.2870 -2.4629
 2855TIP3    H229981   4.131   2.690   6.640 -0.7392  0.2225 -2.0729
 2856TIP3   OH229982   5.060   6.003   4.705 -0.1330 -0.1508  0.6329
 2856TIP3    H129983   5.109   6.052   4.639 -0.1001  0.8132  1.3336
 2856TIP3    H229984   5.125   5.947   4.747  0.0189 -0.1343  0.4215
 2857TIP3   OH229985   5.539   3.298  11.570 -0.1027 -0.5382  0.1775
 2857TIP3    H129986   5.464   3.240  11.581 -1.2578  0.6276 -1.0526
 2857TIP3    H229987   5.524   3.369  11.633  0.4283 -0.7353  0.5284
 2858TIP3   OH229988   0.760   5.025  13.755  0.3670  0.3030 -0.1134
 2858TIP3    H129989   0.840   5.061  13.792  0.5756 -1.1498  0.9295
 2858TIP3    H229990   0.748   5.072  13.673  0.8082  2.4592  0.9874
 2859TIP3   OH229991   5.260   3.633  11.407 -0.1636  0.0750 -0.5179
 2859TIP3    H129992   5.193   3.601  11.467 -0.0388 -1.3622 -1.1012
 2859TIP3    H229993   5.319   3.559  11.395  0.4729  0.7119 -1.4870
 2860TIP3   OH229994   4.044   1.055  17.278 -0.4218 -0.1670 -0.5641
 2860TIP3    H129995   4.124   1.007  17.299 -0.2894 -0.1344 -0.9913
 2860TIP3    H229996   3.975   1.009  17.327 -0.7271 -2.3732 -2.8135
 2861TIP3   OH229997   5.197   5.491   3.541  0.0655  0.3906  0.1037
 2861TIP3    H129998   5.228   5.549   3.609 -0.6227  1.4536 -0.4628
 2861TIP3    H229999   5.227   5.530   3.459 -1.2802  0.5426 -0.3529
 2862TIP3   OH230000   3.621   1.438  12.562  0.7547  0.2041  0.5640
 2862TIP3    H130001   3.561   1.453  12.635  1.6292  0.8112  1.1836
 2862TIP3    H230002   3.685   1.509  12.568  3.0847 -1.8167  1.5322
 2863TIP3   OH230003   3.993   1.753   2.047  0.2134  0.2589  0.2770
 2863TIP3    H130004   4.006   1.828   1.989  0.0541 -0.0906 -0.2053
 2863TIP3    H230005   4.064   1.762   2.112 -0.7976  1.7855  1.2622
 2864TIP3   OH230006   6.339   3.170   4.131  0.0951 -0.5789 -0.1107
 2864TIP3    H130007   6.400   3.196   4.062 -0.3308  0.1985 -0.1974
 2864TIP3    H230008   6.254   3.199   4.100 -0.1117 -0.3201  0.6999
 2865TIP3   OH230009   4.871   0.880   3.059 -0.2542 -0.0361  0.4021
 2865TIP3    H130010   4.817   0.841   2.991 -1.6471  0.6195  1.0756
 2865TIP3    H230011   4.812   0.890   3.134  0.7268  0.9549  1.0870
 2866TIP3   OH230012   2.293   2.273   3.885 -0.3977 -0.1454  0.0727
 2866TIP3    H130013   2.284   2.298   3.977 -1.0755  0.3742 -0.1284
 2866TIP3    H230014   2.275   2.179   3.884  1.3625 -0.5287  0.7138
 2867TIP3   OH230015   3.262   6.429   4.687 -0.2152 -0.3273 -0.1410
 2867TIP3    H130016   3.198   6.359   4.691  0.3779 -0.9701 -1.3065
 2867TIP3    H230017   3.220   6.497   4.633 -0.8946  0.3543  1.2093
 2868TIP3   OH230018   5.974   4.182  12.438  0.0750 -0.3949  0.3151
 2868TIP3    H130019   5.979   4.086  12.436 -0.4170 -0.4185  0.0728
 2868TIP3    H230020   5.913   4.204  12.367 -0.6666  0.0341  1.0751
 2869TIP3   OH230021   0.192   6.152  16.358 -0.1320 -0.1407 -0.1475
 2869TIP3    H130022   0.227   6.093  16.425 -2.1496 -0.2170  0.9107
 2869TIP3    H230023   0.198   6.101  16.277  1.4132 -0.4190  0.1014
 2870TIP3   OH230024   4.202   2.104   5.763 -0.1081 -0.0017  0.5494
 2870TIP3    H130025   4.188   2.085   5.856  0.3103  1.3560  0.9135
 2870TIP3    H230026   4.266   2.175   5.762  1.6224 -1.4876 -0.8713
 2871TIP3   OH230027   2.327   6.201  14.094 -0.0981 -0.4767 -0.0784
 2871TIP3    H130028   2.361   6.280  14.051  0.0045 -0.2840  0.3514
 2871TIP3    H230029   2.265   6.165  14.031 -1.0616  0.6149  0.2056
 2872TIP3   OH230030   6.382   0.554  14.231  0.2528 -0.4065  0.0809
 2872TIP3    H130031   6.302   0.604  14.243 -0.6718 -1.8291  0.1256
 2872TIP3    H230032   6.368   0.504  14.151  1.8296  0.6223 -0.8706
 2873TIP3   OH230033   5.777   2.327  13.032  0.1023 -0.2248 -0.2707
 2873TIP3    H130034   5.819   2.316  12.946  1.9187 -1.2138  0.6911
 2873TIP3    H230035   5.801   2.416  13.058 -0.6574  0.1676 -0.8734
 2874TIP3   OH230036   1.838   2.071  13.736 -0.3979 -0.2840  0.1350
 2874TIP3    H130037   1.804   2.156  13.764 -1.4600 -0.1830 -1.3291
 2874TIP3    H230038   1.920   2.092  13.691  2.4130 -0.6107  4.4996
 2875TIP3   OH230039   3.939   4.149   3.017  0.4646  0.0352 -0.0364
 2875TIP3    H130040   4.034   4.143   3.026  0.6048  1.5458 -0.1183
 2875TIP3    H230041   3.910   4.059   3.008  1.8086 -0.5097  0.7276
 2876TIP3   OH230042   4.173   6.596   3.389  0.4105 -0.1429 -0.0673
 2876TIP3    H130043   4.156   6.619   3.480 -0.3896 -2.5081  0.4460
 2876TIP3    H230044   4.116   6.654   3.338  1.9681  2.2707  0.7508
 2877TIP3   OH230045   6.401   1.508   4.555  0.3468 -0.0217 -0.3137
 2877TIP3    H130046   6.381   1.516   4.461  2.2639 -1.3170 -0.9144
 2877TIP3    H230047   6.317   1.493   4.597 -0.5679  0.7128 -1.8217
 2878TIP3   OH230048   2.775   6.644  10.967  0.0275  0.2796  0.1173
 2878TIP3    H130049   2.790   6.678  11.055 -1.0527  2.8313 -0.5644
 2878TIP3    H230050   2.851   6.675  10.917 -0.2136  0.3839 -0.1898
 2879TIP3   OH230051   4.864   1.087   0.934 -0.5907 -0.1571  0.0121
 2879TIP3    H130052   4.895   1.074   1.023 -0.3901 -0.2756 -0.0751
 2879TIP3    H230053   4.918   1.158   0.899 -0.4040 -0.3729 -0.1437
 2880TIP3   OH230054   4.728   3.044   1.495 -0.2216  0.0432  0.6200
 2880TIP3    H130055   4.738   3.011   1.405 -3.1096 -0.9078  0.5506
 2880TIP3    H230056   4.792   3.114   1.502 -0.3953  0.6474 -2.4650
 2881TIP3   OH230057   5.094   2.596   3.863  0.1029 -0.6806 -0.1821
 2881TIP3    H130058   5.090   2.593   3.768 -2.1245 -0.6814 -0.1484
 2881TIP3    H230059   5.149   2.673   3.882 -1.8751  1.1981 -1.5360
 2882TIP3   OH230060   1.592   1.178   0.744  0.0972 -0.5685 -0.0276
 2882TIP3    H130061   1.606   1.272   0.735 -0.0114 -0.3897  1.4423
 2882TIP3    H230062   1.510   1.161   0.698 -0.6580  0.3170  0.9716
 2883TIP3   OH230063   6.540   1.020  13.405 -0.1152  0.5383 -0.0216
 2883TIP3    H130064   6.546   1.032  13.500 -1.1877 -0.2071  0.1492
 2883TIP3    H230065   6.454   0.981  13.391  0.7579 -1.0919 -1.1303
 2884TIP3   OH230066   1.514   6.201   2.759  0.3205  0.4953  0.2320
 2884TIP3    H130067   1.577   6.146   2.806 -0.5769 -0.3953  0.4418
 2884TIP3    H230068   1.554   6.214   2.673 -0.0248 -1.6857 -0.3307
 2885TIP3   OH230069   3.042   4.757   4.485 -0.0583  0.0015 -0.7752
 2885TIP3    H130070   2.967   4.743   4.543  1.1253 -0.9254  0.6121
 2885TIP3    H230071   3.041   4.851   4.468 -1.0375  0.1388 -0.0806
 2886TIP3   OH230072   1.958   1.094  17.000 -0.3465 -0.1949  0.8916
 2886TIP3    H130073   1.955   1.070  16.907 -1.1225  0.1732  0.8154
 2886TIP3    H230074   2.015   1.172  17.002  1.7982 -1.6755  1.0830
 2887TIP3   OH230075   6.270   1.998   1.481 -0.5303  0.4397  0.2875
 2887TIP3    H130076   6.211   2.009   1.406  0.0036  0.7250 -0.0970
 2887TIP3    H230077   6.261   1.905   1.505 -0.8005  0.3766 -0.0445
 2888TIP3   OH230078   6.255   2.778   4.776  0.0951  1.1504 -0.0585
 2888TIP3    H130079   6.219   2.793   4.863  0.5020 -0.1572  0.3527
 2888TIP3    H230080   6.345   2.750   4.792  0.6637  2.3708 -0.9785
 2889TIP3   OH230081   5.687   0.786   4.608  0.1304 -0.2929  0.4911
 2889TIP3    H130082   5.621   0.855   4.602 -0.7255 -1.0941  0.4301
 2889TIP3    H230083   5.764   0.829   4.643  0.5365  1.3372 -2.1643
 2890TIP3   OH230084   5.625   5.877  11.237  0.4085  0.1519  0.3085
 2890TIP3    H130085   5.552   5.863  11.176  0.5592 -0.0263  0.1687
 2890TIP3    H230086   5.620   5.970  11.259  1.1409  0.5301 -0.9895
 2891TIP3   OH230087   2.051   2.988   1.216  0.6616  0.5365  0.0691
 2891TIP3    H130088   1.980   2.936   1.252  1.5510 -0.1034  0.9491
 2891TIP3    H230089   2.100   2.928   1.161  1.3802  0.5804  0.6539
 2892TIP3   OH230090   2.410   4.164   6.292  0.3223  0.4279  0.6474
 2892TIP3    H130091   2.396   4.255   6.316 -0.2341  0.2521  1.0030
 2892TIP3    H230092   2.505   4.152   6.299  0.5314  1.2736 -0.4898
 2893TIP3   OH230093   4.561   5.617  14.880  0.4881  0.0985  0.5189
 2893TIP3    H130094   4.562   5.639  14.973  0.5288 -0.2478  0.6044
 2893TIP3    H230095   4.535   5.525  14.878 -0.3371  0.3296  0.1349
 2894TIP3   OH230096   0.001   1.981   4.470  0.5799  0.0181  0.4119
 2894TIP3    H130097   0.030   1.960   4.382  0.8582 -0.9803  0.7318
 2894TIP3    H230098   0.046   1.918   4.526  1.9296  1.8474  1.4871
 2895TIP3   OH230099   0.102   0.647   5.221 -0.4244  0.4228  0.4008
 2895TIP3    H130100   0.186   0.693   5.229 -0.6191  0.7074  0.8538
 2895TIP3    H230101   0.088   0.609   5.308 -1.3389  1.3833  0.6869
 2896TIP3   OH230102   6.260   5.774   4.583  0.4028 -0.5723 -0.0282
 2896TIP3    H130103   6.355   5.789   4.580  0.2142  0.7326 -3.1040
 2896TIP3    H230104   6.222   5.861   4.573 -1.1162 -1.1707  0.3634
 2897TIP3   OH230105   5.051   4.756  15.905  0.3300 -1.0723 -0.1353
 2897TIP3    H130106   5.038   4.705  15.985 -2.9702 -4.1821 -2.3736
 2897TIP3    H230107   5.145   4.751  15.888  0.9681 -1.2169  2.8668
 2898TIP3   OH230108   6.215   1.727   6.638  0.8313  0.5707 -0.2548
 2898TIP3    H130109   6.231   1.818   6.664  1.6416  0.6601 -1.0170
 2898TIP3    H230110   6.163   1.734   6.558  0.2012  0.3402  0.1290
 2899TIP3   OH230111   2.037   4.403   0.194 -0.1807  0.0947 -0.0831
 2899TIP3    H130112   1.983   4.324   0.203 -1.2668  0.6803 -1.1287
 2899TIP3    H230113   1.978   4.467   0.155  0.4160  1.7170  1.5434
 2900TIP3   OH230114   4.410   2.336   5.529  0.3817  0.2335 -0.8705
 2900TIP3    H130115   4.405   2.314   5.622  0.1184  2.6536 -0.2306
 2900TIP3    H230116   4.319   2.349   5.503  0.5124  0.5233 -1.1880
 2901TIP3   OH230117   5.139   0.458   0.912  0.5062  0.0153 -0.1176
 2901TIP3    H130118   5.219   0.509   0.923  0.7191 -0.3946  0.2393
 2901TIP3    H230119   5.169   0.368   0.900  0.0993 -0.1320 -0.0385
 2902TIP3   OH230120   5.105   0.857  16.058  0.7909  0.7936  0.4127
 2902TIP3    H130121   5.098   0.936  16.111 -0.5848  0.3713  0.9239
 2902TIP3    H230122   5.021   0.850  16.013  0.9792 -0.2350  0.1804
 2903TIP3   OH230123   3.083   2.702  14.145 -0.1464 -0.0762  0.5257
 2903TIP3    H130124   3.083   2.789  14.184 -1.1311  0.0102  0.3579
 2903TIP3    H230125   3.108   2.717  14.054 -1.6565  0.2285  0.1323
 2904TIP3   OH230126   1.513   2.635  15.605  0.3283  0.0867 -0.1137
 2904TIP3    H130127   1.592   2.623  15.553  2.5282  2.0925  2.4427
 2904TIP3    H230128   1.530   2.587  15.686 -2.1881 -1.4378 -0.3869
 2905TIP3   OH230129   2.057   1.745  11.855  0.8707 -0.1993 -0.6702
 2905TIP3    H130130   2.055   1.800  11.934  1.5870  0.0076 -0.7882
 2905TIP3    H230131   2.145   1.758  11.819  1.0187 -1.3445 -0.7575
 2906TIP3   OH230132   0.553   0.390  13.108  0.5956  0.0297  0.0943
 2906TIP3    H130133   0.534   0.483  13.097  0.2864 -0.1812 -1.2969
 2906TIP3    H230134   0.639   0.387  13.151  0.0176  0.9487  1.3763
 2907TIP3   OH230135   3.731   6.226   5.139 -0.3033  0.2755  0.4335
 2907TIP3    H130136   3.723   6.134   5.163 -0.9587  1.0268  3.4850
 2907TIP3    H230137   3.663   6.270   5.189 -0.6172  2.3604 -1.6609
 2908TIP3   OH230138   4.405   5.689   3.074 -0.1229 -0.5805 -0.2689
 2908TIP3    H130139   4.388   5.778   3.106  0.8209  0.0038 -1.2946
 2908TIP3    H230140   4.320   5.660   3.040  0.1130  1.1067 -2.5675
 2909TIP3   OH230141   5.726   2.558   4.706  0.5995 -0.5822 -0.4254
 2909TIP3    H130142   5.672   2.485   4.675  2.3238 -2.3127  0.4531
 2909TIP3    H230143   5.782   2.579   4.632  1.6062 -1.6663  0.0036
 2910TIP3   OH230144   3.209   5.064  10.524 -1.0984  0.2590 -0.6433
 2910TIP3    H130145   3.255   4.984  10.499 -0.8545  0.5189 -1.0466
 2910TIP3    H230146   3.118   5.036  10.537 -0.6538 -0.4670  1.2541
 2911TIP3   OH230147   4.605   5.821   4.074  0.3548 -0.3939  0.3824
 2911TIP3    H130148   4.551   5.786   4.144  0.0640 -1.1256 -0.1909
 2911TIP3    H230149   4.695   5.809   4.105  0.3045 -2.4407 -0.1116
 2912TIP3   OH230150   5.051   5.890  15.486  0.3342 -0.7744  0.2694
 2912TIP3    H130151   5.107   5.818  15.457  1.2108 -0.0079 -0.0154
 2912TIP3    H230152   5.068   5.898  15.579  0.6515 -0.5948  0.1988
 2913TIP3   OH230153   0.529   1.911  16.564 -0.4949  0.1457 -0.6589
 2913TIP3    H130154   0.599   1.869  16.614 -0.2658 -1.6494 -2.3420
 2913TIP3    H230155   0.532   2.003  16.590  2.9345  0.2927 -1.1739
 2914TIP3   OH230156   1.562   3.525  11.122  0.1848  0.4812  0.6166
 2914TIP3    H130157   1.586   3.617  11.123 -1.3767  0.9583 -1.0211
 2914TIP3    H230158   1.646   3.478  11.124  1.0404  1.9449  0.2603
 2915TIP3   OH230159   1.104   0.211   0.401 -0.5770  0.1313 -0.1065
 2915TIP3    H130160   1.110   0.280   0.335 -2.3749  1.1718  0.7485
 2915TIP3    H230161   1.194   0.202   0.433  0.3248 -0.3354 -2.5505
 2916TIP3   OH230162   3.822   3.061  15.918  0.4367 -0.1218  0.3510
 2916TIP3    H130163   3.824   3.117  15.996 -0.4118 -0.7679  0.8583
 2916TIP3    H230164   3.784   2.979  15.949 -1.3337  0.0954 -1.0484
 2917TIP3   OH230165   2.930   5.686   3.762  0.4915  0.3986  0.3013
 2917TIP3    H130166   2.839   5.683   3.793 -0.4307  2.7150 -1.8534
 2917TIP3    H230167   2.941   5.606   3.711  0.5478 -1.1250  2.5498
 2918TIP3   OH230168   4.903   2.991   4.640  0.0626 -0.1934  0.0263
 2918TIP3    H130169   4.837   3.052   4.606  0.1393 -0.0936  0.0556
 2918TIP3    H230170   4.852   2.924   4.686  0.0244  0.5253  1.0918
 2919TIP3   OH230171   3.530   1.597   2.347  0.4312 -0.4506  0.0725
 2919TIP3    H130172   3.485   1.633   2.423  0.2963 -0.0551 -0.1899
 2919TIP3    H230173   3.623   1.613   2.363  0.4147 -0.5085  0.2241
 2920TIP3   OH230174   5.980   0.109   6.099 -0.4817  0.2718 -0.0599
 2920TIP3    H130175   5.902   0.116   6.044 -0.3364 -3.0440 -0.9064
 2920TIP3    H230176   6.029   0.189   6.081 -2.2017  0.9943 -1.9319
 2921TIP3   OH230177   1.496   5.171   0.473 -0.3908  0.3326 -0.1333
 2921TIP3    H130178   1.417   5.118   0.486 -0.0511  0.0033  0.6294
 2921TIP3    H230179   1.527   5.147   0.386 -0.4305 -0.4756  0.0700
 2922TIP3   OH230180   2.729   2.574   2.817 -0.2288  0.0942  0.2163
 2922TIP3    H130181   2.761   2.648   2.765  1.8332 -0.0456  1.1870
 2922TIP3    H230182   2.747   2.497   2.764  0.0182  0.0989  0.2932
 2923TIP3   OH230183   5.021   4.806   5.373  0.0902  0.5709  0.2509
 2923TIP3    H130184   5.033   4.856   5.293  2.4186  1.7205  1.2222
 2923TIP3    H230185   5.110   4.788   5.404 -0.7224 -1.2265  1.7635
 2924TIP3   OH230186   1.777   4.110  11.998 -0.2602 -0.3799  0.0013
 2924TIP3    H130187   1.713   4.177  12.021  0.3889  0.6610 -1.1334
 2924TIP3    H230188   1.789   4.060  12.079  0.4076  1.8715  1.3937
 2925TIP3   OH230189   0.971   3.928   0.540  0.5419 -0.2417  0.0319
 2925TIP3    H130190   0.939   3.859   0.598  1.8931 -1.3431 -0.4840
 2925TIP3    H230191   0.912   3.925   0.464 -0.4597  0.3684  0.7602
 2926TIP3   OH230192   3.662   4.869   6.471 -0.1139  0.1476 -0.1558
 2926TIP3    H130193   3.618   4.937   6.520  0.1396 -0.4868  0.9956
 2926TIP3    H230194   3.755   4.882   6.489 -0.0036 -0.0330 -0.5606
 2927TIP3   OH230195   3.981   0.190  13.580 -0.0183 -0.1088 -0.2489
 2927TIP3    H130196   3.991   0.128  13.652 -1.8912  1.3500  1.3981
 2927TIP3    H230197   3.911   0.153  13.526 -3.3038  1.7535  2.3579
 2928TIP3   OH230198   3.525   5.139  10.924 -0.2388  0.0665 -0.1179
 2928TIP3    H130199   3.500   5.160  10.834  0.4188 -1.9087 -0.7965
 2928TIP3    H230200   3.442   5.133  10.971 -0.5824  1.2435 -0.5397
 2929TIP3   OH230201   0.099   2.491   2.064 -0.1676 -0.3184  0.2097
 2929TIP3    H130202   0.062   2.537   2.139  1.5134 -1.9091  2.0883
 2929TIP3    H230203   0.145   2.559   2.015  1.6772  0.2189  2.5432
 2930TIP3   OH230204   2.519   2.464  14.056  0.1206  0.4597  0.4016
 2930TIP3    H130205   2.445   2.507  14.100  0.2701  1.1654 -0.0093
 2930TIP3    H230206   2.479   2.400  13.998 -0.1742  0.8867  0.1315
 2931TIP3   OH230207   6.401   3.901  12.719  0.2845  0.1637 -0.4544
 2931TIP3    H130208   6.354   3.932  12.796 -0.5468 -1.5424 -0.2216
 2931TIP3    H230209   6.333   3.885  12.654  0.6765 -0.9359 -0.6199
 2932TIP3   OH230210   4.678   3.410  13.748  0.2525 -0.1091  0.4912
 2932TIP3    H130211   4.726   3.390  13.668  0.1693 -0.3972  0.5141
 2932TIP3    H230212   4.621   3.334  13.762 -0.3421  0.3083  0.3655
 2933TIP3   OH230213   5.801   5.303  14.278 -0.7644 -0.3937 -0.4471
 2933TIP3    H130214   5.853   5.354  14.215  0.2627 -2.0335 -0.9936
 2933TIP3    H230215   5.817   5.346  14.362 -0.0538  0.2973 -0.9204
 2934TIP3   OH230216   6.721   6.405   2.551  0.2690  0.1453 -0.4737
 2934TIP3    H130217   6.760   6.348   2.485 -1.3705  0.0934 -1.4536
 2934TIP3    H230218   6.702   6.347   2.625 -0.3330 -0.3643 -1.0156
 2935TIP3   OH230219   6.374   0.427  16.827 -0.0996 -0.4283  0.3020
 2935TIP3    H130220   6.282   0.437  16.803  0.5597 -0.6167 -2.6709
 2935TIP3    H230221   6.383   0.334  16.847 -0.5150 -0.4363  0.4761
 2936TIP3   OH230222   0.906   1.799  12.870 -0.9877  0.4652 -0.2613
 2936TIP3    H130223   0.880   1.807  12.961 -0.5541 -0.2086 -0.0763
 2936TIP3    H230224   0.921   1.706  12.856 -0.3661  0.6369 -0.8263
 2937TIP3   OH230225   0.146   4.399  16.918  0.5406 -0.5048  0.1440
 2937TIP3    H130226   0.094   4.409  16.839  0.8647 -0.7330 -0.0991
 2937TIP3    H230227   0.216   4.338  16.894  1.5591  0.6192  0.1516
 2938TIP3   OH230228   2.024   5.352   2.184  0.9711 -1.0472 -0.3203
 2938TIP3    H130229   2.116   5.338   2.161  1.1384  0.0196 -0.3320
 2938TIP3    H230230   1.980   5.367   2.100  1.1968  0.6578 -0.1721
 2939TIP3   OH230231   2.266   1.341   1.545  0.4281 -0.2595  0.3007
 2939TIP3    H130232   2.177   1.344   1.580 -0.0620  0.3559 -0.9379
 2939TIP3    H230233   2.270   1.259   1.497  0.5202 -0.2750  0.3348
 2940TIP3   OH230234   2.449   1.108   5.447  0.7660 -0.4143 -0.3338
 2940TIP3    H130235   2.474   1.066   5.530  0.0526  1.5340  0.9282
 2940TIP3    H230236   2.506   1.067   5.382  0.3636 -3.0435  0.8371
 2941TIP3   OH230237   1.381   0.472  13.964 -0.3233  0.1152 -0.6374
 2941TIP3    H130238   1.301   0.445  14.011 -0.3600  1.0107 -0.1603
 2941TIP3    H230239   1.394   0.563  13.990  1.3875 -0.2868  0.0434
 2942TIP3   OH230240   0.516   6.503   5.540  0.1931 -0.2860  0.2122
 2942TIP3    H130241   0.513   6.415   5.577 -0.0487 -0.4251 -0.1374
 2942TIP3    H230242   0.501   6.490   5.446 -0.1616  0.1587  0.2067
 2943TIP3   OH230243   4.432   5.650   0.742 -0.0344 -0.5118  0.0433
 2943TIP3    H130244   4.343   5.665   0.774 -0.4393 -1.3467 -0.6657
 2943TIP3    H230245   4.421   5.592   0.666  1.1270 -0.7795  0.0658
 2944TIP3   OH230246   1.719   6.221   3.928 -0.2583 -0.2920 -0.0537
 2944TIP3    H130247   1.713   6.150   3.864  1.4256 -0.3456 -0.2116
 2944TIP3    H230248   1.666   6.191   4.003  0.7994 -1.9683  0.0843
 2945TIP3   OH230249   1.125   2.135   1.627 -0.3951  0.4574 -0.0581
 2945TIP3    H130250   1.188   2.083   1.676  0.9924  3.3277  1.4500
 2945TIP3    H230251   1.179   2.195   1.574 -1.8478  1.4745 -0.4593
 2946TIP3   OH230252   3.913   3.855   4.940 -0.1046 -0.2181  0.5699
 2946TIP3    H130253   3.890   3.805   5.018 -1.4385 -0.2355  0.1834
 2946TIP3    H230254   3.874   3.807   4.868  0.5733  0.1439 -0.0521
 2947TIP3   OH230255   3.454   1.173   4.391  0.0230  0.5185  0.0555
 2947TIP3    H130256   3.467   1.078   4.396  1.1751  0.6110 -0.8516
 2947TIP3    H230257   3.411   1.187   4.307 -1.6860  0.6765  0.9109
 2948TIP3   OH230258   6.418   4.904  16.720 -0.4686  0.0287 -0.1618
 2948TIP3    H130259   6.362   4.882  16.646 -0.3189 -2.4039  0.3584
 2948TIP3    H230260   6.358   4.917  16.793 -0.4813 -0.1244 -0.1451
 2949TIP3   OH230261   5.148   1.834  13.670  0.6074 -0.3603 -0.0358
 2949TIP3    H130262   5.095   1.799  13.741  1.3646  3.1119  2.4428
 2949TIP3    H230263   5.092   1.898  13.626  0.2979 -2.1412 -2.4631
 2950TIP3   OH230264   3.070   1.764  17.136 -0.1693  0.3027 -0.3923
 2950TIP3    H130265   3.115   1.836  17.091  1.3871 -1.0253 -1.0871
 2950TIP3    H230266   3.068   1.790  17.228 -0.0035  1.4021 -0.6876
 2951TIP3   OH230267   0.228   2.542   1.390 -0.6381 -0.1702 -0.3640
 2951TIP3    H130268   0.204   2.475   1.455 -0.5690 -0.0932 -0.2580
 2951TIP3    H230269   0.149   2.595   1.381 -0.8435 -0.5486 -0.7988
 2952TIP3   OH230270   5.558   3.889  13.512 -1.1024 -0.2432 -0.5362
 2952TIP3    H130271   5.607   3.836  13.449  1.3057  3.5137 -2.2412
 2952TIP3    H230272   5.477   3.911  13.466 -0.1466  1.0068 -1.7341
 2953TIP3   OH230273   6.128   4.603   3.095  0.4179  0.3325  0.5789
 2953TIP3    H130274   6.197   4.588   3.030 -2.0259 -0.8911 -1.9733
 2953TIP3    H230275   6.139   4.534   3.160  1.3946 -0.0193  0.0472
 2954TIP3   OH230276   4.405   3.224  12.066  0.2959 -0.5421  0.2757
 2954TIP3    H130277   4.495   3.221  12.098  0.9501 -1.5854 -1.5310
 2954TIP3    H230278   4.408   3.180  11.981 -1.6632  0.6014 -0.4525
 2955TIP3   OH230279   4.330   6.618   0.014 -0.1318  0.4996  0.1113
 2955TIP3    H130280   4.241   6.585   0.003  0.2044 -1.0217  1.4851
 2955TIP3    H230281   4.385   6.551  -0.027  0.4162  1.4230 -0.7193
 2956TIP3   OH230282   0.732   0.178  12.779 -0.0717 -0.2740 -0.2250
 2956TIP3    H130283   0.801   0.146  12.720  1.3985  2.9566 -0.4472
 2956TIP3    H230284   0.759   0.149  12.866 -0.9278 -2.9078 -0.7463
 2957TIP3   OH230285   4.154   4.678  16.126  0.4937 -0.7810 -0.3796
 2957TIP3    H130286   4.116   4.604  16.173 -0.7305  1.5097  2.6691
 2957TIP3    H230287   4.086   4.704  16.064 -0.4475 -0.4148  0.7491
 2958TIP3   OH230288   6.682   0.862  12.560  0.2000  0.6592 -0.9075
 2958TIP3    H130289   6.691   0.906  12.645  0.0098 -0.5215 -0.2450
 2958TIP3    H230290   6.770   0.864  12.522  0.4991  0.3996 -0.2555
 2959TIP3   OH230291   4.317   1.567  16.283 -0.3237 -0.5070  0.3934
 2959TIP3    H130292   4.306   1.485  16.333 -1.1622  0.8017  2.4772
 2959TIP3    H230293   4.231   1.582  16.244 -0.3451 -0.3171  0.5138
 2960TIP3   OH230294   3.429   0.532  15.265 -0.5221  0.0256  0.1229
 2960TIP3    H130295   3.489   0.466  15.232  0.6405  0.5370  1.1784
 2960TIP3    H230296   3.413   0.589  15.189  1.4861  0.7215  0.1690
 2961TIP3   OH230297   4.448   0.389   2.148 -0.2102  0.3493 -0.1087
 2961TIP3    H130298   4.486   0.411   2.233 -2.5001  1.0046  0.8284
 2961TIP3    H230299   4.385   0.459   2.131 -1.2461 -0.8220 -1.3817
 2962TIP3   OH230300   3.320   5.155   5.236  0.2451  0.5434 -1.0319
 2962TIP3    H130301   3.333   5.169   5.330  0.8235 -0.7755 -0.8834
 2962TIP3    H230302   3.226   5.139   5.227  0.0662  1.4195 -0.7990
 2963TIP3   OH230303   5.075   4.753  10.857  0.0699 -0.8741 -0.3837
 2963TIP3    H130304   5.045   4.708  10.936  0.5221 -0.3063  0.1219
 2963TIP3    H230305   5.085   4.683  10.793 -2.8238 -1.0582 -0.7800
 2964TIP3   OH230306   3.001   5.730   5.283 -0.7632  0.9013  0.3182
 2964TIP3    H130307   3.028   5.684   5.362 -0.5481  0.3508 -0.0731
 2964TIP3    H230308   2.926   5.681   5.250 -0.3045  0.6018 -0.3039
 2965TIP3   OH230309   0.818   3.194  14.968  0.0064 -0.2416  0.6472
 2965TIP3    H130310   0.901   3.158  15.000 -0.6575 -1.1483  1.4320
 2965TIP3    H230311   0.781   3.124  14.914  0.0979  0.4489 -0.3345
 2966TIP3   OH230312   4.185   6.328  14.450 -0.6808 -0.2769 -0.3293
 2966TIP3    H130313   4.223   6.404  14.495 -1.9208  0.9225 -1.2226
 2966TIP3    H230314   4.240   6.255  14.477 -0.0179  0.7670  1.3284
 2967TIP3   OH230315   3.774   2.589  16.124 -0.5909 -0.1837 -0.0726
 2967TIP3    H130316   3.787   2.495  16.129 -1.3558 -0.2228  2.1058
 2967TIP3    H230317   3.680   2.602  16.138 -0.5122  0.8904 -0.4371
 2968TIP3   OH230318   3.451   5.939   1.415 -0.8689  0.4789  0.2007
 2968TIP3    H130319   3.489   6.025   1.438 -0.1271 -0.0583  1.0516
 2968TIP3    H230320   3.486   5.921   1.328  1.6406 -0.3938  1.2937
 2969TIP3   OH230321   5.672   2.473   2.681  0.6437 -0.6751 -0.0023
 2969TIP3    H130322   5.590   2.504   2.643  0.1132 -1.6573  0.3005
 2969TIP3    H230323   5.650   2.456   2.773  1.2743 -0.6261  0.1574
 2970TIP3   OH230324   0.361   1.286   1.313 -0.0938 -0.0166  0.0261
 2970TIP3    H130325   0.331   1.199   1.287 -0.0590 -0.0279  0.0235
 2970TIP3    H230326   0.453   1.273   1.337  0.1973  0.2033 -0.9190
 2971TIP3   OH230327   6.518   3.653  12.363 -0.4402 -0.4179  0.7268
 2971TIP3    H130328   6.430   3.639  12.327 -0.1901 -0.5678  0.1628
 2971TIP3    H230329   6.507   3.643  12.458 -1.0542 -0.3099  0.6729
 2972TIP3   OH230330   4.804   0.985   2.274 -0.1264  0.2066  0.1945
 2972TIP3    H130331   4.873   1.049   2.290 -0.2572  0.7350 -1.1874
 2972TIP3    H230332   4.845   0.901   2.292  0.2008  0.6338  1.5432
 2973TIP3   OH230333   0.892   3.358  17.234  0.4970  0.3949  0.0176
 2973TIP3    H130334   0.896   3.271  17.274  1.4155  0.4934  0.1751
 2973TIP3    H230335   0.814   3.356  17.179 -0.5280  0.0946  1.4276
 2974TIP3   OH230336   6.749   0.418  16.476 -0.3617  0.8091  0.6533
 2974TIP3    H130337   6.654   0.409  16.469 -0.6214  3.2652  0.1496
 2974TIP3    H230338   6.781   0.402  16.387 -0.1021 -1.2335  1.0504
 2975TIP3   OH230339   0.146   4.521  14.037 -0.1877 -0.8949 -0.5309
 2975TIP3    H130340   0.199   4.596  14.009 -0.4458 -0.0430  1.1566
 2975TIP3    H230341   0.062   4.559  14.061 -0.3726 -1.7540  0.1885
 2976TIP3   OH230342   1.672   3.755   5.757 -0.1904 -0.2394  0.0302
 2976TIP3    H130343   1.658   3.754   5.851 -0.6366 -1.5433 -0.0312
 2976TIP3    H230344   1.682   3.847   5.735  1.0657  0.0111  1.5094
 2977TIP3   OH230345   3.676   4.011  16.790 -0.7059  0.5813 -0.1070
 2977TIP3    H130346   3.722   4.088  16.822 -0.7031  0.1607  0.9520
 2977TIP3    H230347   3.726   3.937  16.825 -1.2194  0.1070 -0.3560
 2978TIP3   OH230348   3.168   0.004   5.396 -0.2675  0.5683 -0.2375
 2978TIP3    H130349   3.177   0.098   5.408 -0.8108  0.5632  0.3285
 2978TIP3    H230350   3.251  -0.032   5.427  0.3222  0.9174 -1.3796
 2979TIP3   OH230351   6.712   1.437  16.639 -0.1204 -0.5133 -0.8877
 2979TIP3    H130352   6.654   1.374  16.596  1.7506 -2.1767 -1.0926
 2979TIP3    H230353   6.744   1.391  16.717  1.0326  0.2792 -0.8709
 2980TIP3   OH230354   1.606   5.120   1.663  0.3723  0.0313  0.7899
 2980TIP3    H130355   1.588   5.213   1.674  0.4933  0.2770 -0.9021
 2980TIP3    H230356   1.520   5.080   1.647  0.1797 -0.3488  2.4997
 2981TIP3   OH230357   4.537   2.756   2.629 -0.2128 -0.1267 -0.1666
 2981TIP3    H130358   4.624   2.764   2.590  0.1393  0.8528  0.7771
 2981TIP3    H230359   4.495   2.840   2.612  0.3415  0.7680  2.3708
 2982TIP3   OH230360   4.705   1.376  17.316 -0.3156  0.6604  0.0301
 2982TIP3    H130361   4.782   1.365  17.259  0.0485  3.7801 -0.2409
 2982TIP3    H230362   4.735   1.435  17.385 -1.1451 -1.9492  2.8134
 2983TIP3   OH230363   1.580   6.547  10.775  0.5344 -0.0095 -0.0489
 2983TIP3    H130364   1.543   6.473  10.823 -0.0267  1.3936  1.8031
 2983TIP3    H230365   1.672   6.549  10.802 -0.0441  1.4882  2.0403
 2984TIP3   OH230366   3.979   3.236   6.879  0.2544  0.0098 -0.5993
 2984TIP3    H130367   3.948   3.165   6.823  1.7730 -0.2942 -1.1070
 2984TIP3    H230368   4.005   3.305   6.817 -0.3782  0.6635 -0.1515
 2985TIP3   OH230369   1.085   0.849   1.549 -0.0268  0.0861  0.0935
 2985TIP3    H130370   1.105   0.855   1.456  0.5414  0.2226  0.2207
 2985TIP3    H230371   1.170   0.858   1.593 -0.3414  0.4458  0.6413
 2986TIP3   OH230372   5.628   3.545  16.917  0.2905 -0.2991 -0.2238
 2986TIP3    H130373   5.694   3.614  16.913  0.9014 -0.8439  0.0780
 2986TIP3    H230374   5.668   3.478  16.973 -1.5490  0.4591  2.1797
 2987TIP3   OH230375   5.931   2.477   4.906 -0.3023  0.3062  0.1981
 2987TIP3    H130376   5.940   2.552   4.965  0.9211  0.0172  0.3894
 2987TIP3    H230377   5.861   2.424   4.945 -0.3088  0.7050  0.7409
 2988TIP3   OH230378   5.036   0.561  15.213  0.0882 -0.5877 -0.6064
 2988TIP3    H130379   5.116   0.534  15.258 -0.1446 -0.4136 -0.0767
 2988TIP3    H230380   5.012   0.486  15.160  0.7656 -0.5345 -1.0033
 2989TIP3   OH230381   5.263   5.107   4.076 -0.1485 -0.7755 -0.1111
 2989TIP3    H130382   5.195   5.172   4.096  0.2846 -0.2959 -0.1727
 2989TIP3    H230383   5.295   5.080   4.162  1.0811  0.6147 -0.0929
 2990TIP3   OH230384   3.362   5.054  17.077 -0.2211  0.1394  0.2641
 2990TIP3    H130385   3.298   5.027  17.144 -1.5434 -1.0521 -1.3774
 2990TIP3    H230386   3.320   5.031  16.994  1.6246  0.9962 -0.9688
 2991TIP3   OH230387   3.132   4.163  14.899 -0.3293  0.2356 -0.1261
 2991TIP3    H130388   3.072   4.165  14.973 -0.5368 -0.5916 -0.2583
 2991TIP3    H230389   3.076   4.152  14.823 -0.0916  0.7345 -0.3752
 2992TIP3   OH230390   4.442   5.695   1.091 -0.6042 -0.3224  0.3200
 2992TIP3    H130391   4.432   5.613   1.140  0.2980  0.1562  1.3541
 2992TIP3    H230392   4.441   5.764   1.158 -0.3926  0.4348 -0.4357
 2993TIP3   OH230393   5.947   1.375   5.068  1.0432  0.3976  0.2609
 2993TIP3    H130394   5.924   1.282   5.058  2.5981  0.0989 -0.8130
 2993TIP3    H230395   6.033   1.374   5.109  0.7937  1.4093  0.8387
 2994TIP3   OH230396   5.201   2.610   5.813  0.2062  0.1941 -0.3720
 2994TIP3    H130397   5.189   2.613   5.908  1.0185 -0.3497 -0.2398
 2994TIP3    H230398   5.169   2.524   5.787 -0.1884  0.4157 -0.6154
 2995TIP3   OH230399   1.441   2.831   0.377  0.4003 -0.1085  0.0678
 2995TIP3    H130400   1.387   2.901   0.411  1.0032  1.2405 -1.5817
 2995TIP3    H230401   1.400   2.807   0.294  0.0131 -1.9881  0.7457
 2996TIP3   OH230402   6.187   3.865   2.809 -0.7384  0.4345 -0.1261
 2996TIP3    H130403   6.180   3.950   2.851  0.0839  0.0524  0.8255
 2996TIP3    H230404   6.128   3.870   2.734 -0.1036  2.1102 -0.5479
 2997TIP3   OH230405   2.235   1.446   2.313  0.1557  0.1830  0.3488
 2997TIP3    H130406   2.205   1.480   2.397 -1.0658 -0.1178  0.0466
 2997TIP3    H230407   2.195   1.504   2.248 -0.3385 -0.6274 -0.0893
 2998TIP3   OH230408   2.997   1.915   5.592 -0.4354  0.1945 -0.7677
 2998TIP3    H130409   2.943   1.986   5.555 -1.2620 -0.3122 -0.5733
 2998TIP3    H230410   3.084   1.931   5.557 -0.4076  1.7885 -0.0751
 2999TIP3   OH230411   2.487   1.608  12.234  0.8275  0.0771 -0.5098
 2999TIP3    H130412   2.397   1.620  12.205 -0.5430 -1.4811  2.7032
 2999TIP3    H230413   2.518   1.697  12.254 -1.3077  0.3828  1.7860
 3000TIP3   OH230414   0.063   6.712  16.137  0.5112 -0.4516 -0.2010
 3000TIP3    H130415  -0.001   6.660  16.087  0.4749  0.0801 -0.7189
 3000TIP3    H230416   0.013   6.747  16.211  0.2793 -0.3117 -0.4207
 3001TIP3   OH230417   6.148   4.006  16.341  0.6091 -0.8436 -0.2908
 3001TIP3    H130418   6.100   3.935  16.298  0.5675 -0.8195 -0.2841
 3001TIP3    H230419   6.233   4.006  16.298 -0.5883  1.5492 -2.9590
 3002TIP3   OH230420   3.662   4.521   1.998  0.2784 -0.2805 -0.3177
 3002TIP3    H130421   3.665   4.591   2.064  0.1964 -1.4654  0.9980
 3002TIP3    H230422   3.747   4.524   1.955 -0.0992  1.2886 -1.0338
 3003TIP3   OH230423   4.735   1.404  12.606  0.2445 -0.1657  0.0638
 3003TIP3    H130424   4.726   1.473  12.540  0.2440 -0.3914 -0.1694
 3003TIP3    H230425   4.652   1.357  12.604 -0.0042  0.2238  0.6771
 3004TIP3   OH230426   2.641   5.001  16.956  0.1033 -0.0070 -0.3697
 3004TIP3    H130427   2.701   4.959  16.895 -0.2580 -0.5365 -0.3647
 3004TIP3    H230428   2.698   5.037  17.024  0.6588  1.9892 -1.8015
 3005TIP3   OH230429   2.159   2.928   3.859  0.1127  0.4501  0.5010
 3005TIP3    H130430   2.072   2.895   3.835  0.2087  0.5362  0.0309
 3005TIP3    H230431   2.182   2.879   3.938 -0.7300  1.0327  1.1369
 3006TIP3   OH230432   3.363   5.153   0.951  0.2784  0.2014 -0.1647
 3006TIP3    H130433   3.428   5.091   0.984 -0.0951 -0.9208 -1.4355
 3006TIP3    H230434   3.302   5.165   1.024  0.4899 -0.7547  0.1880
 3007TIP3   OH230435   4.650   3.463  12.682 -0.3412  0.1279 -0.2504
 3007TIP3    H130436   4.658   3.387  12.624  0.5608 -0.5819  0.7606
 3007TIP3    H230437   4.648   3.538  12.622  0.4470 -0.5860 -1.2203
 3008TIP3   OH230438   0.386   0.095   0.508 -0.5151  0.6065 -0.2136
 3008TIP3    H130439   0.457   0.111   0.445 -1.2313  0.9897 -0.9481
 3008TIP3    H230440   0.424   0.118   0.593  0.5263 -0.0831 -0.4703
 3009TIP3   OH230441   3.156   1.763   0.622 -0.3254 -0.2321  0.1744
 3009TIP3    H130442   3.113   1.682   0.592  0.6515 -0.6272 -0.1881
 3009TIP3    H230443   3.163   1.752   0.717 -0.3261 -0.5054  0.1436
 3010TIP3   OH230444   0.813   0.581   3.873 -0.4473  0.2493 -0.2745
 3010TIP3    H130445   0.886   0.573   3.813  0.3914  1.0952  0.5975
 3010TIP3    H230446   0.747   0.630   3.825  0.7964  2.2508 -0.0467
 3011TIP3   OH230447   6.531   4.843   1.303  0.4971 -0.1202 -0.3087
 3011TIP3    H130448   6.531   4.928   1.348 -0.3679 -0.8075  1.0478
 3011TIP3    H230449   6.463   4.853   1.236  0.9945  0.5295 -0.7327
 3012TIP3   OH230450   4.226   1.165   0.079 -0.0441  0.6983 -0.1174
 3012TIP3    H130451   4.283   1.091   0.057 -0.7394  0.0756  0.1046
 3012TIP3    H230452   4.285   1.240   0.087  0.4454  0.6517 -2.5298
 3013TIP3   OH230453   0.939   6.198   6.116  0.3069  0.3243  0.4842
 3013TIP3    H130454   0.935   6.132   6.047 -0.5328  1.5057 -0.6357
 3013TIP3    H230455   1.030   6.197   6.145  1.0129  0.7128 -1.5753
 3014TIP3   OH230456   4.087   0.052  13.017  0.6845 -0.2500  0.3513
 3014TIP3    H130457   3.993   0.069  13.022  0.6601  0.0621 -0.8263
 3014TIP3    H230458   4.126   0.111  13.081  0.0669 -0.5978  1.0655
 3015TIP3   OH230459   2.406   5.046   5.595  0.3446 -0.2110 -0.0594
 3015TIP3    H130460   2.488   5.032   5.644  0.2450  0.2231  0.2375
 3015TIP3    H230461   2.356   4.965   5.608  0.8897 -0.6406 -0.5704
 3016TIP3   OH230462   0.979   6.400   4.487 -0.5483  0.0205 -0.8476
 3016TIP3    H130463   0.909   6.404   4.422 -1.6189  0.5120  0.2790
 3016TIP3    H230464   0.937   6.428   4.568  1.0373  0.6204 -0.1889
 3017TIP3   OH230465   6.490   1.034  16.392 -0.3327 -0.0431  0.6294
 3017TIP3    H130466   6.530   0.958  16.435  1.5361  0.5255 -0.0168
 3017TIP3    H230467   6.515   1.109  16.446 -2.8902  0.0949  1.7471
 3018TIP3   OH230468   1.364   0.020  15.538  0.1412 -0.3539  0.3065
 3018TIP3    H130469   1.402  -0.021  15.461 -2.5703  0.9472 -1.8863
 3018TIP3    H230470   1.307  -0.046  15.577 -0.6394 -0.1660 -0.4932
 3019TIP3   OH230471   3.289   6.229   3.411 -0.3841  0.2888 -0.4867
 3019TIP3    H130472   3.367   6.283   3.413  1.3985 -2.1569  0.1130
 3019TIP3    H230473   3.297   6.179   3.330  0.1015 -1.8962  0.8505
 3020TIP3   OH230474   2.531   2.153   5.155 -0.3655 -0.2864 -0.2084
 3020TIP3    H130475   2.583   2.165   5.076  0.8252 -0.0537  0.5802
 3020TIP3    H230476   2.461   2.094   5.129  0.1124 -0.3587 -1.3873
 3021TIP3   OH230477   2.573   5.117  14.465 -0.5262  0.0979 -0.2320
 3021TIP3    H130478   2.625   5.184  14.421 -3.0600  0.7555 -2.5117
 3021TIP3    H230479   2.557   5.153  14.553  0.3710  1.2175 -0.5012
 3022TIP3   OH230480   6.679   1.812  10.572  0.4715  0.8957  0.3569
 3022TIP3    H130481   6.728   1.807  10.654  0.8175  2.1409  0.2471
 3022TIP3    H230482   6.700   1.898  10.536 -0.1495  0.6147 -0.7472
 3023TIP3   OH230483   3.170   4.057  15.438  0.2158  0.5329 -0.1154
 3023TIP3    H130484   3.264   4.067  15.428  1.0204 -0.2799  4.5356
 3023TIP3    H230485   3.155   3.962  15.437 -0.2704  0.5880  0.9028
 3024TIP3   OH230486   4.805   0.794   4.060  0.6608  0.2615 -0.0034
 3024TIP3    H130487   4.787   0.727   4.126  0.2636  1.5853  1.2843
 3024TIP3    H230488   4.875   0.847   4.098  1.2121  0.3902 -1.1552
 3025TIP3   OH230489   3.114   4.298   2.016  0.3114  0.2917 -0.0142
 3025TIP3    H130490   3.040   4.250   1.978 -1.8652  0.8287  3.0683
 3025TIP3    H230491   3.119   4.379   1.966 -1.2704  0.2516 -0.2819
 3026TIP3   OH230492   4.087   4.710   0.094  0.1309 -0.0149  0.6489
 3026TIP3    H130493   4.080   4.743   0.184 -0.0978  2.7954 -0.2851
 3026TIP3    H230494   4.002   4.669   0.078  0.8187 -2.2621  2.2356
 3027TIP3   OH230495   5.423   3.077   5.603  0.0064  0.2323 -0.0091
 3027TIP3    H130496   5.380   2.997   5.634 -1.0017  1.1043  0.9348
 3027TIP3    H230497   5.362   3.147   5.624  1.0026  1.2990 -0.5404
 3028TIP3   OH230498   2.147   1.635  14.580 -0.2848  0.1758  0.1571
 3028TIP3    H130499   2.062   1.654  14.621  0.5972 -0.4502  2.4077
 3028TIP3    H230500   2.171   1.549  14.613  1.4947  0.5839  0.0094
 3029TIP3   OH230501   1.221   1.060   5.892 -0.3438 -0.4735  0.8172
 3029TIP3    H130502   1.243   1.142   5.847 -0.3084 -0.7521  0.3210
 3029TIP3    H230503   1.143   1.081   5.942 -1.3763 -0.5840 -0.6688
 3030TIP3   OH230504   3.209   4.927  12.564 -0.0390  0.1568  0.7137
 3030TIP3    H130505   3.163   4.951  12.645 -1.1925  1.1159 -0.1773
 3030TIP3    H230506   3.302   4.935  12.586 -0.3368  1.5131  1.6381
 3031TIP3   OH230507   5.908   3.397   3.165 -0.6022 -0.2640  0.5605
 3031TIP3    H130508   5.867   3.483   3.155 -0.4873 -0.3069 -0.3436
 3031TIP3    H230509   5.864   3.358   3.241 -1.2164  0.2695  0.4822
 3032TIP3   OH230510   0.476   3.946   3.343  0.1961  0.3017 -0.3745
 3032TIP3    H130511   0.461   3.862   3.387 -0.7658  0.5722 -0.1574
 3032TIP3    H230512   0.533   3.925   3.269 -0.0339 -0.5389 -0.3209
 3033TIP3   OH230513   3.311   1.129  11.156  0.3578 -1.1154  0.4669
 3033TIP3    H130514   3.301   1.157  11.065  0.8912  0.4563  0.8677
 3033TIP3    H230515   3.399   1.090  11.159 -0.3324 -2.7921 -0.0597
 3034TIP3   OH230516   4.949   1.461   1.520 -0.5205  0.3618 -0.4499
 3034TIP3    H130517   4.898   1.519   1.578 -1.2622 -0.1290 -0.5900
 3034TIP3    H230518   4.908   1.472   1.434 -0.5877 -0.2691 -0.5018
 3035TIP3   OH230519   3.544   4.834   0.046 -0.1655 -0.0566  0.2294
 3035TIP3    H130520   3.495   4.758   0.078  1.7681 -1.5215 -0.0460
 3035TIP3    H230521   3.526   4.903   0.109 -2.5996 -0.4525  0.0760
 3036TIP3   OH230522   5.536   2.601  14.623  0.4844 -0.1776  0.2545
 3036TIP3    H130523   5.561   2.596  14.531  1.4122  0.2489  0.4678
 3036TIP3    H230524   5.483   2.522  14.638  1.0228 -0.6840 -0.4352
 3037TIP3   OH230525   4.025   3.024   4.449  0.5165  0.3875 -0.1032
 3037TIP3    H130526   4.114   3.058   4.450  0.6397  0.0640  0.0429
 3037TIP3    H230527   4.032   2.939   4.406 -0.3042  1.9124 -3.5895
 3038TIP3   OH230528   2.624   5.026   1.382  0.0306 -0.1842  0.0346
 3038TIP3    H130529   2.540   4.989   1.410 -0.2527  1.2036  1.0760
 3038TIP3    H230530   2.671   5.042   1.463  0.6785  0.5054 -0.4694
 3039TIP3   OH230531   3.254   1.141   0.076  0.3802 -0.8104 -0.1139
 3039TIP3    H130532   3.349   1.130   0.078  0.5030 -0.0085 -1.0163
 3039TIP3    H230533   3.234   1.165  -0.014 -0.7206 -1.2535 -0.0051
 3040TIP3   OH230534   2.365   0.314   5.359 -0.0830 -0.5361  0.3382
 3040TIP3    H130535   2.457   0.342   5.367 -0.0315 -0.8858  1.0512
 3040TIP3    H230536   2.315   0.390   5.390 -0.0488 -0.2647 -0.2564
 3041TIP3   OH230537   3.251   1.243  12.004  0.4850  0.0568 -0.6668
 3041TIP3    H130538   3.211   1.209  12.084 -0.0665  0.5740 -0.7123
 3041TIP3    H230539   3.344   1.252  12.025  0.1469  1.4691  0.3874
 3042TIP3   OH230540   2.634   4.996  10.842  0.0003 -0.3041  0.2794
 3042TIP3    H130541   2.626   4.940  10.766 -1.0158 -0.7450  0.6875
 3042TIP3    H230542   2.723   4.980  10.875  0.7022  0.4018 -1.1730
 3043TIP3   OH230543   6.606   4.783   3.412  0.4403 -0.6993  0.3408
 3043TIP3    H130544   6.635   4.874   3.421  0.8100 -0.7719 -0.0975
 3043TIP3    H230545   6.663   4.746   3.344 -0.1356 -1.0731  0.0489
 3044TIP3   OH230546   3.342   1.214  11.661  0.0482 -0.0044  0.1686
 3044TIP3    H130547   3.427   1.256  11.662  1.2470 -2.2787 -0.0818
 3044TIP3    H230548   3.350   1.142  11.725 -1.8239 -0.0138  0.4528
 3045TIP3   OH230549   2.248   3.795  11.603 -0.4226  0.2787 -0.2598
 3045TIP3    H130550   2.307   3.790  11.527 -0.5822  1.2082 -0.4541
 3045TIP3    H230551   2.253   3.708  11.643  1.0691  0.3225 -0.2878
 3046TIP3   OH230552   1.859   2.529   1.896  0.2395  0.4730 -0.2778
 3046TIP3    H130553   1.881   2.560   1.984 -0.9537  1.2352 -0.2152
 3046TIP3    H230554   1.943   2.512   1.854  0.8443  0.8678  0.7442
 3047TIP3   OH230555   4.543   2.609   6.505  0.2128  0.2354 -0.0725
 3047TIP3    H130556   4.576   2.678   6.447 -1.8720  0.8185 -0.6605
 3047TIP3    H230557   4.448   2.617   6.499 -0.0947 -2.5474  0.0653
 3048TIP3   OH230558   6.031   0.177   3.069  0.1950  0.0184  0.6725
 3048TIP3    H130559   5.961   0.180   3.133  0.3183  0.2309  0.7958
 3048TIP3    H230560   6.060   0.267   3.059  0.3185 -0.0409  0.4760
 3049TIP3   OH230561   4.233   2.190  11.016  0.3179 -0.1725 -0.0062
 3049TIP3    H130562   4.224   2.280  11.050 -0.6558 -0.5186  0.7044
 3049TIP3    H230563   4.149   2.149  11.035  0.8854 -1.3612  0.0175
 3050TIP3   OH230564   6.062   5.457  12.791  0.0779 -0.5441 -0.0107
 3050TIP3    H130565   6.043   5.368  12.819 -2.9959 -0.1001 -0.2984
 3050TIP3    H230566   6.065   5.453  12.696  0.0423 -0.3409 -0.0220
 3051TIP3   OH230567   4.266   3.785  17.330  0.3323 -0.0476  0.3022
 3051TIP3    H130568   4.265   3.771  17.235  0.4091 -0.9269  0.4185
 3051TIP3    H230569   4.220   3.867  17.343  0.4827  0.1770 -0.5146
 3052TIP3   OH230570   3.733   0.723   6.173  0.1514  0.0858 -0.2114
 3052TIP3    H130571   3.654   0.674   6.195 -0.2732  0.4507 -0.8614
 3052TIP3    H230572   3.711   0.768   6.091 -0.0253  2.5609  1.1027
 3053TIP3   OH230573   4.018   4.372  13.893  0.0819 -0.1082 -1.4279
 3053TIP3    H130574   4.064   4.456  13.898  0.1297 -0.0737 -2.2592
 3053TIP3    H230575   3.939   4.385  13.944  0.2425  0.3409 -1.2875
 3054TIP3   OH230576   4.256   5.384  11.458 -0.4001 -0.0503 -0.7415
 3054TIP3    H130577   4.172   5.337  11.463 -0.3267 -0.4012 -2.3333
 3054TIP3    H230578   4.231   5.474  11.438 -0.4011 -0.1736 -1.3058
 3055TIP3   OH230579   1.137   6.617   4.218  0.9907  0.0441  0.2098
 3055TIP3    H130580   1.230   6.633   4.233  0.7795  0.8998  0.7022
 3055TIP3    H230581   1.134   6.537   4.166  1.9488 -0.6412  1.1732
 3056TIP3   OH230582   1.333   4.483   2.618 -0.6129  0.0168 -0.3712
 3056TIP3    H130583   1.319   4.403   2.567  0.4023  0.0445 -0.7019
 3056TIP3    H230584   1.344   4.552   2.553 -1.4041  0.4330 -0.0858
 3057TIP3   OH230585   6.369   2.737   2.232 -0.1841 -0.1727 -0.2576
 3057TIP3    H130586   6.413   2.674   2.175  1.3193  0.2212  0.4479
 3057TIP3    H230587   6.401   2.822   2.203 -1.7276  0.2705 -0.7857
 3058TIP3   OH230588   2.601   0.623   1.057  0.4853  0.5829 -0.4915
 3058TIP3    H130589   2.583   0.569   1.133 -1.1882  2.6392  0.6807
 3058TIP3    H230590   2.691   0.602   1.033  0.3522 -1.6435  0.7206
 3059TIP3   OH230591   4.685   2.717  17.033 -0.2620 -0.2993 -0.5912
 3059TIP3    H130592   4.751   2.656  16.999 -0.1058 -0.3456 -0.2017
 3059TIP3    H230593   4.620   2.662  17.075  1.1850 -0.1011  2.1055
 3060TIP3   OH230594   5.185   2.877  11.246 -0.3536 -0.5916  0.0766
 3060TIP3    H130595   5.144   2.847  11.165  0.2052 -1.2398  0.0251
 3060TIP3    H230596   5.171   2.806  11.308 -1.4950  0.2439  0.8025
 3061TIP3   OH230597   2.469   2.048  16.860  0.9452  0.2726  0.7283
 3061TIP3    H130598   2.428   2.065  16.776 -0.1088 -2.0170  0.7168
 3061TIP3    H230599   2.554   2.092  16.854  0.8238  0.3126 -1.4514
 3062TIP3   OH230600   6.645   2.323  12.483 -0.0696  0.1726  0.1509
 3062TIP3    H130601   6.714   2.378  12.521  0.1059 -1.2421  2.0200
 3062TIP3    H230602   6.689   2.271  12.416  0.8046 -0.9386  1.5403
 3063TIP3   OH230603   0.926   2.586   3.404  0.7393 -0.5604 -0.4011
 3063TIP3    H130604   0.872   2.570   3.327  1.8251  1.7385 -1.7278
 3063TIP3    H230605   0.986   2.510   3.407  1.4912 -0.1313 -2.5867
 3064TIP3   OH230606   4.258   1.187   1.774 -0.5793  0.2315  0.1906
 3064TIP3    H130607   4.320   1.148   1.714 -0.4505 -0.9828  1.0627
 3064TIP3    H230608   4.285   1.156   1.861 -0.7940  1.8678  0.8828
 3065TIP3   OH230609   4.746   3.950   3.901 -0.2033  0.4538 -0.5653
 3065TIP3    H130610   4.810   4.021   3.906 -0.7689  1.1115 -2.2063
 3065TIP3    H230611   4.762   3.899   3.981 -0.3328  2.8467  1.1025
 3066TIP3   OH230612   4.970   4.444   0.523 -0.1872 -0.4196 -0.1433
 3066TIP3    H130613   5.040   4.491   0.568 -0.3524  0.5584 -0.8675
 3066TIP3    H230614   4.994   4.352   0.531  1.7631 -0.0688 -1.2783
 3067TIP3   OH230615   6.532   5.020  10.944 -0.0097  0.3979  0.4945
 3067TIP3    H130616   6.617   5.062  10.952  1.0989 -1.6485  0.2560
 3067TIP3    H230617   6.550   4.927  10.957 -2.0632 -0.2131 -0.5261
 3068TIP3   OH230618   4.831   6.513   4.293 -0.4068 -0.2130  0.2955
 3068TIP3    H130619   4.802   6.591   4.340  0.8894 -0.5515  1.7422
 3068TIP3    H230620   4.751   6.473   4.259 -1.2562  0.7415  1.1193
 3069TIP3   OH230621   1.790   0.368  12.037 -0.1909 -0.5392 -0.6003
 3069TIP3    H130622   1.694   0.360  12.042 -0.1465 -0.2880  1.8447
 3069TIP3    H230623   1.805   0.448  11.986 -1.2845 -0.3428 -0.6374
 3070TIP3   OH230624   3.675   2.569   1.096  0.3583  0.1344  0.2985
 3070TIP3    H130625   3.608   2.628   1.062 -0.5844 -1.4149 -0.6354
 3070TIP3    H230626   3.753   2.588   1.044  0.1825  0.8203  0.2807
 3071TIP3   OH230627   6.527   6.673  16.509 -0.2566  0.1229  0.6594
 3071TIP3    H130628   6.536   6.592  16.560  2.2315  0.8099  1.4358
 3071TIP3    H230629   6.480   6.732  16.567 -1.6343 -0.5661  0.2858
 3072TIP3   OH230630   1.258   1.887  11.145  0.0642  0.3392 -0.2596
 3072TIP3    H130631   1.326   1.838  11.099  1.3382  0.6793  1.1582
 3072TIP3    H230632   1.232   1.955  11.084  0.2868 -0.4025 -1.1996
 3073TIP3   OH230633   4.348   5.134   1.328  0.7608  0.3264 -0.5386
 3073TIP3    H130634   4.279   5.173   1.382  0.2805 -2.1613  0.7582
 3073TIP3    H230635   4.349   5.188   1.249 -0.4690  2.3537  0.7242
 3074TIP3   OH230636   2.053   5.878   2.347 -0.5776 -0.0332 -0.4357
 3074TIP3    H130637   2.030   5.955   2.297 -0.1042  1.4852  1.5591
 3074TIP3    H230638   1.993   5.878   2.422 -2.0798 -2.8949 -1.4657
 3075TIP3   OH230639   1.632   0.623  14.716  0.6027  0.2615 -0.1876
 3075TIP3    H130640   1.713   0.576  14.738  0.6627 -0.5343 -1.9217
 3075TIP3    H230641   1.564   0.576  14.764  1.1293  0.8586  1.1879
 3076TIP3   OH230642   1.752   4.839  11.909 -0.3536  0.1389 -0.1270
 3076TIP3    H130643   1.802   4.894  11.849 -1.0410 -0.6455 -1.4684
 3076TIP3    H230644   1.818   4.797  11.964  0.4382 -0.5509 -1.5743
 3077TIP3   OH230645   4.878   1.393  17.091  0.2187 -0.2088 -0.0845
 3077TIP3    H130646   4.902   1.390  16.999 -2.5896  0.9982 -0.9739
 3077TIP3    H230647   4.837   1.479  17.102 -0.2180 -0.6257  2.1021
 3078TIP3   OH230648   6.616   1.798  14.439 -0.4468  0.0719 -0.3163
 3078TIP3    H130649   6.555   1.786  14.512  1.0163 -0.2436  0.9086
 3078TIP3    H230650   6.640   1.891  14.442 -0.9579  0.2301 -0.8917
 3079TIP3   OH230651   2.949   1.172  15.559  0.1859 -0.0049 -0.4856
 3079TIP3    H130652   2.923   1.144  15.471 -0.4162 -0.2991 -0.2209
 3079TIP3    H230653   2.951   1.091  15.610  2.4296 -0.1130 -0.6679
 3080TIP3   OH230654   0.148   0.415  15.580  0.4503 -0.1641  0.5605
 3080TIP3    H130655   0.067   0.381  15.617 -0.2413  2.1993  1.3258
 3080TIP3    H230656   0.121   0.467  15.505  1.2560  0.6165  0.7987
 3081TIP3   OH230657   3.184   5.828   0.535  0.1417  0.2295 -0.4287
 3081TIP3    H130658   3.172   5.814   0.629 -3.9675 -0.2505 -0.8457
 3081TIP3    H230659   3.196   5.923   0.527 -0.4743  0.4114  0.5431
 3082TIP3   OH230660   1.990   5.818   3.895  0.2880  0.4721  0.1928
 3082TIP3    H130661   2.073   5.844   3.935  0.5695 -0.4959  0.2562
 3082TIP3    H230662   1.991   5.723   3.898  0.5454  0.3136 -2.5865
 3083TIP3   OH230663   1.863   4.787   3.421  0.2213 -0.3715 -0.1357
 3083TIP3    H130664   1.783   4.822   3.382 -0.7778 -1.7543  0.6221
 3083TIP3    H230665   1.928   4.856   3.406 -1.1445  0.8870 -0.5583
 3084TIP3   OH230666   1.311   4.972  14.473  0.3306 -0.3937  0.3033
 3084TIP3    H130667   1.269   4.892  14.443  0.4051  0.0080 -0.9447
 3084TIP3    H230668   1.396   4.943  14.507  1.9716 -0.5783 -3.4673
 3085TIP3   OH230669   5.693   4.540   5.471 -0.1483  0.2597  0.2710
 3085TIP3    H130670   5.742   4.476   5.420 -1.0070 -0.2733  0.0866
 3085TIP3    H230671   5.758   4.604   5.499  0.9418 -1.2253  1.3274
 3086TIP3   OH230672   0.775   5.179  13.525  0.4569  0.4878  0.4237
 3086TIP3    H130673   0.734   5.112  13.470 -2.1097  1.6347  0.7967
 3086TIP3    H230674   0.819   5.237  13.462 -2.9198  2.1075 -0.6797
 3087TIP3   OH230675   1.063   2.975  15.414 -0.9578 -0.4442  0.2105
 3087TIP3    H130676   1.098   2.964  15.502  1.4138  0.5203 -0.5477
 3087TIP3    H230677   1.045   3.069  15.408  1.3696 -0.0280 -1.1420
 3088TIP3   OH230678   4.705   3.760  13.546  0.2570 -0.2453 -0.0725
 3088TIP3    H130679   4.630   3.707  13.519  0.1073 -0.5457  0.9185
 3088TIP3    H230680   4.696   3.769  13.640  1.5568 -0.4297  0.0915
 3089TIP3   OH230681   2.226   6.059   5.481 -0.4106  0.6771 -0.0091
 3089TIP3    H130682   2.260   6.148   5.480 -0.0222  0.5468  0.8514
 3089TIP3    H230683   2.133   6.069   5.496 -0.1924  0.9009  1.2525
 3090TIP3   OH230684   0.331   3.807  16.757  0.7671  0.3897 -0.3074
 3090TIP3    H130685   0.278   3.824  16.834  1.0734 -0.8341  0.1972
 3090TIP3    H230686   0.278   3.837  16.683 -0.1799  0.1298  0.2629
 3091TIP3   OH230687   1.974   5.215   4.050  0.0544  0.0978  0.0266
 3091TIP3    H130688   1.956   5.124   4.072 -0.1273  0.2948  0.7200
 3091TIP3    H230689   1.902   5.241   3.994  0.1547 -0.2107 -0.2468
 3092TIP3   OH230690   1.399   4.320   3.424 -0.8112  0.0170  0.3761
 3092TIP3    H130691   1.404   4.398   3.369  1.6590  0.1853  0.7322
 3092TIP3    H230692   1.347   4.347   3.500 -1.1961  0.8679 -0.1754
 3093TIP3   OH230693   3.995   6.248  14.796  0.5393 -0.0607 -0.4454
 3093TIP3    H130694   4.004   6.341  14.774 -0.9745  0.5022  1.1673
 3093TIP3    H230695   3.902   6.235  14.809  0.7861 -1.7132 -0.1097
 3094TIP3   OH230696   0.822   6.546   5.980  0.1103 -0.0168  0.9116
 3094TIP3    H130697   0.819   6.607   5.906 -0.9512 -1.0217  0.0750
 3094TIP3    H230698   0.757   6.580   6.042 -0.4566 -0.2533  0.4620
 3095TIP3   OH230699   1.843   2.754   0.855  0.4113  0.1863  0.2046
 3095TIP3    H130700   1.827   2.744   0.949 -0.7771  0.2502  0.0204
 3095TIP3    H230701   1.840   2.848   0.839  1.1636  0.2128  0.1867
 3096TIP3   OH230702   0.035   0.728   6.444  0.3459 -0.2369  0.6670
 3096TIP3    H130703   0.127   0.718   6.421  0.3894  0.2707  0.6021
 3096TIP3    H230704   0.013   0.648   6.492  0.7753 -0.4304  0.5441
 3097TIP3   OH230705   3.798   5.956  12.751 -0.0149 -0.2108  0.1046
 3097TIP3    H130706   3.837   5.869  12.741 -1.8111 -1.0638  0.1382
 3097TIP3    H230707   3.725   5.956  12.689 -0.2678  1.1406  0.3874
 3098TIP3   OH230708   5.983   3.033   6.100  0.1951  0.4453 -0.3309
 3098TIP3    H130709   6.044   3.084   6.154 -0.0838  0.3038  0.1231
 3098TIP3    H230710   5.922   2.994   6.163  0.6301 -0.7742 -0.6394
 3099TIP3   OH230711   1.058   3.813  15.003  0.3397 -0.1732  0.5105
 3099TIP3    H130712   1.038   3.905  14.987 -0.3653 -0.4238 -0.1460
 3099TIP3    H230713   0.975   3.768  14.988  1.0477 -1.0984 -0.8342
 3100TIP3   OH230714   2.629   1.609   1.722 -0.0935 -0.5952 -0.1985
 3100TIP3    H130715   2.604   1.701   1.716  0.2355 -0.3216  2.0698
 3100TIP3    H230716   2.548   1.561   1.701 -0.7524  0.2240  0.4195
 3101TIP3   OH230717   2.025   3.853   2.005  0.6049 -0.9080 -0.9556
 3101TIP3    H130718   2.025   3.770   2.053  0.4539 -0.2113  0.2977
 3101TIP3    H230719   2.104   3.897   2.034 -0.6722  0.5387  0.5202
 3102TIP3   OH230720   0.058   4.005  12.099  0.2768  0.1195  0.5034
 3102TIP3    H130721  -0.023   3.974  12.059  1.0055 -0.9432 -0.2272
 3102TIP3    H230722   0.043   4.000  12.193 -1.1209  1.6762  0.4074
 3103TIP3   OH230723   2.434   1.154  11.980 -0.1705 -0.0236  0.3253
 3103TIP3    H130724   2.483   1.137  12.061  0.1330 -0.8088 -0.0059
 3103TIP3    H230725   2.411   1.067  11.948  0.1806  0.2533 -0.7101
 3104TIP3   OH230726   1.752   2.634  11.272 -0.2899  0.0735 -0.6097
 3104TIP3    H130727   1.812   2.658  11.342 -1.4272 -1.5555  1.0255
 3104TIP3    H230728   1.808   2.615  11.197  1.1248 -0.1856  0.4835
 3105TIP3   OH230729   2.768   6.468  15.104  0.0596 -0.0248 -0.5963
 3105TIP3    H130730   2.773   6.517  15.186 -0.0394  0.2654 -0.7641
 3105TIP3    H230731   2.737   6.381  15.130 -0.4677  0.2211 -0.3831
 3106TIP3   OH230732   1.434   5.143  15.051 -0.2198  0.2033 -0.2693
 3106TIP3    H130733   1.504   5.085  15.083  0.2762  1.7073  1.5662
 3106TIP3    H230734   1.477   5.198  14.985  0.1889  0.6794  0.3799
 3107TIP3   OH230735   1.401   3.428   1.384 -0.1898 -0.5228  0.3618
 3107TIP3    H130736   1.390   3.441   1.290 -0.8074  3.0595  0.7863
 3107TIP3    H230737   1.496   3.424   1.397 -0.0590  0.2058 -0.3157
 3108TIP3   OH230738   4.368   1.864   4.751  0.5155  0.6039  0.0632
 3108TIP3    H130739   4.315   1.849   4.829 -0.0452 -0.5705 -0.5262
 3108TIP3    H230740   4.458   1.860   4.782  0.2956  0.3106  0.6793
 3109TIP3   OH230741   1.845   3.127  16.997 -0.5324 -0.3817 -0.1364
 3109TIP3    H130742   1.908   3.198  17.010  0.7162 -1.3082 -0.8751
 3109TIP3    H230743   1.801   3.117  17.082  1.5357 -0.8199  0.9527
 3110TIP3   OH230744   1.685   5.237   4.734  0.2251 -0.3657 -0.1046
 3110TIP3    H130745   1.749   5.251   4.803 -1.0927 -1.3981  1.4093
 3110TIP3    H230746   1.600   5.250   4.777 -0.6524 -1.5659 -1.3885
 3111TIP3   OH230747   5.166   4.538  10.721  0.1246 -0.6312  0.1837
 3111TIP3    H130748   5.260   4.554  10.711  0.3437 -1.2872  1.1435
 3111TIP3    H230749   5.154   4.449  10.689  0.1669 -1.2676  1.8682
 3112TIP3   OH230750   6.108   5.671  12.071 -0.1135  0.0868 -0.2401
 3112TIP3    H130751   6.113   5.575  12.069 -0.4796  0.0343  0.7045
 3112TIP3    H230752   6.057   5.694  11.994  0.8709 -0.4025 -1.0537
 3113TIP3   OH230753   6.003   6.643  16.358  0.0656  0.2201  0.5083
 3113TIP3    H130754   5.911   6.629  16.379  0.2321 -0.1418  1.0202
 3113TIP3    H230755   6.004   6.726  16.309 -0.3992  0.8376  1.5010
 3114TIP3   OH230756   3.406   0.713   4.843  0.5732 -0.1368 -0.4026
 3114TIP3    H130757   3.471   0.643   4.833  0.6608 -0.3481  1.3883
 3114TIP3    H230758   3.326   0.677   4.806  0.6807 -1.1157  0.2868
 3115TIP3   OH230759   4.969   0.708  14.146  0.0009 -0.0232 -0.1075
 3115TIP3    H130760   5.026   0.723  14.071 -0.6305  1.0840 -0.3790
 3115TIP3    H230761   4.892   0.763  14.130 -0.8313 -0.9347  0.6047
 3116TIP3   OH230762   3.304   2.647  15.040  0.2748  0.5717  0.0493
 3116TIP3    H130763   3.387   2.679  15.075  1.2990 -0.2072 -1.5787
 3116TIP3    H230764   3.269   2.721  14.991  1.5917 -0.0028 -1.8917
 3117TIP3   OH230765   3.260   0.658  12.400 -0.0572 -0.3502  0.0987
 3117TIP3    H130766   3.238   0.750  12.388  1.4582  0.1265  0.6833
 3117TIP3    H230767   3.178   0.617  12.429 -0.7865  0.7725 -0.3197
 3118TIP3   OH230768   5.922   5.180  15.059 -0.7788 -0.6376  0.6715
 3118TIP3    H130769   6.011   5.178  15.023 -0.4982  0.8203  1.2060
 3118TIP3    H230770   5.934   5.182  15.154 -1.3335  0.5903  0.7340
 3119TIP3   OH230771   1.065   5.976   5.088 -0.7308 -0.3375  0.2188
 3119TIP3    H130772   1.062   5.971   5.184  1.5061 -0.0463  0.3434
 3119TIP3    H230773   1.058   5.886   5.059  0.8144 -0.6532  0.7714
 3120TIP3   OH230774   6.465   0.274   3.280 -0.6185 -0.5297 -0.2173
 3120TIP3    H130775   6.487   0.251   3.370 -1.4045 -2.0316 -0.3846
 3120TIP3    H230776   6.409   0.352   3.289 -0.3833 -0.4402  0.5585
 3121TIP3   OH230777   0.298   1.901  14.219 -0.1083  0.4498  0.0759
 3121TIP3    H130778   0.342   1.958  14.156  0.4936 -2.2126 -2.1202
 3121TIP3    H230779   0.363   1.834  14.241 -1.5931 -1.0256  0.2632
 3122TIP3   OH230780   4.771   0.614  12.328 -0.1453  0.6443 -0.4718
 3122TIP3    H130781   4.778   0.667  12.407  0.8170  1.1073 -0.8443
 3122TIP3    H230782   4.711   0.543  12.351  3.0148 -1.5390  1.9955
 3123TIP3   OH230783   0.193   0.514   1.319  0.1386 -0.0951 -0.6523
 3123TIP3    H130784   0.113   0.559   1.348 -1.3419 -3.0203  0.2457
 3123TIP3    H230785   0.209   0.548   1.231 -2.6583  0.0089 -1.2202
 3124TIP3   OH230786   2.738   3.713  14.188 -0.0681 -0.0299  0.4143
 3124TIP3    H130787   2.818   3.742  14.145  0.8597 -2.4334  0.3735
 3124TIP3    H230788   2.669   3.769  14.151  1.4408  1.6297 -0.0511
 3125TIP3   OH230789   6.355   1.325   5.186 -0.0429  0.0525 -0.2641
 3125TIP3    H130790   6.270   1.368   5.184 -0.4082 -0.6457 -0.0524
 3125TIP3    H230791   6.341   1.242   5.140  0.5288 -0.0513 -0.2566
 3126TIP3   OH230792   4.034   3.085   4.132  0.1318  1.2434  0.0908
 3126TIP3    H130793   3.940   3.067   4.133  0.5788 -2.2729  3.2938
 3126TIP3    H230794   4.047   3.150   4.200  0.1102  0.5259  0.7974
 3127TIP3   OH230795   1.101   1.052  12.803 -0.1011 -0.0750  0.2510
 3127TIP3    H130796   1.163   1.090  12.865 -1.0207 -0.9949  1.8097
 3127TIP3    H230797   1.094   0.960  12.830 -1.6009 -0.1503 -0.3261
 3128TIP3   OH230798   2.699   4.329   3.241  0.1906 -0.2331 -0.6377
 3128TIP3    H130799   2.661   4.241   3.241  1.6698 -0.9276 -1.7201
 3128TIP3    H230800   2.657   4.374   3.314 -2.7438 -0.8421 -1.8247
 3129TIP3   OH230801   1.435   5.678  14.676  0.6404  0.4499 -0.2830
 3129TIP3    H130802   1.437   5.769  14.705  0.0446  0.6778 -0.9418
 3129TIP3    H230803   1.522   5.644  14.699  0.7921  1.1170  0.1585
 3130TIP3   OH230804   3.300   0.130   5.848  0.2312  0.5170  0.1624
 3130TIP3    H130805   3.320   0.046   5.889  2.4677  0.3648 -1.1134
 3130TIP3    H230806   3.255   0.180   5.916  2.1946 -0.3701  2.2373
 3131TIP3   OH230807   0.726   5.323   2.402  0.1562 -0.6192 -0.7684
 3131TIP3    H130808   0.790   5.393   2.387  0.3453 -1.0282 -2.0508
 3131TIP3    H230809   0.707   5.327   2.495 -1.3551  2.4491 -1.0854
 3132TIP3   OH230810   3.037   3.826   0.228  0.2592 -0.1871 -0.6569
 3132TIP3    H130811   3.057   3.869   0.145  2.6346  1.2799  0.5748
 3132TIP3    H230812   3.037   3.897   0.292 -0.8639 -1.3696  0.7231
 3133TIP3   OH230813   4.216   3.110   5.763  0.6181 -0.1334 -0.2771
 3133TIP3    H130814   4.225   3.105   5.668  0.9825 -5.9169 -0.2610
 3133TIP3    H230815   4.304   3.093   5.797  0.3014  0.8451  1.1644
 3134TIP3   OH230816   0.451   5.688   3.153  0.0639  0.6538  0.3426
 3134TIP3    H130817   0.540   5.653   3.146  0.3806  1.3534  0.8292
 3134TIP3    H230818   0.444   5.749   3.080 -0.1385  0.3509  0.1046
 3135TIP3   OH230819   1.126   4.679   6.466  0.4646  0.2714 -0.6190
 3135TIP3    H130820   1.098   4.736   6.538 -1.0112  1.6570 -2.1846
 3135TIP3    H230821   1.141   4.739   6.393  2.1352 -1.0602 -1.4251
 3136TIP3   OH230822   0.466   1.512   4.681  0.0234  0.0197 -0.6869
 3136TIP3    H130823   0.538   1.566   4.713 -0.6193  1.6755 -1.9006
 3136TIP3    H230824   0.470   1.520   4.585 -0.4259 -1.6832 -0.8846
 3137TIP3   OH230825   1.188   0.422   4.598 -0.1500  0.2194 -0.0750
 3137TIP3    H130826   1.281   0.445   4.602 -0.3912  1.6126 -1.4393
 3137TIP3    H230827   1.171   0.408   4.505 -1.2033 -0.4821  0.2108
 3138TIP3   OH230828   2.054   0.153  16.536  0.0928  0.3017  0.3051
 3138TIP3    H130829   2.018   0.083  16.481 -0.3300 -0.7127  1.8171
 3138TIP3    H230830   1.988   0.222  16.533  0.3396  0.5104 -0.9046
 3139TIP3   OH230831   2.086   0.600   5.288  0.6973  0.3626  0.1255
 3139TIP3    H130832   2.033   0.524   5.310 -0.2451  1.4757  1.9974
 3139TIP3    H230833   2.166   0.589   5.339  1.8157 -0.7456 -1.8078
 3140TIP3   OH230834   3.896   1.415  16.441  0.3901 -0.1085  0.1391
 3140TIP3    H130835   3.872   1.402  16.349 -1.9878  0.5666  0.6032
 3140TIP3    H230836   3.871   1.506  16.460  1.3373 -0.0668  1.3333
 3141TIP3   OH230837   0.064   6.716  12.738 -0.3271 -0.4549 -0.5743
 3141TIP3    H130838   0.133   6.662  12.700  0.1737  0.2072 -0.6262
 3141TIP3    H230839   0.085   6.805  12.709  1.1509  0.4087  2.7225
 3142TIP3   OH230840   4.353   5.016   4.948  0.0555  0.1953 -0.4151
 3142TIP3    H130841   4.293   4.975   5.010  0.5587  0.8065  0.4894
 3142TIP3    H230842   4.437   4.973   4.962  0.6680  1.6701  0.7624
 3143TIP3   OH230843   0.562   4.704  13.804 -0.0343 -0.0599 -0.5632
 3143TIP3    H130844   0.624   4.754  13.858 -0.3363  1.1231 -1.2598
 3143TIP3    H230845   0.573   4.614  13.832 -0.7545  0.5702  2.0953
 3144TIP3   OH230846   2.653   6.233  15.228 -0.5680  0.3462 -0.1611
 3144TIP3    H130847   2.592   6.222  15.300 -0.0229 -0.0159  0.2542
 3144TIP3    H230848   2.598   6.235  15.150 -1.1883  1.0768  0.2844
 3145TIP3   OH230849   3.414   1.544  12.710  0.0087  0.4352  0.4476
 3145TIP3    H130850   3.444   1.528  12.799  0.1619  0.9003  0.4837
 3145TIP3    H230851   3.385   1.635  12.711  1.4410  0.9271 -0.3642
 3146TIP3   OH230852   2.037   3.223   5.682  0.3997 -0.2938  0.0506
 3146TIP3    H130853   1.962   3.220   5.622 -0.5903 -1.0363  1.2945
 3146TIP3    H230854   2.032   3.310   5.722 -0.1809 -0.5722  0.5957
 3147TIP3   OH230855   2.516   6.669  15.234 -0.6765 -0.0584  0.4171
 3147TIP3    H130856   2.501   6.593  15.178  0.9104 -0.5218  0.5577
 3147TIP3    H230857   2.556   6.633  15.313 -1.2896  0.7777  1.1380
 3148TIP3   OH230858   2.004   3.111   5.376  0.4128 -0.2016 -0.2714
 3148TIP3    H130859   1.925   3.109   5.430  0.0046  0.9984 -0.7953
 3148TIP3    H230860   2.073   3.138   5.436  0.7120 -2.3592  0.4674
 3149TIP3   OH230861   6.557   5.426   3.578 -0.4392  0.0088 -0.3380
 3149TIP3    H130862   6.581   5.341   3.614  0.4970 -0.1120 -1.2149
 3149TIP3    H230863   6.513   5.406   3.496 -0.5282  0.3588 -0.3769
 3150TIP3   OH230864   3.709   0.869   1.053 -0.2935  0.2900 -0.7490
 3150TIP3    H130865   3.665   0.794   1.092 -0.5140  0.8714  0.1463
 3150TIP3    H230866   3.668   0.880   0.968 -0.5168 -0.3696 -0.7320
 3151TIP3   OH230867   3.241   5.193   4.168  0.0753 -0.1481 -0.0695
 3151TIP3    H130868   3.205   5.251   4.235  0.9087 -1.4436  1.5652
 3151TIP3    H230869   3.272   5.252   4.099  0.1164  1.2862  1.1262
 3152TIP3   OH230870   3.760   0.884  13.654 -0.5193 -0.6193  0.2365
 3152TIP3    H130871   3.846   0.897  13.693 -0.4688  0.5801 -0.2502
 3152TIP3    H230872   3.777   0.878  13.560 -0.9681 -0.4292  0.1437
 3153TIP3   OH230873   4.715   1.563   1.751  0.9386 -0.1207 -0.1491
 3153TIP3    H130874   4.736   1.636   1.810  2.2482 -0.4121 -0.2085
 3153TIP3    H230875   4.634   1.526   1.785  1.1508  0.3353  0.8785
 3154TIP3   OH230876   5.099   5.699  15.888  0.1459 -0.0180  0.2508
 3154TIP3    H130877   5.091   5.680  15.981 -0.7713 -0.4199  0.1047
 3154TIP3    H230878   5.188   5.670  15.865 -0.1119 -1.2643  0.7153
 3155TIP3   OH230879   3.429   1.284  13.998  0.5715 -0.0224  0.5016
 3155TIP3    H130880   3.347   1.246  14.029 -0.6795  3.7878  2.4623
 3155TIP3    H230881   3.411   1.310  13.908  0.3437 -0.9755  0.2592
 3156TIP3   OH230882   5.426   0.775  11.908  0.3325 -0.0025  0.4308
 3156TIP3    H130883   5.378   0.747  11.986 -0.2459 -0.6336 -0.1355
 3156TIP3    H230884   5.379   0.735  11.835  2.1217 -1.2684 -0.1099
 3157TIP3   OH230885   2.821   5.852  13.230 -0.3730 -0.0929  0.1904
 3157TIP3    H130886   2.870   5.784  13.276  1.1558  1.5633  1.1070
 3157TIP3    H230887   2.808   5.817  13.142  1.0124 -1.2546  0.4219
 3158TIP3   OH230888   0.863   2.479  14.329 -0.2418 -0.0512  0.1687
 3158TIP3    H130889   0.922   2.410  14.299  1.3968  0.6499  1.6247
 3158TIP3    H230890   0.811   2.438  14.397 -0.2717 -0.2372  0.0341
 3159TIP3   OH230891   5.761   5.105   5.810 -0.0674  0.1212  0.1962
 3159TIP3    H130892   5.789   5.181   5.760  1.4336 -1.0611 -0.8742
 3159TIP3    H230893   5.833   5.088   5.871 -0.1958 -0.6329  0.1564
 3160TIP3   OH230894   0.868   4.532   1.436  0.2710 -0.5072  0.5171
 3160TIP3    H130895   0.914   4.603   1.390 -1.1238  0.1332  0.0579
 3160TIP3    H230896   0.852   4.567   1.524  3.7303 -2.0554  1.9780
 3161TIP3   OH230897   1.456   4.401   3.075 -0.2361  0.1517 -0.7431
 3161TIP3    H130898   1.503   4.447   3.145  0.9011 -1.7465 -0.1918
 3161TIP3    H230899   1.367   4.436   3.078 -0.0662  0.5061  1.2756
 3162TIP3   OH230900   1.308   2.514  16.874 -0.2702 -0.3289  0.2286
 3162TIP3    H130901   1.214   2.508  16.858  0.0378 -0.6096 -1.6978
 3162TIP3    H230902   1.348   2.512  16.787  1.6200 -2.0991  1.0315
 3163TIP3   OH230903   0.562   2.707  12.606  0.7412 -0.2806 -0.7114
 3163TIP3    H130904   0.563   2.794  12.646  1.6520 -0.4728 -0.2977
 3163TIP3    H230905   0.654   2.682  12.599  0.4482 -1.9564  0.8005
 3164TIP3   OH230906   3.594   0.945  15.420  0.4455  0.4364 -0.4624
 3164TIP3    H130907   3.656   0.871  15.421 -0.0396  0.0206 -0.4842
 3164TIP3    H230908   3.508   0.903  15.421  0.1642  1.0245  0.2221
 3165TIP3   OH230909   6.383   1.878  14.532 -0.1277  0.2486 -0.1102
 3165TIP3    H130910   6.348   1.957  14.573  0.9778  0.0495  1.3214
 3165TIP3    H230911   6.373   1.892  14.438  1.3614  2.7620  0.0309
 3166TIP3   OH230912   0.681   6.371   4.946 -0.1317  0.1408  0.0363
 3166TIP3    H130913   0.657   6.463   4.945  1.1563  0.4872 -0.0804
 3166TIP3    H230914   0.650   6.340   5.031 -0.5955  0.6632  0.0666
 3167TIP3   OH230915   4.611   0.681   4.713 -0.0863  0.3029 -0.3955
 3167TIP3    H130916   4.573   0.610   4.765  0.6486 -0.2686 -0.6252
 3167TIP3    H230917   4.698   0.649   4.688 -0.1225  0.8860 -1.3236
 3168TIP3   OH230918   0.118   0.120   0.522 -0.0115  0.2330 -0.0149
 3168TIP3    H130919   0.092   0.038   0.565 -0.0018  0.3273  0.1718
 3168TIP3    H230920   0.210   0.106   0.499 -0.1872 -0.0549 -0.5680
 3169TIP3   OH230921   4.347   0.990  13.817  0.3660 -0.3838 -0.1268
 3169TIP3    H130922   4.439   0.989  13.790  0.2673 -1.7887 -0.5010
 3169TIP3    H230923   4.306   0.924  13.761 -1.0879  0.9380 -0.6670
 3170TIP3   OH230924   0.868   0.927   0.727  0.2378  0.4690 -0.1326
 3170TIP3    H130925   0.834   0.840   0.746  0.0960  0.6379  0.4122
 3170TIP3    H230926   0.876   0.969   0.813 -0.5034  1.2899 -0.4411
 3171TIP3   OH230927   2.964   4.521  16.797  0.1460  0.0260  0.5889
 3171TIP3    H130928   2.971   4.430  16.767 -0.1097  0.1059  0.2774
 3171TIP3    H230929   3.006   4.522  16.883 -1.4208 -0.7619  1.3891
 3172TIP3   OH230930   0.038   3.129  16.942 -0.3588  0.0052  0.0236
 3172TIP3    H130931  -0.052   3.140  16.973 -0.9566 -1.3245 -1.1522
 3172TIP3    H230932   0.092   3.158  17.016 -1.7390 -0.4045  1.2457
 3173TIP3   OH230933   1.382   0.278  16.849  0.4488  0.0881 -0.3192
 3173TIP3    H130934   1.322   0.322  16.789  0.4360  3.6066  2.0149
 3173TIP3    H230935   1.457   0.253  16.794 -1.6330 -1.4908 -2.6549
 3174TIP3   OH230936   2.380   3.046   6.195  0.1948  0.3453 -0.4539
 3174TIP3    H130937   2.385   3.127   6.144 -1.3983  0.3132 -0.7383
 3174TIP3    H230938   2.402   3.072   6.284 -0.3148  1.1220 -0.5363
 3175TIP3   OH230939   0.377   3.039  13.793 -0.2011  0.5939  0.0050
 3175TIP3    H130940   0.322   3.116  13.781  1.0421  1.7057  1.1279
 3175TIP3    H230941   0.461   3.074  13.823 -0.3587 -1.3014  3.0744
 3176TIP3   OH230942   5.667   2.657   3.251  0.6419  0.0221 -0.4202
 3176TIP3    H130943   5.673   2.736   3.198  0.7319  0.0401 -0.3831
 3176TIP3    H230944   5.758   2.630   3.264  0.5751 -0.9913 -1.7865
 3177TIP3   OH230945   2.490   2.582   6.711 -0.0972 -0.0548  0.1603
 3177TIP3    H130946   2.483   2.547   6.800  0.0838  1.6646  0.9008
 3177TIP3    H230947   2.405   2.564   6.671 -0.0938 -1.0692  0.5869
 3178TIP3   OH230948   6.516   2.284   2.131 -0.0026  0.2304  0.0720
 3178TIP3    H130949   6.433   2.236   2.142  0.2760  0.1669  2.4619
 3178TIP3    H230950   6.581   2.216   2.116 -0.3349  0.2784 -1.7937
 3179TIP3   OH230951   0.707   1.209  11.894 -0.4011 -0.4605 -0.5524
 3179TIP3    H130952   0.750   1.126  11.873 -0.3171 -0.4624 -0.3706
 3179TIP3    H230953   0.616   1.197  11.867 -0.4350 -0.6816 -0.3333
 3180TIP3   OH230954   4.523   6.071  12.979 -0.4920  0.1128  0.5477
 3180TIP3    H130955   4.479   6.141  12.932 -1.9272  0.9619  2.9830
 3180TIP3    H230956   4.469   5.993  12.963 -2.5900  0.9757  2.8471
 3181TIP3   OH230957   2.307   1.934  14.200  0.1779  0.1318 -0.1588
 3181TIP3    H130958   2.338   2.017  14.235 -2.5596  1.5790 -0.8518
 3181TIP3    H230959   2.215   1.930  14.226 -0.0202 -2.2230 -0.9946
 3182TIP3   OH230960   5.161   3.344   4.472  0.2755  0.2773 -0.2460
 3182TIP3    H130961   5.194   3.256   4.487 -0.9040  0.1833  2.3344
 3182TIP3    H230962   5.111   3.338   4.391  0.2669 -1.4102 -0.1374
 3183TIP3   OH230963   6.223   2.532   1.665 -0.5272 -0.0086 -0.0240
 3183TIP3    H130964   6.222   2.623   1.694  0.5073 -0.0646  0.2177
 3183TIP3    H230965   6.224   2.480   1.745  0.4474 -0.1925 -0.1343
 3184TIP3   OH230966   2.226   2.274  16.498 -0.5648 -0.0114  0.5715
 3184TIP3    H130967   2.133   2.289  16.481 -0.6938  0.4681  1.6160
 3184TIP3    H230968   2.270   2.308  16.421 -1.1444  1.5967  0.9074
 3185TIP3   OH230969   0.014   5.388  13.972  0.1414  0.2832  0.0747
 3185TIP3    H130970   0.018   5.371  14.066 -0.2498  1.4064  0.3045
 3185TIP3    H230971   0.061   5.470  13.960 -1.5214  1.2169 -0.4123
 3186TIP3   OH230972   2.697   3.046   2.518  0.0589 -1.0163 -0.4739
 3186TIP3    H130973   2.641   3.049   2.596  1.2503  1.9549  0.3930
 3186TIP3    H230974   2.754   3.122   2.526  1.2544 -1.4449 -3.5487
 3187TIP3   OH230975   6.714   4.401   2.669  0.3837  0.2788 -0.0486
 3187TIP3    H130976   6.652   4.335   2.638  0.8645 -1.1590  1.8316
 3187TIP3    H230977   6.791   4.389   2.614  0.0051  0.1612 -0.5614
 3188TIP3   OH230978   2.997   0.171  11.409 -0.8511  0.2372 -0.4635
 3188TIP3    H130979   2.911   0.209  11.423 -0.9936  0.3328 -1.5098
 3188TIP3    H230980   3.058   0.243  11.424 -1.1693  1.3390 -3.6058
 3189TIP3   OH230981   0.105   1.114  16.383  0.0791 -0.2258  0.1475
 3189TIP3    H130982   0.050   1.191  16.364 -0.9905 -0.7184  1.0964
 3189TIP3    H230983   0.153   1.139  16.462  0.5951 -0.1156 -0.1964
 3190TIP3   OH230984   4.105   3.906  14.461  0.0614 -0.2124  0.1984
 3190TIP3    H130985   4.161   3.880  14.535  2.3219 -2.5570 -2.1199
 3190TIP3    H230986   4.025   3.855  14.473  1.1826 -2.1216  0.1056
 3191TIP3   OH230987   3.275   0.851   0.695 -0.1803 -0.3381  0.0048
 3191TIP3    H130988   3.315   0.776   0.739  0.6379 -0.8646 -1.5779
 3191TIP3    H230989   3.348   0.897   0.653 -0.9634 -0.0844 -1.1327
 3192TIP3   OH230990   6.669   4.456  12.870  0.0302 -0.2235  0.1489
 3192TIP3    H130991   6.738   4.391  12.876  0.2447 -0.0531 -0.3559
 3192TIP3    H230992   6.590   4.411  12.900  0.3377 -0.4470  0.6370
 3193TIP3   OH230993   2.390   3.468  16.756  0.3548  0.1597 -0.3630
 3193TIP3    H130994   2.349   3.508  16.833  0.6335 -0.4111  0.0925
 3193TIP3    H230995   2.317   3.454  16.696  0.2730  1.4700 -0.5986
 3194TIP3   OH230996   3.784   3.180  14.438 -0.1679  0.1207  0.1944
 3194TIP3    H130997   3.869   3.158  14.401  0.7474  1.0071  1.7095
 3194TIP3    H230998   3.780   3.275  14.436 -0.8083  0.1162  0.8186
 3195TIP3   OH230999   1.953   1.504   4.549 -0.2108 -0.0547 -0.0772
 3195TIP3    H131000   2.000   1.497   4.466 -0.3071 -0.2275 -0.1198
 3195TIP3    H231001   2.020   1.518   4.615  0.3013 -3.5419  0.3359
 3196TIP3   OH231002   5.286   0.498   4.341 -0.2210  0.2564  0.0372
 3196TIP3    H131003   5.263   0.408   4.364  1.8872 -1.0426 -2.4697
 3196TIP3    H231004   5.351   0.524   4.406 -0.1199 -0.3727  0.1907
 3197TIP3   OH231005   1.213   4.501  16.002 -0.2942 -0.0780 -0.4333
 3197TIP3    H131006   1.295   4.532  15.964 -0.8647 -0.3926 -2.0042
 3197TIP3    H231007   1.173   4.579  16.041  1.3732 -0.1837  1.6396
 3198TIP3   OH231008   6.186   5.239   5.103 -0.4832  0.2040 -0.1303
 3198TIP3    H131009   6.227   5.325   5.113  0.2234 -0.1935  0.5400
 3198TIP3    H231010   6.171   5.210   5.193 -2.4672  0.4176 -0.3318
 3199TIP3   OH231011   4.779   1.657   3.638  0.8083  0.1387  0.0277
 3199TIP3    H131012   4.793   1.689   3.727 -0.1553 -0.7136  0.4998
 3199TIP3    H231013   4.867   1.645   3.602  1.2008  0.5893  0.8172
 3200TIP3   OH231014   0.260   3.543  15.953  0.3960  0.2914  0.4203
 3200TIP3    H131015   0.303   3.608  16.009 -2.1516 -0.2244  3.1719
 3200TIP3    H231016   0.264   3.462  16.003  1.0454 -1.1022 -1.7394
 3201TIP3   OH231017   1.169   5.719  16.563  0.2782 -0.5670  0.3950
 3201TIP3    H131018   1.090   5.675  16.596  0.4010 -0.0969  1.3678
 3201TIP3    H231019   1.225   5.648  16.533 -0.2077 -0.9609  0.4033
 3202TIP3   OH231020   6.107   3.928   4.360  0.0367  0.2771  0.3548
 3202TIP3    H131021   6.048   3.979   4.305  0.8513  2.0014  0.9889
 3202TIP3    H231022   6.174   3.895   4.300  1.5276  3.0340  0.3432
 3203TIP3   OH231023   3.800   2.946   1.977  0.3079  0.0623  0.4033
 3203TIP3    H131024   3.719   2.924   2.023 -0.0079  1.0849  0.3812
 3203TIP3    H231025   3.844   2.863   1.964 -0.5463 -0.4669  0.7853
 3204TIP3   OH231026   0.690   1.057   5.673 -0.5022 -0.2174 -0.0860
 3204TIP3    H131027   0.634   1.113   5.619  1.8236 -0.1116 -2.5655
 3204TIP3    H231028   0.698   1.105   5.756 -1.4550  1.3454 -0.8357
 3205TIP3   OH231029   4.711   1.843  17.259  0.0891 -0.4599  0.2275
 3205TIP3    H131030   4.663   1.925  17.269  1.9376  0.8439 -0.9572
 3205TIP3    H231031   4.758   1.833  17.342 -0.1375 -0.3269  0.3733
 3206TIP3   OH231032   0.742   6.245   3.108  0.0380 -0.3057  0.0168
 3206TIP3    H131033   0.787   6.196   3.177  0.6376 -0.1419 -0.2430
 3206TIP3    H231034   0.784   6.331   3.109  0.0480 -0.2979 -0.5432
 3207TIP3   OH231035   1.317   5.237  11.424  0.2057 -0.3556 -0.6437
 3207TIP3    H131036   1.373   5.312  11.403  0.2218  0.1670  1.1586
 3207TIP3    H231037   1.291   5.203  11.338  2.2887  0.1044 -1.5398
 3208TIP3   OH231038   6.503   0.221  16.406  0.6773  0.3265 -0.2406
 3208TIP3    H131039   6.527   0.261  16.322 -0.7006  1.4744 -0.1305
 3208TIP3    H231040   6.414   0.188  16.392  0.7082 -0.1162  0.5619
 3209TIP3   OH231041   4.876   1.382  16.812  0.1045 -0.1709  0.5375
 3209TIP3    H131042   4.969   1.371  16.789 -0.0395 -1.9719  0.6523
 3209TIP3    H231043   4.829   1.358  16.732 -0.2697 -0.0976  0.7362
 3210TIP3   OH231044   0.634   5.312  12.999 -0.4382  0.1026  0.3140
 3210TIP3    H131045   0.579   5.294  12.922  0.1937  0.0700 -0.1345
 3210TIP3    H231046   0.704   5.247  12.993 -0.2447  0.2695  0.7815
 3211TIP3   OH231047   3.056   3.845   2.389  0.3261  0.3696  0.5437
 3211TIP3    H131048   3.020   3.856   2.301 -1.9870  0.7663  1.4592
 3211TIP3    H231049   3.058   3.750   2.403  2.0078  0.2322 -0.3845
 3212TIP3   OH231050   4.993   3.474   0.705  0.3621 -0.8323  0.2713
 3212TIP3    H131051   4.975   3.381   0.689  1.6890 -1.3551  1.5852
 3212TIP3    H231052   5.078   3.475   0.748 -0.4825  0.8499  2.0518
 3213TIP3   OH231053   6.239   0.807   1.600 -0.1803  0.0650  0.2566
 3213TIP3    H131054   6.184   0.805   1.523  0.8455  0.6587 -0.5206
 3213TIP3    H231055   6.286   0.891   1.595  0.1096 -0.0039  1.3697
 3214TIP3   OH231056   3.561   3.395   5.274  0.3164  0.3057  0.1091
 3214TIP3    H131057   3.581   3.357   5.188  0.3367  1.3145 -0.3487
 3214TIP3    H231058   3.531   3.321   5.327 -1.1986 -0.0875 -1.2247
 3215TIP3   OH231059   3.109   4.220  13.666 -0.1953  0.0858  0.3457
 3215TIP3    H131060   3.137   4.279  13.736 -0.0325 -1.8487  1.9934
 3215TIP3    H231061   3.013   4.226  13.667 -0.1762  0.4483  0.3632
 3216TIP3   OH231062   4.441   4.693   4.031  0.0249  0.2054 -0.3609
 3216TIP3    H131063   4.433   4.712   4.124 -1.1652  0.3635 -0.4750
 3216TIP3    H231064   4.409   4.772   3.987 -0.5139 -0.2899 -0.8790
 3217TIP3   OH231065   2.786   0.480  10.774  0.2302 -0.0173 -0.3769
 3217TIP3    H131066   2.786   0.576  10.785  2.7829 -0.0186  0.5014
 3217TIP3    H231067   2.808   0.467  10.682  1.4996  0.3131 -0.1486
 3218TIP3   OH231068   5.648   3.757   5.374 -0.5352 -0.2128  0.2030
 3218TIP3    H131069   5.648   3.778   5.468 -0.9853  1.0710 -0.0736
 3218TIP3    H231070   5.607   3.670   5.370 -1.2884  0.0740  1.1211
 3219TIP3   OH231071   2.757   0.606  11.027  0.4271  0.3873 -0.2423
 3219TIP3    H131072   2.731   0.555  10.950  0.4219  0.0582 -0.0273
 3219TIP3    H231073   2.703   0.685  11.023  0.3194  0.3024 -0.4945
 3220TIP3   OH231074   1.136   1.447  14.947 -0.4114  0.0595  0.1916
 3220TIP3    H131075   1.092   1.504  14.882 -1.5623  3.5133  3.5749
 3220TIP3    H231076   1.065   1.394  14.984 -0.5084  0.7415  1.0246
 3221TIP3   OH231077   3.932   6.176  16.897 -0.2764  0.1811 -0.0375
 3221TIP3    H131078   3.883   6.105  16.857  0.5019  0.2705 -1.2257
 3221TIP3    H231079   3.871   6.216  16.959 -1.0690 -0.8451 -0.1247
 3222TIP3   OH231080   1.583   3.342   5.197 -0.2039  0.3517  0.4023
 3222TIP3    H131081   1.530   3.315   5.122 -0.3087 -1.4211  1.0551
 3222TIP3    H231082   1.662   3.288   5.190 -1.5160 -2.2480  3.1715
 3223TIP3   OH231083   3.134   4.003   4.889 -0.2869 -0.2453 -0.8166
 3223TIP3    H131084   3.084   3.925   4.864  0.2518 -1.1412  0.7328
 3223TIP3    H231085   3.106   4.022   4.979 -1.3506  2.1538 -1.5777
 3224TIP3   OH231086   0.142   3.969   2.367 -0.0068  0.6250 -0.7770
 3224TIP3    H131087   0.185   3.890   2.335  0.3056  0.5114 -0.0990
 3224TIP3    H231088   0.061   3.975   2.317 -1.0568 -1.2850  0.5844
 3225TIP3   OH231089   5.889   3.425  12.972 -0.4051 -0.4905 -0.3102
 3225TIP3    H131090   5.981   3.436  12.951 -0.1377 -3.2579 -0.8876
 3225TIP3    H231091   5.843   3.470  12.901  0.4954 -0.1793 -0.7089
 3226TIP3   OH231092   3.530   1.511   5.338 -0.4960  0.1351  0.0360
 3226TIP3    H131093   3.546   1.418   5.356 -2.4395 -0.2988 -0.2548
 3226TIP3    H231094   3.526   1.517   5.243  0.1010  0.6221  0.0354
 3227TIP3   OH231095   4.573   5.005   1.105 -0.0204 -0.5270  0.5951
 3227TIP3    H131096   4.606   5.093   1.085  0.5518 -1.1227 -1.2364
 3227TIP3    H231097   4.650   4.958   1.137  0.1869 -0.9565 -0.4910
 3228TIP3   OH231098   0.186   5.990  16.696  0.1310 -0.0241  0.4106
 3228TIP3    H131099   0.225   5.975  16.610  2.1537  0.7563  1.1131
 3228TIP3    H231100   0.174   6.085  16.700 -2.0824 -0.2454  0.1802
 3229TIP3   OH231101   4.408   0.529  15.569  0.8380  0.4657 -0.0829
 3229TIP3    H131102   4.424   0.557  15.659 -1.5132 -0.2394  0.6337
 3229TIP3    H231103   4.375   0.608  15.525 -2.9477 -0.2510  1.1447
 3230TIP3   OH231104   1.226   0.327  11.489 -0.4100  0.0349  0.0009
 3230TIP3    H131105   1.190   0.288  11.409 -0.4509 -1.4996  0.7234
 3230TIP3    H231106   1.310   0.283  11.501 -0.7270 -0.2870  1.1759
 3231TIP3   OH231107   5.726   0.260   4.331  1.2010  0.9388  0.2983
 3231TIP3    H131108   5.755   0.272   4.421  0.9166 -2.5263  0.9931
 3231TIP3    H231109   5.796   0.298   4.278  2.0726  1.7499  1.9328
 3232TIP3   OH231110   0.971   6.495   5.595 -0.0508 -0.2922 -0.0803
 3232TIP3    H131111   1.033   6.546   5.542 -1.4820  1.7281  0.0645
 3232TIP3    H231112   1.026   6.447   5.657  1.3582  2.1402  0.6694
 3233TIP3   OH231113   3.098   0.794   3.360 -0.4142  0.5711  0.2102
 3233TIP3    H131114   3.137   0.837   3.436  0.2934 -0.1092  0.2415
 3233TIP3    H231115   3.013   0.838   3.349 -0.8208  0.2541  1.7717
 3234TIP3   OH231116   2.787   4.361  12.265 -0.3044 -0.2521 -0.5850
 3234TIP3    H131117   2.818   4.447  12.236 -0.5892 -0.8445 -2.8313
 3234TIP3    H231118   2.692   4.371  12.275  0.0187  0.5953  2.7641
 3235TIP3   OH231119   3.900   0.983  15.559 -0.5955  0.1073 -0.0487
 3235TIP3    H131120   3.904   0.947  15.471 -1.6458  0.0728 -0.0991
 3235TIP3    H231121   3.859   1.069  15.548  2.3704  1.6458 -0.0031
 3236TIP3   OH231122   5.090   6.406   5.998 -0.1224 -0.3395 -0.7036
 3236TIP3    H131123   5.112   6.493   6.030  0.7845  0.1563 -2.5228
 3236TIP3    H231124   5.003   6.389   6.033 -0.3895  1.3664 -0.4294
 3237TIP3   OH231125   2.112   3.251   3.131 -0.0970  0.4792 -0.2318
 3237TIP3    H131126   2.151   3.338   3.141  1.4478 -0.1765 -0.4212
 3237TIP3    H231127   2.094   3.222   3.220  1.1638  0.2209 -0.0471
 3238TIP3   OH231128   2.997   6.269  11.291 -0.0799 -0.6156 -0.9033
 3238TIP3    H131129   2.940   6.213  11.237 -2.2539  2.0410 -1.6008
 3238TIP3    H231130   3.013   6.346  11.236  1.8687 -0.0066  0.4211
 3239TIP3   OH231131   3.097   2.986   2.464  0.1379 -0.1865  0.6897
 3239TIP3    H131132   3.142   2.969   2.546  1.2571  0.9234  0.3476
 3239TIP3    H231133   3.132   3.070   2.435 -2.2537  0.7965  0.4368
 3240TIP3   OH231134   4.962   5.969   3.743 -0.4477 -0.1569 -0.6142
 3240TIP3    H131135   4.953   5.920   3.825 -1.0225  0.3814 -0.3501
 3240TIP3    H231136   5.011   6.048   3.766  0.3242 -0.5023 -1.0078
 3241TIP3   OH231137   0.396   0.525   4.408  0.5784 -0.1633 -0.0692
 3241TIP3    H131138   0.477   0.572   4.388 -0.2118  0.7344 -1.2912
 3241TIP3    H231139   0.370   0.485   4.325 -0.9617  0.7573 -0.0708
 3242TIP3   OH231140   0.658   3.294  11.795 -0.1714 -0.0437 -0.3607
 3242TIP3    H131141   0.731   3.238  11.819  0.6065  1.2922  0.5482
 3242TIP3    H231142   0.700   3.374  11.762 -1.2422  0.1320 -1.3565
 3243TIP3   OH231143   0.866   6.385   6.389  0.2413  0.4483  0.1871
 3243TIP3    H131144   0.955   6.417   6.399 -0.0839  1.2366  0.7364
 3243TIP3    H231145   0.829   6.389   6.478  0.7131 -3.2023  0.6878
 3244TIP3   OH231146   2.707   5.180   6.657 -0.2222  0.4498 -0.5461
 3244TIP3    H131147   2.656   5.172   6.737  0.6521  0.6296  0.0314
 3244TIP3    H231148   2.675   5.260   6.616  0.1008  0.9643  0.1865
 3245TIP3   OH231149   2.697   0.673   4.595  0.4420 -0.2080 -0.3009
 3245TIP3    H131150   2.686   0.612   4.521 -0.7420 -1.6382  0.9847
 3245TIP3    H231151   2.768   0.635   4.646  0.6456  0.2743 -0.2265
 3246TIP3   OH231152   1.487   1.322   6.343 -0.3663  0.2267 -0.4726
 3246TIP3    H131153   1.508   1.408   6.380  0.7330  0.2635 -1.1268
 3246TIP3    H231154   1.510   1.260   6.412  1.3105  0.3191 -0.8969
 3247TIP3   OH231155   3.958   0.301  10.649 -0.2043  0.3579  0.5626
 3247TIP3    H131156   3.956   0.228  10.711 -1.3425  0.9450  1.2375
 3247TIP3    H231157   3.875   0.346  10.662  0.2142  1.4125 -0.2969
 3248TIP3   OH231158   5.628   4.660  15.928 -0.2900 -0.3896  0.0894
 3248TIP3    H131159   5.710   4.622  15.896  0.1646  1.3128 -0.9067
 3248TIP3    H231160   5.645   4.679  16.020 -0.1653 -1.5830  0.3246
 3249TIP3   OH231161   0.295   3.777  15.005 -0.1011  0.3650  0.2726
 3249TIP3    H131162   0.224   3.832  14.974  0.7694  1.3551 -0.0247
 3249TIP3    H231163   0.253   3.693  15.026 -1.1718  0.5701 -0.9205
 3250TIP3   OH231164   4.526   6.015  14.590 -0.2010 -0.3330  0.4101
 3250TIP3    H131165   4.585   5.947  14.622  0.0622 -0.7446 -0.8799
 3250TIP3    H231166   4.583   6.081  14.551 -0.4793  0.4197  1.2542
 3251TIP3   OH231167   5.779   4.373  11.049  0.9251  0.8324 -0.1809
 3251TIP3    H131168   5.764   4.284  11.019 -0.0632  0.3948  1.4726
 3251TIP3    H231169   5.742   4.428  10.980  1.2297 -0.0318 -1.0526
 3252TIP3   OH231170   3.247   6.011   0.018 -0.5540 -0.6464  0.0424
 3252TIP3    H131171   3.160   6.012  -0.022 -0.1672  0.1210 -0.8276
 3252TIP3    H231172   3.306   6.035  -0.053  0.3234 -0.7104  0.7337
 3253TIP3   OH231173   2.885   3.764   4.079  0.0347  0.7877 -0.3440
 3253TIP3    H131174   2.824   3.726   4.142  0.4065  0.7446 -0.0119
 3253TIP3    H231175   2.829   3.800   4.010 -0.3435  0.2126 -0.3384
 3254TIP3   OH231176   6.149   5.775   4.825 -0.3778 -0.1941 -0.5052
 3254TIP3    H131177   6.219   5.717   4.795 -0.1444  0.0000 -0.3315
 3254TIP3    H231178   6.136   5.836   4.752  1.5835  1.5729  0.5323
 3255TIP3   OH231179   4.524   4.002  15.162 -0.2866 -0.4709 -0.1716
 3255TIP3    H131180   4.460   3.932  15.175 -0.5289 -0.3116 -0.4653
 3255TIP3    H231181   4.492   4.049  15.084  1.8276 -2.2588 -2.2539
 3256TIP3   OH231182   2.407   3.183  15.008 -0.2273 -0.1051  0.0664
 3256TIP3    H131183   2.414   3.237  14.929 -0.5557  1.6366  1.1779
 3256TIP3    H231184   2.492   3.139  15.015  1.2916  2.6965  0.7726
 3257TIP3   OH231185   4.492   2.576  13.023 -0.0066  0.1730  0.1641
 3257TIP3    H131186   4.484   2.502  12.963 -1.6393  1.9803 -2.0811
 3257TIP3    H231187   4.580   2.611  13.008 -0.2121  0.2844 -0.8594
 3258TIP3   OH231188   5.749   0.644   5.406 -0.8159  0.4081  0.0397
 3258TIP3    H131189   5.774   0.626   5.497  0.0662  2.3802  0.2454
 3258TIP3    H231190   5.653   0.638   5.406 -1.0071  2.3616  1.6402
 3259TIP3   OH231191   4.190   3.254   4.714 -0.0165 -0.1366  0.8421
 3259TIP3    H131192   4.179   3.175   4.766 -1.7854 -1.9792 -2.1085
 3259TIP3    H231193   4.278   3.246   4.677  1.2512  1.1832  3.3187
 3260TIP3   OH231194   2.420   2.025  12.682 -0.6849 -0.3155 -0.2024
 3260TIP3    H131195   2.415   1.973  12.762 -1.3084 -1.0999 -0.7380
 3260TIP3    H231196   2.389   2.112  12.708 -1.5165 -0.7400  0.2578
 3261TIP3   OH231197   2.320   5.012   4.509 -0.2078 -0.4681  0.1334
 3261TIP3    H131198   2.325   4.926   4.551  3.6346 -0.5105 -0.0033
 3261TIP3    H231199   2.272   4.996   4.428  1.1459 -2.7914 -0.3153
 3262TIP3   OH231200   3.622   4.340  15.257  0.4954  0.8080 -0.2418
 3262TIP3    H131201   3.715   4.359  15.263  0.6569  0.8750 -2.2592
 3262TIP3    H231202   3.596   4.375  15.172 -0.5576 -2.3409 -1.3517
 3263TIP3   OH231203   1.809   1.796  13.311  0.1812 -0.3698  0.4831
 3263TIP3    H131204   1.763   1.713  13.304 -0.3158 -0.1565  1.1404
 3263TIP3    H231205   1.770   1.839  13.387  2.0270 -0.5556  1.5976
 3264TIP3   OH231206   3.921   6.070  12.355  0.5086 -1.0091 -0.9463
 3264TIP3    H131207   3.933   6.142  12.293  1.0451  1.6940  2.0257
 3264TIP3    H231208   4.001   6.018  12.348  1.9309  1.0088 -0.4677
 3265TIP3   OH231209   4.806   3.889  16.148  0.0301 -0.6004 -0.5488
 3265TIP3    H131210   4.867   3.824  16.114 -1.3744 -2.9837  1.1099
 3265TIP3    H231211   4.827   3.896  16.241 -1.0361 -0.1002 -0.3231
 3266TIP3   OH231212   4.254   5.367   3.024 -0.4495 -0.3760  0.0317
 3266TIP3    H131213   4.280   5.286   3.069 -4.0875 -2.6557 -1.5511
 3266TIP3    H231214   4.299   5.363   2.940 -0.9167 -0.9515 -0.1908
 3267TIP3   OH231215   1.089   5.164  11.589  0.1466  0.4412  0.1987
 3267TIP3    H131216   1.172   5.162  11.540  0.6676  0.7271  1.0591
 3267TIP3    H231217   1.115   5.181  11.679 -0.9438  1.8158  0.2832
 3268TIP3   OH231218   6.338   4.315   2.534 -0.0491 -0.3257  0.8188
 3268TIP3    H131219   6.370   4.321   2.444 -0.8319  1.6184  0.6263
 3268TIP3    H231220   6.248   4.284   2.526  0.7322 -2.9421  1.1778
 3269TIP3   OH231221   3.696   0.470  15.911  0.8720 -0.4359  0.7376
 3269TIP3    H131222   3.604   0.496  15.914  1.0752  0.2012  1.5149
 3269TIP3    H231223   3.709   0.442  15.820  0.9396  3.3007 -0.5642
 3270TIP3   OH231224   6.565   0.090   2.850 -0.3107  0.3986 -0.1143
 3270TIP3    H131225   6.497   0.106   2.915  0.6061  0.0662  0.9525
 3270TIP3    H231226   6.634   0.045   2.898  0.0088 -0.6989 -1.5255
 3271TIP3   OH231227   1.421   0.632   5.370 -0.5056 -0.0285  0.0309
 3271TIP3    H131228   1.516   0.627   5.356 -0.8226 -0.9526 -2.2853
 3271TIP3    H231229   1.410   0.704   5.432  1.6927  0.2736  0.1618
 3272TIP3   OH231230   5.662   0.393  11.869 -0.1198  0.0386 -0.3157
 3272TIP3    H131231   5.752   0.359  11.873 -0.1979 -0.1696 -0.3118
 3272TIP3    H231232   5.648   0.411  11.776 -0.5226 -1.1652 -0.5111
 3273TIP3   OH231233   6.642   2.231  11.205 -0.1333 -0.1895  0.2319
 3273TIP3    H131234   6.704   2.177  11.253 -0.7626 -0.2540  1.0068
 3273TIP3    H231235   6.626   2.185  11.123  0.4480 -0.4287  0.2556
 3274TIP3   OH231236   3.374   5.084  13.371 -0.2143  0.4458  0.5731
 3274TIP3    H131237   3.452   5.138  13.359 -0.9888  1.5532  0.3945
 3274TIP3    H231238   3.305   5.146  13.394 -0.9620 -0.5607  1.1246
 3275TIP3   OH231239   0.970   3.929   5.587  0.4321 -0.1435 -0.0329
 3275TIP3    H131240   1.033   3.887   5.529  1.2579 -0.4958  1.1038
 3275TIP3    H231241   0.946   3.862   5.651  0.0044  0.4210  0.4199
 3276TIP3   OH231242   4.323   0.795   5.044 -0.4462 -0.1800 -0.1488
 3276TIP3    H131243   4.233   0.790   5.078  0.0281  0.1734  1.2452
 3276TIP3    H231244   4.323   0.868   4.983 -0.9844  0.1693  0.2662
 3277TIP3   OH231245   4.250   4.141  14.533 -0.3223 -0.4994 -0.0218
 3277TIP3    H131246   4.341   4.112  14.522  0.7321  2.8647 -1.7221
 3277TIP3    H231247   4.205   4.109  14.455  0.1279  0.0484 -0.5221
 3278TIP3   OH231248   1.921   5.558   4.792  0.2289  0.4154  0.4559
 3278TIP3    H131249   2.005   5.513   4.802  1.3597  2.4085  0.3953
 3278TIP3    H231250   1.870   5.530   4.868  0.5146 -1.6535 -0.0589
 3279TIP3   OH231251   6.696   4.327   5.937  0.0063 -0.1480 -0.2735
 3279TIP3    H131252   6.709   4.332   6.032 -1.2099 -4.1658  0.3171
 3279TIP3    H231253   6.628   4.261   5.926 -1.9213  2.1233 -3.9461
 3280TIP3   OH231254   5.903   5.857   6.414  0.1778  0.0047 -0.7932
 3280TIP3    H131255   5.883   5.876   6.323 -0.9101 -2.1750 -1.0733
 3280TIP3    H231256   5.827   5.891   6.463  0.8527  1.3519 -0.6458
 3281TIP3   OH231257   6.253   3.095   3.216  0.1846 -0.0355 -0.3368
 3281TIP3    H131258   6.187   3.138   3.162  0.8675  0.7748 -0.5582
 3281TIP3    H231259   6.277   3.016   3.167 -1.9202 -1.3610  0.6220
 3282TIP3   OH231260   0.808   4.155  12.025 -0.1841  0.1482 -0.8966
 3282TIP3    H131261   0.857   4.225  12.068 -0.8035  0.1905 -0.2432
 3282TIP3    H231262   0.764   4.198  11.951 -1.1406  0.6197 -0.0778
 3283TIP3   OH231263   1.761   5.474  16.878  0.6363  0.4334  0.6045
 3283TIP3    H131264   1.689   5.531  16.906 -0.2977  0.7296 -2.1674
 3283TIP3    H231265   1.723   5.386  16.874  0.9571  0.2758  0.8558
 3284TIP3   OH231266   0.030   2.620  16.573 -0.1254  0.0082 -0.2380
 3284TIP3    H131267   0.004   2.527  16.575  2.2828 -0.7304  0.7418
 3284TIP3    H231268   0.089   2.626  16.498 -0.5129  0.8373 -0.4787
 3285TIP3   OH231269   3.819   6.397  17.074 -0.4934  0.0306 -0.4827
 3285TIP3    H131270   3.842   6.489  17.084  2.0779 -0.3241 -2.0892
 3285TIP3    H231271   3.724   6.397  17.061 -1.0092  2.1082  2.4307
 3286TIP3   OH231272   1.667   3.785   4.954 -0.5387  0.1327 -0.4932
 3286TIP3    H131273   1.652   3.796   5.048  1.2159 -0.9530 -0.0354
 3286TIP3    H231274   1.729   3.854   4.931  0.1787 -0.5044 -0.5096
 3287TIP3   OH231275   4.899   3.285  12.631 -0.9683  0.3395 -0.7062
 3287TIP3    H131276   4.839   3.278  12.705 -1.4904  2.0656 -0.9247
 3287TIP3    H231277   4.853   3.240  12.560 -2.0517  1.6389 -0.8735
 3288TIP3   OH231278   2.621   1.119  12.169  0.1425  0.6671  0.3063
 3288TIP3    H131279   2.707   1.078  12.165  0.3190  1.0066  0.5594
 3288TIP3    H231280   2.638   1.213  12.158 -0.2961  0.6368 -0.7407
 3289TIP3   OH231281   0.817   4.509  14.697 -0.0182  0.5746 -0.1923
 3289TIP3    H131282   0.896   4.561  14.682 -1.0733  2.5060  0.5947
 3289TIP3    H231283   0.843   4.444  14.762  1.0753  0.8145 -0.3806
 3290TIP3   OH231284   0.319   4.709   3.197  0.1357  0.0641  0.2425
 3290TIP3    H131285   0.369   4.722   3.277 -0.5104  2.0374  0.3729
 3290TIP3    H231286   0.324   4.793   3.151 -0.9534 -0.4809 -0.9451
 3291TIP3   OH231287   5.606   0.470  11.321  0.0248  0.9180  0.3131
 3291TIP3    H131288   5.536   0.421  11.279  0.4249  0.2830  0.3756
 3291TIP3    H231289   5.682   0.459  11.264  0.5275  0.1927  1.0825
 3292TIP3   OH231290   3.459   5.998  11.196  0.1146 -0.1796 -0.0127
 3292TIP3    H131291   3.457   5.911  11.155  1.3164 -1.9208  3.2054
 3292TIP3    H231292   3.367   6.024  11.201 -0.1942 -0.7514 -1.9235
 3293TIP3   OH231293   4.646   4.653   6.461  0.2601  0.2621  0.3364
 3293TIP3    H131294   4.614   4.581   6.406 -3.0897  2.5234 -1.0067
 3293TIP3    H231295   4.708   4.700   6.405 -1.3185  1.1716 -0.7239
 3294TIP3   OH231296   4.086   6.293   5.752 -0.8041 -0.1702 -0.2627
 3294TIP3    H131297   4.121   6.229   5.814  1.3634 -0.6784 -1.8764
 3294TIP3    H231298   4.148   6.366   5.754 -0.0391 -0.6586 -2.4930
 3295TIP3   OH231299   5.412   2.781   5.550 -0.1327 -0.2185 -0.4951
 3295TIP3    H131300   5.465   2.706   5.577  1.0041  0.2233 -1.4044
 3295TIP3    H231301   5.351   2.795   5.622  1.0707 -0.6698  0.6564
 3296TIP3   OH231302   4.693   0.483   1.095  0.0888  0.4732 -0.0994
 3296TIP3    H131303   4.619   0.507   1.039  0.7840  0.5266 -1.0243
 3296TIP3    H231304   4.685   0.389   1.107  0.8765  0.1647 -1.7347
 3297TIP3   OH231305   5.917   2.907   4.791 -0.2692 -0.0353  0.2425
 3297TIP3    H131306   5.885   2.829   4.836  1.1863  0.0072  1.4079
 3297TIP3    H231307   5.839   2.963   4.783 -0.8991 -0.7104  1.3152
 3298TIP3   OH231308   6.094   6.323  15.302 -0.3456  0.9271  0.7654
 3298TIP3    H131309   6.071   6.397  15.247  0.2247  0.7893  0.3332
 3298TIP3    H231310   6.036   6.252  15.272 -0.3393  0.9758  0.6366
 3299TIP3   OH231311   2.296   5.512  12.687 -0.3550  0.1814 -0.2479
 3299TIP3    H131312   2.342   5.473  12.762 -2.7826 -2.7255 -0.1021
 3299TIP3    H231313   2.358   5.506  12.615  0.2705 -1.6963  0.3915
 3300TIP3   OH231314   3.588   5.188   5.399  0.0546 -0.6215 -0.4861
 3300TIP3    H131315   3.657   5.123   5.382  0.1374  0.0975 -3.3827
 3300TIP3    H231316   3.508   5.146   5.367  0.2917  1.0121 -3.6202
 3301TIP3   OH231317   5.579   6.450   3.660 -0.0243 -0.6371  0.0864
 3301TIP3    H131318   5.661   6.457   3.611 -0.1184 -2.6734 -0.4629
 3301TIP3    H231319   5.563   6.356   3.667 -1.5672 -0.3194  1.4665
 3302TIP3   OH231320   1.723   5.209  12.891  0.0403  0.3893 -0.1635
 3302TIP3    H131321   1.818   5.201  12.878 -0.2627 -0.3566 -2.4232
 3302TIP3    H231322   1.689   5.121  12.872 -0.9725 -0.0225  2.9337
 3303TIP3   OH231323   0.761   1.549  17.344 -0.0747 -0.1550 -0.2443
 3303TIP3    H131324   0.732   1.608  17.413 -0.2161 -0.5031  0.0013
 3303TIP3    H231325   0.723   1.464  17.367  0.5249 -0.4566 -0.3206
 3304TIP3   OH231326   4.435   3.426  15.999  0.0174  0.3243  0.2084
 3304TIP3    H131327   4.419   3.388  16.086 -0.5267  2.6355  1.2001
 3304TIP3    H231328   4.356   3.406  15.950 -0.6132  0.8692  0.9767
 3305TIP3   OH231329   4.465   2.877  12.000 -0.1192 -0.0589  0.2159
 3305TIP3    H131330   4.496   2.954  11.952  1.3404 -1.0192 -0.4611
 3305TIP3    H231331   4.370   2.881  11.993 -0.0910  1.7317  0.3108
 3306TIP3   OH231332   1.877   5.466  12.027 -0.2391 -0.0591 -0.2782
 3306TIP3    H131333   1.866   5.470  12.122  0.0991 -0.5980 -0.2137
 3306TIP3    H231334   1.902   5.555  12.002  0.6417 -0.1357  0.2695
 3307TIP3   OH231335   4.345   1.209   4.318  0.5761  0.4591  0.2185
 3307TIP3    H131336   4.317   1.119   4.300 -0.5074  1.0074 -0.9878
 3307TIP3    H231337   4.300   1.262   4.252  1.8024  1.8056  0.4066
 3308TIP3   OH231338   4.885   0.900   5.609  0.4938  0.2996  0.2418
 3308TIP3    H131339   4.830   0.850   5.549  0.5656 -0.9525  1.1791
 3308TIP3    H231340   4.877   0.991   5.579  1.1905 -0.3636 -2.1764
 3309TIP3   OH231341   1.039   2.687  12.993  0.1786  0.2822  0.1226
 3309TIP3    H131342   0.954   2.671  12.951 -0.9162 -0.1144  2.3173
 3309TIP3    H231343   1.103   2.655  12.930 -1.2054  1.5062 -2.0562
 3310TIP3   OH231344   6.396   5.017  11.613  0.5743 -0.1877  0.2413
 3310TIP3    H131345   6.438   5.092  11.571 -1.0882 -0.5558 -2.2376
 3310TIP3    H231346   6.444   4.941  11.580 -1.3050 -0.5459 -1.9016
 3311TIP3   OH231347   3.344   4.883   4.620  0.6814 -0.0729  0.5524
 3311TIP3    H131348   3.367   4.880   4.527  2.4159  1.2110  0.8960
 3311TIP3    H231349   3.357   4.793   4.651 -0.0258 -0.5359 -0.4520
 3312TIP3   OH231350   1.405   5.814  12.563  0.5033 -0.1464 -0.1844
 3312TIP3    H131351   1.445   5.727  12.555 -0.1135 -0.5005  0.4609
 3312TIP3    H231352   1.424   5.841  12.653  0.8969  0.5008 -0.4488
 3313TIP3   OH231353   5.065   0.523  12.364  0.0559 -0.4006 -0.0756
 3313TIP3    H131354   4.976   0.556  12.350  0.5835  1.4684  0.6091
 3313TIP3    H231355   5.053   0.438  12.404 -1.4063 -1.3170 -2.2594
 3314TIP3   OH231356   5.449   1.104  12.219  0.2993  0.0183 -0.7258
 3314TIP3    H131357   5.507   1.109  12.295  0.7152  0.0627 -1.0340
 3314TIP3    H231358   5.361   1.096  12.255  0.5861 -1.1295 -0.2458
 3315TIP3   OH231359   6.663   1.051   3.070 -0.0252 -0.0071  0.0820
 3315TIP3    H131360   6.746   1.007   3.088 -1.5568 -2.7455  1.1636
 3315TIP3    H231361   6.666   1.070   2.976  1.8397  0.0267  0.1187
 3316TIP3   OH231362   2.113   5.576   2.823  0.8528 -0.0355 -0.6314
 3316TIP3    H131363   2.155   5.662   2.821 -0.9340  0.8755 -1.5704
 3316TIP3    H231364   2.175   5.518   2.778  1.6776  0.9558 -0.8110
 3317TIP3   OH231365   5.040   3.793  15.720  0.1407 -0.1360  0.1009
 3317TIP3    H131366   5.072   3.880  15.743  0.6560  0.0339 -1.1406
 3317TIP3    H231367   4.952   3.807  15.686  0.1643 -0.1133  0.0488
 3318TIP3   OH231368   5.751   4.591   4.268 -0.1356 -0.2275 -0.0371
 3318TIP3    H131369   5.691   4.543   4.325 -0.2007 -0.5699 -0.3878
 3318TIP3    H231370   5.761   4.677   4.309 -1.4328  0.0879 -0.3622
 3319TIP3   OH231371   2.466   4.870   3.323  0.0651 -0.3301 -0.4808
 3319TIP3    H131372   2.417   4.907   3.396  0.1169  1.2713 -1.2287
 3319TIP3    H231373   2.460   4.775   3.336  1.8942 -0.1507  2.8402
 3320TIP3   OH231374   2.858   4.546   1.923  0.0290  0.4561 -0.2369
 3320TIP3    H131375   2.830   4.572   2.011  0.8329 -0.7118  0.3979
 3320TIP3    H231376   2.808   4.466   1.905  0.7010  0.0497 -0.3520
 3321TIP3   OH231377   3.685   4.693   1.519  0.0532  0.3351 -0.5518
 3321TIP3    H131378   3.674   4.599   1.536  1.6870 -0.2449 -2.3014
 3321TIP3    H231379   3.697   4.732   1.605 -2.9904 -0.6533  0.4366
 3322TIP3   OH231380   1.346   1.585  13.540  0.5401  0.1523  0.0103
 3322TIP3    H131381   1.277   1.613  13.599  1.3958  2.2098  0.1134
 3322TIP3    H231382   1.302   1.529  13.476 -0.3276 -2.6903  2.8299
 3323TIP3   OH231383   6.682   3.645  15.467  0.0630  0.0790  0.2131
 3323TIP3    H131384   6.646   3.560  15.489 -0.1148  0.2556  0.5994
 3323TIP3    H231385   6.621   3.681  15.403  0.7959 -0.6041 -0.9200
 3324TIP3   OH231386   1.088   4.445   5.792 -0.1833  0.6515 -0.0069
 3324TIP3    H131387   1.165   4.475   5.744  0.3741  0.3140  0.6771
 3324TIP3    H231388   1.084   4.351   5.775  1.3783  0.0741  2.4702
 3325TIP3   OH231389   5.165   0.996  16.646 -0.2212  0.2149  0.3091
 3325TIP3    H131390   5.212   0.963  16.723 -0.3029  0.8820  0.6509
 3325TIP3    H231391   5.228   1.052  16.601 -0.9083  1.7517  1.1963
 3326TIP3   OH231392   2.455   5.763   5.371  0.2066  0.4102 -0.1506
 3326TIP3    H131393   2.391   5.821   5.330 -0.3207  0.7083  1.0480
 3326TIP3    H231394   2.458   5.791   5.462  0.7053 -0.7835  0.2237
 3327TIP3   OH231395   2.784   2.341  16.057 -0.2736  0.7584 -0.2092
 3327TIP3    H131396   2.761   2.267  16.001 -0.7755  0.1191  0.8188
 3327TIP3    H231397   2.791   2.416  15.996  1.7140 -0.3823 -1.5007
 3328TIP3   OH231398   0.577   5.987   2.099  0.0282  0.2116 -0.6483
 3328TIP3    H131399   0.571   5.918   2.165  0.1659  1.5673  0.8594
 3328TIP3    H231400   0.491   5.988   2.057 -0.3825 -0.0684  0.1704
 3329TIP3   OH231401   3.752   5.166   5.962  0.5319  0.4457 -0.4438
 3329TIP3    H131402   3.835   5.177   5.916  0.9907 -1.3647 -0.1656
 3329TIP3    H231403   3.772   5.186   6.054 -0.1314  3.0368 -0.8036
 3330TIP3   OH231404   2.288   0.875   0.381  0.1113  0.2427 -0.0408
 3330TIP3    H131405   2.210   0.862   0.327 -0.4851 -0.0186  0.8484
 3330TIP3    H231406   2.339   0.794   0.371 -0.2667 -0.0297  0.2063
 3331TIP3   OH231407   0.548   3.233   5.616 -0.1153  0.2140 -0.1007
 3331TIP3    H131408   0.550   3.320   5.657  0.0468  0.0094  0.3350
 3331TIP3    H231409   0.457   3.204   5.623 -0.1541  0.3177 -0.1795
 3332TIP3   OH231410   0.730   5.037  16.579  0.3100 -0.0532 -0.1140
 3332TIP3    H131411   0.671   5.009  16.509  0.0947  0.4012 -0.1136
 3332TIP3    H231412   0.796   4.967  16.583  0.3753 -0.0483 -0.8330
 3333TIP3   OH231413   1.843   1.405  11.453 -0.2446  0.2900 -0.3190
 3333TIP3    H131414   1.888   1.424  11.370  0.9641 -0.3908  0.1484
 3333TIP3    H231415   1.892   1.455  11.518  0.7485 -1.5096  0.4007
 3334TIP3   OH231416   2.176   1.958   4.163 -0.1305 -0.3799  0.2879
 3334TIP3    H131417   2.103   1.934   4.106 -0.7867 -0.7909  1.2733
 3334TIP3    H231418   2.252   1.961   4.104 -1.1642  1.5464 -1.0549
 3335TIP3   OH231419   0.658   0.872   4.985  0.1068  0.5505  0.6044
 3335TIP3    H131420   0.726   0.900   4.924 -0.5641  0.5183 -0.1747
 3335TIP3    H231421   0.668   0.929   5.061 -0.7414  2.4165 -0.6192
 3336TIP3   OH231422   5.709   2.310   5.807  0.0752  0.1832 -0.0255
 3336TIP3    H131423   5.762   2.342   5.734  1.9384  0.8480  1.5302
 3336TIP3    H231424   5.735   2.218   5.817 -0.6559 -0.0914 -0.5792
 3337TIP3   OH231425   6.143   4.697  11.395 -0.7307  0.2917  0.3277
 3337TIP3    H131426   6.085   4.625  11.422 -1.2473  1.2303  1.8400
 3337TIP3    H231427   6.230   4.669  11.425 -0.5545 -0.6248 -0.9690
 3338TIP3   OH231428   5.769   5.918   4.934 -0.0114  0.3988  0.1927
 3338TIP3    H131429   5.813   5.854   4.989 -0.2324  2.4466  3.0152
 3338TIP3    H231430   5.681   5.882   4.920  0.1750 -0.3514  0.9061
 3339TIP3   OH231431   1.822   6.554  16.455  0.0587  0.1778  0.4179
 3339TIP3    H131432   1.876   6.531  16.379 -0.6447 -0.8583  0.2145
 3339TIP3    H231433   1.733   6.558  16.420 -0.0843  1.2677  0.8764
 3340TIP3   OH231434   4.746   2.257   1.609 -0.8913 -0.0206  0.3205
 3340TIP3    H131435   4.795   2.267   1.528 -2.5920  3.0325 -0.4963
 3340TIP3    H231436   4.809   2.280   1.678 -0.5413  1.7884 -0.5429
 3341TIP3   OH231437   5.930   4.515  12.682  0.1187  0.9003  0.0584
 3341TIP3    H131438   5.857   4.454  12.674 -0.0635  1.0592  0.4688
 3341TIP3    H231439   5.958   4.506  12.773  2.1605 -0.9119 -0.6473
 3342TIP3   OH231440   3.116   3.549   2.443 -0.4078  0.1085 -0.6895
 3342TIP3    H131441   3.104   3.497   2.363 -0.2763  0.0452 -0.6692
 3342TIP3    H231442   3.206   3.530   2.470 -0.8453 -0.8696  0.1807
 3343TIP3   OH231443   1.286   0.202  14.043 -0.4931 -0.2045 -0.0469
 3343TIP3    H131444   1.224   0.173  13.976 -1.3088  2.3765 -0.5444
 3343TIP3    H231445   1.355   0.135  14.043 -1.5686 -1.4113 -1.8915
 3344TIP3   OH231446   2.189   5.211  10.858 -0.3245  0.5085  0.4791
 3344TIP3    H131447   2.244   5.134  10.872  1.5318  1.5345 -0.6689
 3344TIP3    H231448   2.114   5.179  10.807  0.2778 -0.5865  0.2743
 3345TIP3   OH231449   1.950   2.764   4.808 -0.0875  0.1767  0.2568
 3345TIP3    H131450   1.924   2.774   4.899  2.6601  1.2699  0.9956
 3345TIP3    H231451   1.867   2.763   4.760 -1.5823  0.1574  2.6771
 3346TIP3   OH231452   1.718   6.239   1.640 -0.3646  0.1413 -0.3429
 3346TIP3    H131453   1.758   6.290   1.569 -0.1307  0.4624  0.0153
 3346TIP3    H231454   1.787   6.230   1.705 -0.1946 -1.2129 -0.6810
 3347TIP3   OH231455   1.251   5.072   1.799 -0.1229  0.3244 -0.2869
 3347TIP3    H131456   1.213   5.028   1.722 -0.6402  1.6846 -0.8339
 3347TIP3    H231457   1.238   5.165   1.782  1.8322  0.7631  0.3830
 3348TIP3   OH231458   4.754   4.865   1.360  0.5186  0.3597  0.0964
 3348TIP3    H131459   4.703   4.787   1.380  0.8155  0.5073  1.4861
 3348TIP3    H231460   4.829   4.861   1.420  0.9031  1.3611 -0.2952
 3349TIP3   OH231461   3.087   0.817   6.466 -0.4159  0.5894 -0.0418
 3349TIP3    H131462   3.085   0.723   6.487 -1.7469  0.7774  0.8588
 3349TIP3    H231463   3.179   0.842   6.476 -0.3324 -0.2287  1.6963
 3350TIP3   OH231464   4.734   0.540  15.593  0.2630 -0.0580 -0.5411
 3350TIP3    H131465   4.639   0.541  15.577 -0.4319 -0.1648  2.8228
 3350TIP3    H231466   4.750   0.620  15.642  1.9130 -0.1899 -0.8213
 3351TIP3   OH231467   4.306   4.478   1.501  0.7745 -0.6618 -0.2235
 3351TIP3    H131468   4.354   4.407   1.544 -2.0245 -1.2171  2.3067
 3351TIP3    H231469   4.320   4.554   1.557  0.3201 -0.3220 -0.5672
 3352TIP3   OH231470   4.177   2.783   0.518  0.4051  0.1859  0.1853
 3352TIP3    H131471   4.138   2.844   0.580 -0.4573 -1.9014  1.8266
 3352TIP3    H231472   4.104   2.730   0.488  1.2035 -0.4027 -0.7771
 3353TIP3   OH231473   2.652   3.792  14.629  0.2005 -0.7341 -0.4017
 3353TIP3    H131474   2.581   3.732  14.605 -1.7432  0.8191  1.1384
 3353TIP3    H231475   2.635   3.814  14.721  1.0230  1.9054 -0.8062
 3354TIP3   OH231476   6.677   4.126  16.223  0.3546 -0.1227  0.2206
 3354TIP3    H131477   6.678   4.216  16.190 -0.1585 -0.2488 -0.1559
 3354TIP3    H231478   6.742   4.126  16.293 -0.2486  0.7715  0.8138
 3355TIP3   OH231479   1.475   6.087   2.202  0.4834 -0.4573 -0.3672
 3355TIP3    H131480   1.441   6.006   2.162 -1.7037  0.4759 -0.5845
 3355TIP3    H231481   1.556   6.105   2.154  0.6139 -2.1005 -0.8351
 3356TIP3   OH231482   4.240   1.483   4.636 -0.2798 -0.1054  0.0068
 3356TIP3    H131483   4.223   1.507   4.727 -0.2746  1.5954 -0.4152
 3356TIP3    H231484   4.332   1.506   4.622 -0.0230 -1.2002 -0.1823
 3357TIP3   OH231485   1.689   3.376   1.734 -0.1117 -0.2394 -0.3813
 3357TIP3    H131486   1.647   3.462   1.738  0.5293  0.0438  0.5487
 3357TIP3    H231487   1.774   3.393   1.695 -0.5893 -0.7238 -1.7112
 3358TIP3   OH231488   1.226   3.042   4.768  0.3840  1.0257 -0.2693
 3358TIP3    H131489   1.309   3.056   4.722  1.1908  1.8569  1.3373
 3358TIP3    H231490   1.253   3.014   4.856 -0.9469  3.2901  0.9482
 3359TIP3   OH231491   5.379   6.005  13.459  0.1942 -0.1289 -0.2849
 3359TIP3    H131492   5.397   6.033  13.549  1.0712 -2.1185  0.2126
 3359TIP3    H231493   5.348   6.084  13.415 -0.5956  0.8211  1.8482
 3360TIP3   OH231494   0.507   6.320   3.491 -0.5197 -0.1181 -0.6875
 3360TIP3    H131495   0.420   6.330   3.529  0.2918 -0.9022  1.5159
 3360TIP3    H231496   0.496   6.343   3.398 -2.6622  1.5941 -0.0768
 3361TIP3   OH231497   5.144   5.150  12.435 -0.7649  0.0319 -0.3837
 3361TIP3    H131498   5.086   5.079  12.463 -2.9931  1.6105 -0.8042
 3361TIP3    H231499   5.211   5.106  12.383 -2.0880 -1.7775 -0.6565
 3362TIP3   OH231500   6.618   3.774  12.806 -0.0351  0.8505  0.0022
 3362TIP3    H131501   6.681   3.817  12.749 -1.2747  1.4490 -0.9597
 3362TIP3    H231502   6.532   3.796  12.769 -0.8300  0.2000  1.3580
 3363TIP3   OH231503   1.688   4.697   3.883  0.2117  0.0124  0.0999
 3363TIP3    H131504   1.680   4.793   3.880  0.3462  0.0709  1.2442
 3363TIP3    H231505   1.771   4.678   3.840 -0.7603  0.2283 -2.0121
 3364TIP3   OH231506   4.383   6.748  14.898 -0.4501 -0.5375 -0.5068
 3364TIP3    H131507   4.436   6.811  14.948  0.0855 -1.3963  0.0198
 3364TIP3    H231508   4.385   6.782  14.808 -0.6389  0.5057 -0.1352
 3365TIP3   OH231509   5.026   5.882   0.914 -0.5940 -0.4888 -0.4854
 3365TIP3    H131510   5.052   5.911   0.826 -1.7903 -0.5119 -0.8657
 3365TIP3    H231511   4.932   5.867   0.907 -0.5603 -1.3134  0.5804
 3366TIP3   OH231512   4.314   1.452   0.484 -0.6967 -0.3787 -0.1800
 3366TIP3    H131513   4.228   1.440   0.525  0.8319 -1.8057  2.9234
 3366TIP3    H231514   4.294   1.469   0.392 -4.2329 -2.7564 -0.0534
 3367TIP3   OH231515   2.910   1.667  12.084 -0.2334  0.3162  0.4752
 3367TIP3    H131516   2.905   1.582  12.040 -4.6773  0.0596  1.0045
 3367TIP3    H231517   2.915   1.646  12.177  3.0175  0.8331  0.5423
 3368TIP3   OH231518   3.763   3.188  11.809 -0.2801 -0.3870 -0.3048
 3368TIP3    H131519   3.740   3.256  11.873 -0.5018 -2.0304  1.4555
 3368TIP3    H231520   3.679   3.146  11.789 -0.2201  0.1496 -1.7743
 3369TIP3   OH231521   3.200   4.310  15.139  0.0758 -0.9641 -0.5689
 3369TIP3    H131522   3.224   4.401  15.119 -4.0032  0.4341  0.0360
 3369TIP3    H231523   3.207   4.266  15.054  0.7867  0.2333 -1.1777
 3370TIP3   OH231524   1.475   6.095  13.819  0.1175  0.5031 -0.1528
 3370TIP3    H131525   1.465   6.183  13.855 -1.1730  0.9082 -1.4220
 3370TIP3    H231526   1.389   6.072  13.785  0.5176 -1.1215 -0.1662
 3371TIP3   OH231527   4.537   5.910   2.122 -0.2564  0.4513  0.7415
 3371TIP3    H131528   4.465   5.867   2.168  0.5682 -2.6152 -0.5658
 3371TIP3    H231529   4.500   5.994   2.093 -1.9720  0.7647  3.4976
 3372TIP3   OH231530   5.928   4.673   4.062 -0.3095 -0.2874 -0.3410
 3372TIP3    H131531   5.888   4.611   4.123  2.8530 -0.5413  1.7328
 3372TIP3    H231532   5.891   4.757   4.086 -0.7366 -0.6965  0.4986
 3373TIP3   OH231533   5.284   6.553   4.838  0.5073  0.9457 -0.1589
 3373TIP3    H131534   5.266   6.516   4.924  0.9988  2.3005  0.5607
 3373TIP3    H231535   5.375   6.583   4.843 -0.0294  2.7490 -0.4764
 3374TIP3   OH231536   0.259   3.259  13.713 -0.2713 -0.3400 -0.0408
 3374TIP3    H131537   0.190   3.321  13.689 -0.7152 -1.3335 -1.4924
 3374TIP3    H231538   0.341   3.304  13.692 -0.5250  0.2647  0.2415
 3375TIP3   OH231539   1.032   1.300  15.139  0.3281 -0.2687  0.0546
 3375TIP3    H131540   0.958   1.348  15.176  0.7636  0.8850 -0.5009
 3375TIP3    H231541   1.058   1.238  15.207 -0.8166 -0.3296  0.4498
 3376TIP3   OH231542   5.961   3.283  14.113 -0.7928  0.2657  0.2564
 3376TIP3    H131543   6.015   3.205  14.128  0.7291  1.3262  0.5103
 3376TIP3    H231544   6.006   3.330  14.043  0.3870  2.6656  2.4547
 3377TIP3   OH231545   3.739   4.979   2.461 -0.4311  0.3496 -0.2779
 3377TIP3    H131546   3.791   4.980   2.542 -0.6897  0.5025 -0.1132
 3377TIP3    H231547   3.798   5.015   2.395  0.3640 -1.3203 -0.5244
 3378TIP3   OH231548   0.352   0.122  12.831  0.5605 -0.4840 -0.5226
 3378TIP3    H131549   0.337   0.197  12.773 -2.1464 -1.3430 -1.0912
 3378TIP3    H231550   0.307   0.145  12.912  0.3093 -1.1640 -0.4613
 3379TIP3   OH231551   1.836   4.012   4.933 -0.3589  0.4054  0.4997
 3379TIP3    H131552   1.810   4.092   4.888  3.0913  0.7911 -1.0908
 3379TIP3    H231553   1.861   4.041   5.021 -4.6143  0.0323  2.0538
 3380TIP3   OH231554   3.861   6.584  13.318  0.4229  0.0168  0.2805
 3380TIP3    H131555   3.829   6.579  13.228 -0.9627  0.8506  0.6928
 3380TIP3    H231556   3.805   6.524  13.366  1.2093 -0.4802  0.5792
 3381TIP3   OH231557   5.377   6.138  13.725 -0.4332 -0.8174  0.1357
 3381TIP3    H131558   5.292   6.106  13.756 -0.9025 -0.6246 -0.9164
 3381TIP3    H231559   5.440   6.102  13.787 -1.3992  0.2268  1.7897
 3382TIP3   OH231560   4.247   1.545  11.806  0.1215 -0.1774  0.4114
 3382TIP3    H131561   4.217   1.456  11.827  0.4726 -0.2926  0.4256
 3382TIP3    H231562   4.166   1.597  11.802 -0.2477 -0.8087 -1.1268
 3383TIP3   OH231563   6.127   4.966  11.510 -0.0007  0.4146  0.5003
 3383TIP3    H131564   6.207   4.960  11.563  0.5287  0.2831 -0.2830
 3383TIP3    H231565   6.111   4.877  11.480 -0.5578  0.4089  0.8057
 3384TIP3   OH231566   1.972   1.967   2.380  0.4200  0.3722 -1.0156
 3384TIP3    H131567   1.877   1.966   2.380  0.4035  1.1271 -1.9563
 3384TIP3    H231568   1.998   1.876   2.367 -0.1587  0.1215 -0.4578
 3385TIP3   OH231569   6.742   5.303   4.340  0.0947 -0.1404 -0.1258
 3385TIP3    H131570   6.708   5.217   4.315 -1.3491  0.6081 -0.8742
 3385TIP3    H231571   6.740   5.354   4.260  1.3516  0.4869  0.2144
 3386TIP3   OH231572   2.297   4.914  16.545 -0.1024  1.0277 -0.0989
 3386TIP3    H131573   2.213   4.873  16.563  0.5482 -0.7291 -0.8252
 3386TIP3    H231574   2.333   4.935  16.631  0.1969 -1.3981  0.4478
 3387TIP3   OH231575   3.454   1.430  17.161  0.1498 -0.1437  0.1702
 3387TIP3    H131576   3.519   1.375  17.118  0.2770  0.0916  0.0660
 3387TIP3    H231577   3.419   1.486  17.092 -2.7980 -2.7075 -0.6632
 3388TIP3   OH231578   3.319   4.165  16.361  0.0674  0.4293  0.2627
 3388TIP3    H131579   3.351   4.256  16.366  0.9703  0.1478 -0.1430
 3388TIP3    H231580   3.399   4.113  16.350 -0.5778 -0.2782 -1.1915
 3389TIP3   OH231581   1.456   2.125   5.334 -0.5178  0.4360  0.1514
 3389TIP3    H131582   1.405   2.105   5.256  0.6712 -3.3838  0.1428
 3389TIP3    H231583   1.402   2.093   5.407  0.0154  0.3287  0.5063
 3390TIP3   OH231584   3.022   4.708   6.109 -0.4428 -0.3412 -0.2158
 3390TIP3    H131585   3.097   4.751   6.149 -0.7882  1.8458 -1.7117
 3390TIP3    H231586   2.951   4.721   6.171 -0.3555  0.6507 -0.3055
 3391TIP3   OH231587   5.949   3.090  14.973  0.0507  0.0571 -0.0330
 3391TIP3    H131588   6.005   3.140  14.915 -1.2969  0.3817 -1.1017
 3391TIP3    H231589   5.940   3.005  14.930  1.0711 -0.6053  0.9986
 3392TIP3   OH231590   0.809   1.449   6.593 -0.2447  0.0831 -0.1721
 3392TIP3    H131591   0.884   1.508   6.583  1.3034 -1.9211 -1.0150
 3392TIP3    H231592   0.824   1.404   6.676 -0.7996  0.0285 -0.0968
 3393TIP3   OH231593   1.762   2.255   6.693 -0.2417 -0.6767  0.0953
 3393TIP3    H131594   1.724   2.180   6.646 -1.0055 -0.1140 -0.1993
 3393TIP3    H231595   1.856   2.246   6.679 -0.4357 -0.6441 -1.3904
 3394TIP3   OH231596   3.585   4.123   3.188  0.1551 -0.0000 -0.7560
 3394TIP3    H131597   3.558   4.149   3.100 -0.8802 -1.3248 -0.8517
 3394TIP3    H231598   3.582   4.204   3.239 -0.3300  0.5714 -1.6682
 3395TIP3   OH231599   4.851   4.608  15.338 -0.3039 -0.0533 -0.2841
 3395TIP3    H131600   4.871   4.634  15.428  0.1579  0.0583 -0.4150
 3395TIP3    H231601   4.786   4.538  15.347  0.5941 -0.8630  0.1933
 3396TIP3   OH231602   0.214   6.276   2.800  0.4029  0.1735  0.0882
 3396TIP3    H131603   0.283   6.265   2.734  0.7464  3.8341 -0.3664
 3396TIP3    H231604   0.241   6.219   2.872  2.6794 -0.2468 -0.9907
 3397TIP3   OH231605   1.343   2.995   5.001  0.3311 -0.2463 -1.0590
 3397TIP3    H131606   1.292   2.990   5.082  1.3720 -2.1069 -0.4445
 3397TIP3    H231607   1.380   3.083   5.000 -2.0169  0.7865 -1.0146
 3398TIP3   OH231608   6.356   3.403  11.246 -0.3298 -0.2166  0.4459
 3398TIP3    H131609   6.278   3.400  11.302 -0.4481  3.9115  0.8034
 3398TIP3    H231610   6.427   3.428  11.305  0.4262 -0.0120 -0.5320
 3399TIP3   OH231611   0.948   3.217  14.299  0.3541 -0.3392 -0.3724
 3399TIP3    H131612   0.987   3.276  14.364 -0.6875 -0.7306  0.6580
 3399TIP3    H231613   0.944   3.132  14.344 -2.4772 -0.1290 -0.0303
 3400TIP3   OH231614   5.014   0.131   6.429 -0.1599 -0.1896  0.0224
 3400TIP3    H131615   5.044   0.138   6.339 -2.9042 -1.8278 -1.1281
 3400TIP3    H231616   4.947   0.200   6.437  1.0082  0.8575  1.2996
 3401TIP3   OH231617   2.149   0.046  14.242 -0.2911 -0.0776  0.0729
 3401TIP3    H131618   2.209  -0.009  14.191 -0.0569  0.0870  0.1656
 3401TIP3    H231619   2.163   0.018  14.333 -2.4280 -2.0440 -0.1215
 3402TIP3   OH231620   2.760   3.608  12.194  0.2725  0.5650 -0.4942
 3402TIP3    H131621   2.756   3.673  12.264 -0.5435 -0.0522  0.0578
 3402TIP3    H231622   2.718   3.530  12.231  1.0377 -0.2111 -1.2118
 3403TIP3   OH231623   5.502   3.607   2.426 -0.1448 -0.1855  0.1872
 3403TIP3    H131624   5.480   3.596   2.334 -0.3891 -1.4309  0.3730
 3403TIP3    H231625   5.576   3.666   2.427  1.4042 -2.0085 -0.9930
 3404TIP3   OH231626   5.809   2.950   5.262  0.1752 -0.3617  0.4537
 3404TIP3    H131627   5.798   3.010   5.188  2.6730 -0.0847  0.2293
 3404TIP3    H231628   5.769   2.996   5.336 -0.6556  0.2031 -0.3152
 3405TIP3   OH231629   0.314   4.644  15.504 -0.2194 -0.2526  0.3821
 3405TIP3    H131630   0.333   4.737  15.514 -0.4594 -0.0765 -0.6094
 3405TIP3    H231631   0.248   4.625  15.571 -0.9774  0.5644 -0.1068
 3406TIP3   OH231632   5.521   6.387   4.466  0.7221 -0.0072 -0.5114
 3406TIP3    H131633   5.578   6.464   4.472  0.4571  0.2074 -0.7004
 3406TIP3    H231634   5.433   6.422   4.481  0.8120 -0.6326  1.8549
 3407TIP3   OH231635   5.180   6.748   2.151  0.4937  0.1827  0.1697
 3407TIP3    H131636   5.140   6.673   2.195  0.3923  0.4566  0.5461
 3407TIP3    H231637   5.273   6.740   2.169  0.8147 -1.1258 -1.6932
 3408TIP3   OH231638   5.648   1.427  11.196 -0.2744 -0.2779 -0.1465
 3408TIP3    H131639   5.731   1.397  11.159  0.4910  1.5702 -0.0709
 3408TIP3    H231640   5.650   1.397  11.287  1.4818  1.7435  0.5698
 3409TIP3   OH231641   3.598   2.200  12.553 -0.4397  0.5367  0.3262
 3409TIP3    H131642   3.643   2.115  12.553 -0.0192  0.5399  4.2958
 3409TIP3    H231643   3.516   2.184  12.508  0.4104 -1.4445 -0.6585
 3410TIP3   OH231644   2.178   0.905   2.278  0.4291 -0.3662 -0.7042
 3410TIP3    H131645   2.262   0.861   2.293 -0.0806 -1.1661 -0.1116
 3410TIP3    H231646   2.189   0.991   2.318  1.0043 -0.4280 -0.7218
 3411TIP3   OH231647   6.674   6.586   6.057 -0.1088 -0.5243 -0.1015
 3411TIP3    H131648   6.620   6.665   6.044 -1.8378 -1.4926  0.7905
 3411TIP3    H231649   6.751   6.601   6.003 -0.0884  2.0389  0.4750
 3412TIP3   OH231650   2.299   0.302  12.842  0.2089 -0.1393  0.4945
 3412TIP3    H131651   2.376   0.299  12.786  0.4570  0.3138  0.7958
 3412TIP3    H231652   2.330   0.271  12.927  0.6753  2.1702  1.2628
 3413TIP3   OH231653   0.291   2.577  15.258  0.1987 -0.4609  0.5928
 3413TIP3    H131654   0.270   2.641  15.327  0.4308  0.1832  0.0768
 3413TIP3    H231655   0.242   2.607  15.182 -1.2334 -2.0003  0.8435
 3414TIP3   OH231656   3.419   1.706   5.493  0.3355  0.2855  0.0357
 3414TIP3    H131657   3.448   1.642   5.428 -1.2653 -1.8755  1.3156
 3414TIP3    H231658   3.467   1.681   5.573  0.4520  1.3553  0.3075
 3415TIP3   OH231659   3.409   3.606   4.443  0.3915 -0.4051 -0.2857
 3415TIP3    H131660   3.403   3.604   4.348 -1.9612  1.4406 -0.2845
 3415TIP3    H231661   3.348   3.676   4.469  1.7883 -0.1007  2.5112
 3416TIP3   OH231662   0.058   6.335  15.843 -0.2567 -0.4544 -0.1717
 3416TIP3    H131663   0.130   6.398  15.846  1.0849 -1.9383 -0.2414
 3416TIP3    H231664   0.003   6.366  15.771  0.1326  0.8679  0.0671
 3417TIP3   OH231665   0.931   5.455  11.492  0.5095 -0.5729 -0.9531
 3417TIP3    H131666   0.932   5.390  11.422  0.0245 -0.8147 -0.7372
 3417TIP3    H231667   0.863   5.425  11.552  2.0304 -1.2818  0.4915
 3418TIP3   OH231668   5.147   3.223  10.526  0.3209 -0.0909  0.4621
 3418TIP3    H131669   5.197   3.155  10.481 -1.2502 -1.2863  0.4303
 3418TIP3    H231670   5.197   3.303  10.512  0.8324 -0.7406 -1.8541
 3419TIP3   OH231671   0.839   5.145  12.896 -0.3011 -0.3683  0.3727
 3419TIP3    H131672   0.761   5.090  12.894 -0.7398  0.2525 -0.4500
 3419TIP3    H231673   0.909   5.089  12.865 -0.4637 -0.8564  0.8702
 3420TIP3   OH231674   2.241   4.441   0.691  0.2588  0.0378  0.0153
 3420TIP3    H131675   2.199   4.434   0.605  1.2426  0.6194 -0.5267
 3420TIP3    H231676   2.334   4.447   0.673  0.5190 -0.2077  1.1532
 3421TIP3   OH231677   0.895   0.751   2.756 -0.5124 -0.5053 -0.2268
 3421TIP3    H131678   0.922   0.675   2.808  1.4439  0.5278  0.3380
 3421TIP3    H231679   0.966   0.764   2.694 -0.5159  1.2541  0.0994
 3422TIP3   OH231680   1.489   0.834  14.908 -0.3322 -0.0233  0.0056
 3422TIP3    H131681   1.433   0.859  14.835  0.2484 -0.3109 -0.5508
 3422TIP3    H231682   1.506   0.741  14.894  1.0215  0.2602 -0.3579
 3423TIP3   OH231683   1.390   3.798   0.646 -0.1424  0.2506 -0.5837
 3423TIP3    H131684   1.473   3.768   0.609 -0.7707 -1.0273 -1.0300
 3423TIP3    H231685   1.340   3.829   0.571 -0.2392  0.5980 -0.3767
 3424TIP3   OH231686   0.220   2.267   0.559 -0.7266 -0.0094  0.3156
 3424TIP3    H131687   0.129   2.279   0.531 -0.8250 -0.4675  0.4294
 3424TIP3    H231688   0.225   2.175   0.586 -0.6039  0.3689  1.6875
 3425TIP3   OH231689   0.312   4.983   0.769  0.0641 -0.5549 -0.2803
 3425TIP3    H131690   0.379   4.953   0.830  1.3112  1.3643 -0.6102
 3425TIP3    H231691   0.359   5.003   0.688 -1.3069 -1.4910 -1.3611
 3426TIP3   OH231692   1.257   1.781  12.338  0.0759  0.0193 -0.4887
 3426TIP3    H131693   1.331   1.773  12.398  1.2993 -1.3750 -2.0808
 3426TIP3    H231694   1.180   1.761  12.392  1.0559 -0.5276  0.7602
 3427TIP3   OH231695   4.782   5.273  11.446 -1.0291 -0.3566 -0.3918
 3427TIP3    H131696   4.810   5.283  11.538  0.9415 -1.1711 -0.8350
 3427TIP3    H231697   4.733   5.353  11.427 -2.9995 -0.9185  1.8476
 3428TIP3   OH231698   6.586   0.515   0.817  0.1487  0.2941  0.2669
 3428TIP3    H131699   6.636   0.434   0.822 -0.5586 -0.1406  0.3515
 3428TIP3    H231700   6.593   0.542   0.725 -0.9085 -0.6989 -0.1207
 3429TIP3   OH231701   2.472   1.059  16.583  0.1003 -0.1194  0.3060
 3429TIP3    H131702   2.432   1.083  16.500 -1.4635  1.4839  1.4560
 3429TIP3    H231703   2.529   1.133  16.605  0.0095 -0.2354  0.9656
 3430TIP3   OH231704   2.309   2.355  14.978  0.0924 -0.5287 -0.0226
 3430TIP3    H131705   2.278   2.405  15.053  1.1842  0.0122  0.0823
 3430TIP3    H231706   2.299   2.414  14.904 -0.6336 -0.9315 -0.2576
 3431TIP3   OH231707   2.081   0.090   0.863 -0.2427 -0.0627 -0.3203
 3431TIP3    H131708   2.109   0.020   0.922 -0.1979  0.7841  0.7048
 3431TIP3    H231709   2.049   0.159   0.922  1.8134  1.7161 -1.1389
 3432TIP3   OH231710   1.047   3.370  14.506  0.1229  0.4306  0.3756
 3432TIP3    H131711   1.034   3.331  14.592  1.3413  1.0079  0.8602
 3432TIP3    H231712   1.041   3.465  14.521  0.5757  0.5465 -0.1091
 3433TIP3   OH231713   4.651   2.525  16.124 -0.1947  0.2431  0.2205
 3433TIP3    H131714   4.579   2.565  16.074 -1.8594 -1.9216  0.7098
 3433TIP3    H231715   4.730   2.558  16.083 -1.4719  1.4102 -1.4694
 3434TIP3   OH231716   0.255   3.039   0.205 -0.0976 -0.2092 -0.4120
 3434TIP3    H131717   0.168   3.005   0.185  0.5590 -1.1682 -1.7199
 3434TIP3    H231718   0.250   3.132   0.181 -0.6570 -0.3268 -0.7621
 3435TIP3   OH231719   3.016   2.477   3.200 -0.2761  0.5036  0.0977
 3435TIP3    H131720   3.111   2.488   3.192 -0.1805 -0.3559  0.0197
 3435TIP3    H231721   3.005   2.396   3.248 -0.9621 -0.8413 -2.1588
 3436TIP3   OH231722   5.003   0.694   3.480  0.1079  0.3252  0.3755
 3436TIP3    H131723   5.013   0.681   3.574  0.6642  0.6419  0.3638
 3436TIP3    H231724   4.911   0.675   3.463 -0.3637  1.7048  1.2229
 3437TIP3   OH231725   0.678   0.071  15.906 -0.1117  0.5125 -0.3808
 3437TIP3    H131726   0.650   0.070  15.998 -0.3956  0.4548 -0.4647
 3437TIP3    H231727   0.764   0.113  15.907  1.0977 -1.8110  0.2456
 3438TIP3   OH231728   3.695   5.356   3.230  0.0550  0.2829 -0.0679
 3438TIP3    H131729   3.643   5.313   3.162  1.8921 -0.1372 -1.2621
 3438TIP3    H231730   3.680   5.449   3.216 -2.3784  0.1909  1.2815
 3439TIP3   OH231731   3.099   1.547   5.772 -0.0093 -0.1923 -0.0324
 3439TIP3    H131732   3.165   1.615   5.780  1.8461 -1.3246 -3.6606
 3439TIP3    H231733   3.146   1.471   5.741 -2.6180 -2.0156  0.1418
 3440TIP3   OH231734   5.568   0.882  16.801 -0.1295 -0.0151  0.3537
 3440TIP3    H131735   5.612   0.875  16.886 -1.3291  0.6583  1.0720
 3440TIP3    H231736   5.624   0.834  16.740  1.5388  0.7636  1.2193
 3441TIP3   OH231737   3.184   0.923   0.404  0.0039 -0.2587 -0.3542
 3441TIP3    H131738   3.173   1.014   0.378 -2.4908  0.6476  3.0706
 3441TIP3    H231739   3.234   0.928   0.486 -0.5521 -1.9060  0.1223
 3442TIP3   OH231740   6.489   3.850   5.095 -0.2893 -0.5185  0.9229
 3442TIP3    H131741   6.403   3.856   5.052 -0.4285  0.6533  1.3294
 3442TIP3    H231742   6.545   3.810   5.028 -0.9964 -0.7223  0.4280
 3443TIP3   OH231743   1.409   6.023  13.151 -0.4520 -0.3880  0.5886
 3443TIP3    H131744   1.462   6.084  13.203  0.7423  0.6885 -1.7437
 3443TIP3    H231745   1.471   5.957  13.121 -1.0332 -0.7777  0.2233
 3444TIP3   OH231746   5.768   3.359   3.762  0.4107  0.3126 -0.3780
 3444TIP3    H131747   5.748   3.305   3.839 -1.5926 -0.6810 -1.5044
 3444TIP3    H231748   5.844   3.317   3.722 -0.4184 -1.0633 -0.5914
 3445TIP3   OH231749   1.088   6.755   3.169  0.6510  0.4988  0.1065
 3445TIP3    H131750   1.075   6.774   3.261 -0.4360  0.3890 -0.0152
 3445TIP3    H231751   1.114   6.663   3.167  1.3057  0.6745  0.3427
 3446TIP3   OH231752   4.608   5.473   5.160 -0.2179  0.0362  0.3941
 3446TIP3    H131753   4.517   5.446   5.155  0.4805 -2.3594 -2.1561
 3446TIP3    H231754   4.611   5.556   5.111 -0.9473 -0.2254 -0.1094
 3447TIP3   OH231755   5.154   2.249   2.804  0.4434  0.4841 -0.4864
 3447TIP3    H131756   5.137   2.230   2.713  1.2230 -0.4034 -0.4584
 3447TIP3    H231757   5.145   2.344   2.811 -0.5760  0.4523 -1.2616
 3448TIP3   OH231758   6.701   5.638   5.557 -0.1830 -0.5728 -0.5919
 3448TIP3    H131759   6.686   5.677   5.470  1.9905  0.4328 -0.5671
 3448TIP3    H231760   6.780   5.586   5.546  0.1991 -0.3090  0.8386
 3449TIP3   OH231761   6.652   6.638   5.704 -0.3960 -0.4698 -0.7545
 3449TIP3    H131762   6.577   6.584   5.731  1.0403 -2.7117 -1.0110
 3449TIP3    H231763   6.634   6.660   5.613 -1.0761 -0.3675 -0.6026
 3450TIP3   OH231764   1.321   0.372  12.784  0.0592 -0.0991 -0.3859
 3450TIP3    H131765   1.368   0.448  12.820 -0.5979 -0.0766  0.4575
 3450TIP3    H231766   1.294   0.323  12.861 -0.9080 -0.3487 -0.8723
 3451TIP3   OH231767   2.890   0.661   5.100 -0.3648  0.1953 -0.1837
 3451TIP3    H131768   2.957   0.722   5.071 -0.5616  1.6135  2.0530
 3451TIP3    H231769   2.860   0.618   5.020  1.5016  1.2487 -1.5333
 3452TIP3   OH231770   0.246   1.992  14.690  0.1427 -0.3412 -0.3539
 3452TIP3    H131771   0.244   2.054  14.617 -1.2186 -1.9200 -1.7298
 3452TIP3    H231772   0.204   1.913  14.656 -3.6080 -0.1459  3.0360
 3453TIP3   OH231773   5.596   6.655   5.147 -0.6321  0.7547  0.4989
 3453TIP3    H131774   5.579   6.661   5.241 -0.2450  0.4303  0.5926
 3453TIP3    H231775   5.610   6.562   5.131 -0.0686  0.8792  0.2370
 3454TIP3   OH231776   5.429   3.933   0.595 -0.3906 -0.8423  0.0676
 3454TIP3    H131777   5.514   3.964   0.566 -1.2491 -0.4664 -2.3486
 3454TIP3    H231778   5.440   3.838   0.605  0.4867 -0.6958  0.5210
 3455TIP3   OH231779   2.823   3.618  11.913 -0.7596 -0.2352 -0.2517
 3455TIP3    H131780   2.919   3.616  11.904 -0.5589 -0.1129  1.4826
 3455TIP3    H231781   2.808   3.605  12.007 -2.4510 -0.0656 -0.4738
 3456TIP3   OH231782   3.782   0.547   0.280 -0.3271  0.1132 -0.1066
 3456TIP3    H131783   3.738   0.463   0.293  0.1540 -0.1733 -0.3229
 3456TIP3    H231784   3.829   0.537   0.197 -0.7458  0.8020 -0.4481
 3457TIP3   OH231785   1.062   4.183   5.744 -0.8840 -0.1267  0.0652
 3457TIP3    H131786   0.990   4.120   5.736 -1.3429  0.4091 -0.1059
 3457TIP3    H231787   1.141   4.129   5.749 -1.3676 -0.7607  1.2624
 3458TIP3   OH231788   0.589   5.598  12.506 -0.3390 -0.2798 -0.4297
 3458TIP3    H131789   0.636   5.624  12.426 -1.0185 -2.0751 -1.4773
 3458TIP3    H231790   0.561   5.680  12.546  2.9469  0.8725 -0.1674
 3459TIP3   OH231791   1.376   0.182   5.889  0.2678  0.0875  0.0238
 3459TIP3    H131792   1.292   0.162   5.930  0.5228 -0.4521  0.2878
 3459TIP3    H231793   1.353   0.229   5.809 -0.2484  0.8507  0.6071
 3460TIP3   OH231794   5.452   0.487  13.934 -0.2183  0.3320  0.1921
 3460TIP3    H131795   5.503   0.543  13.992  2.4438 -1.6908 -0.0164
 3460TIP3    H231796   5.450   0.534  13.851  1.0004  0.6637  0.3346
 3461TIP3   OH231797   5.782   1.948   2.238  0.5778  0.2682 -0.1729
 3461TIP3    H131798   5.769   2.039   2.264  0.7887  0.1036  0.5472
 3461TIP3    H231799   5.862   1.921   2.285  0.4392 -0.3240 -0.2685
 3462TIP3   OH231800   1.062   4.636   5.260 -0.0644 -0.2168  0.6125
 3462TIP3    H131801   1.088   4.722   5.292 -1.0283  0.1952  0.3186
 3462TIP3    H231802   1.053   4.583   5.339  2.6497 -0.7060  0.6899
 3463TIP3   OH231803   0.025   2.502  13.006 -0.6912 -0.2185 -0.1579
 3463TIP3    H131804   0.053   2.592  12.989  0.4233 -0.6457 -0.6565
 3463TIP3    H231805   0.059   2.482  13.093  0.0880 -0.5440 -0.5290
 3464TIP3   OH231806   1.659   4.111   6.336  0.8101 -0.3553 -0.6025
 3464TIP3    H131807   1.639   4.017   6.342  1.0110 -0.4780 -1.6898
 3464TIP3    H231808   1.716   4.127   6.411 -0.1008 -0.8585  0.2256
 3465TIP3   OH231809   3.363   0.784  16.776 -0.2532 -0.0520 -0.1092
 3465TIP3    H131810   3.416   0.791  16.696 -0.1630 -4.2443 -0.6274
 3465TIP3    H231811   3.420   0.816  16.846  2.2128 -2.1960 -0.9792
 3466TIP3   OH231812   2.771   2.478   4.227 -0.3884 -0.3804 -0.2344
 3466TIP3    H131813   2.724   2.501   4.307 -1.6406  0.4719 -1.1901
 3466TIP3    H231814   2.860   2.511   4.242 -0.7334  0.2097  0.6062
 3467TIP3   OH231815   2.408   2.505  13.683  0.1809 -0.6136 -0.4379
 3467TIP3    H131816   2.413   2.520  13.777 -0.1876 -0.8669 -0.3763
 3467TIP3    H231817   2.492   2.536  13.649 -0.2783  0.9301 -0.2374
 3468TIP3   OH231818   5.570   4.854  15.554 -0.2642 -0.2327 -0.5712
 3468TIP3    H131819   5.523   4.935  15.534  0.1283 -0.1516 -1.1600
 3468TIP3    H231820   5.529   4.823  15.635  0.3815  1.1823  0.3405
 3469TIP3   OH231821   4.520   2.648  15.924  0.1099  0.3705  0.2120
 3469TIP3    H131822   4.440   2.628  15.874  0.6328  2.4350 -1.6118
 3469TIP3    H231823   4.494   2.718  15.983 -0.2989 -1.5332  2.4471
 3470TIP3   OH231824   3.454   5.497  14.016  0.0174  0.0364  0.4736
 3470TIP3    H131825   3.472   5.547  14.095 -0.7790  1.7508 -0.3701
 3470TIP3    H231826   3.538   5.493  13.970  0.0389  0.8967  0.4191
 3471TIP3   OH231827   4.110   1.513   2.478  0.2059 -0.0041  0.4717
 3471TIP3    H131828   4.179   1.572   2.447 -0.2656 -1.5581 -4.3266
 3471TIP3    H231829   4.028   1.559   2.457 -0.1452 -1.5757 -1.9306
 3472TIP3   OH231830   6.300   1.977  14.281  0.2874 -0.1207 -0.2471
 3472TIP3    H131831   6.258   2.056  14.315 -1.0885 -1.1085  0.4623
 3472TIP3    H231832   6.277   1.975  14.189 -2.2764 -1.1912  0.3290
 3473TIP3   OH231833   1.626   1.464  11.609 -0.1675 -0.2954 -0.1880
 3473TIP3    H131834   1.709   1.456  11.562  0.7631  2.9359  0.6668
 3473TIP3    H231835   1.582   1.537  11.566 -1.3502 -0.2459  1.0657
 3474TIP3   OH231836   3.175   1.603  14.513 -0.2374  0.2799 -0.5115
 3474TIP3    H131837   3.177   1.514  14.477 -1.5718  0.0312 -0.0367
 3474TIP3    H231838   3.202   1.659  14.440  0.4760 -0.4894 -0.8619
 3475TIP3   OH231839   6.601   4.185   4.566 -0.1897 -0.3725  0.0549
 3475TIP3    H131840   6.661   4.136   4.511  1.4173  0.6420  0.8304
 3475TIP3    H231841   6.575   4.123   4.634  1.8572 -0.2229  1.0564
 3476TIP3   OH231842   1.575   4.709   5.126 -0.1380 -0.3532 -0.4493
 3476TIP3    H131843   1.600   4.654   5.200 -0.1484  0.8882  0.5135
 3476TIP3    H231844   1.486   4.738   5.147  0.1523  0.6413 -0.5493
 3477TIP3   OH231845   4.587   0.374  12.981  0.3583 -0.2566 -0.1346
 3477TIP3    H131846   4.551   0.401  13.066 -2.0464  0.6961 -1.3725
 3477TIP3    H231847   4.606   0.281  12.992 -0.4141 -0.2835  1.2949
 3478TIP3   OH231848   4.952   2.941  13.638  0.3446  0.8061 -0.2403
 3478TIP3    H131849   4.905   2.891  13.704 -1.2180 -0.8132 -2.4154
 3478TIP3    H231850   5.044   2.925  13.656 -0.0736 -0.7031  0.7121
 3479TIP3   OH231851   6.523   2.593  14.716 -0.1208  0.4256 -0.3143
 3479TIP3    H131852   6.500   2.562  14.629 -0.4584 -1.0469  0.2652
 3479TIP3    H231853   6.439   2.616  14.756 -0.2826 -1.2700  0.4460
 3480TIP3   OH231854   4.335   5.833   3.989  0.7550 -0.2523  0.3945
 3480TIP3    H131855   4.428   5.834   4.011  1.0756 -1.2068 -0.8579
 3480TIP3    H231856   4.317   5.744   3.960 -0.7826 -0.3463  1.4889
 3481TIP3   OH231857   1.018   0.593   4.695 -0.5090 -0.3035  0.4161
 3481TIP3    H131858   1.088   0.529   4.680 -0.4460 -0.2279  0.3904
 3481TIP3    H231859   0.956   0.578   4.624 -0.2547 -0.0040  0.1295
 3482TIP3   OH231860   2.358   0.446  13.524 -0.1583  0.4530 -0.1953
 3482TIP3    H131861   2.432   0.439  13.463 -0.8282  1.0348 -1.1018
 3482TIP3    H231862   2.348   0.358  13.559 -0.7971 -0.3461 -2.2194
 3483TIP3   OH231863   6.525   3.852   6.212  0.0456 -0.3276  0.1227
 3483TIP3    H131864   6.619   3.842   6.225  0.3163  1.8201  0.0609
 3483TIP3    H231865   6.493   3.762   6.198  2.1672 -1.0192 -0.5522
 3484TIP3   OH231866   5.763   4.131   3.629 -0.0864 -0.2173 -0.1807
 3484TIP3    H131867   5.697   4.120   3.698  1.1996  0.6676  1.2545
 3484TIP3    H231868   5.774   4.044   3.592 -2.1026 -0.3625 -0.5193
 3485TIP3   OH231869   3.751   3.429  12.627 -0.5436  0.8095  0.9502
 3485TIP3    H131870   3.709   3.443  12.542  1.6231 -2.6331 -0.9300
 3485TIP3    H231871   3.689   3.374  12.675 -1.4968  2.2396  1.4176
 3486TIP3   OH231872   0.386   0.686  15.611 -0.5360 -0.0303  0.0623
 3486TIP3    H131873   0.293   0.669  15.592 -0.4177 -0.9767  0.3120
 3486TIP3    H231874   0.428   0.601  15.602  0.3764  0.4607 -0.3914
 3487TIP3   OH231875   4.549   4.675   5.378  0.7545  0.6560 -0.4947
 3487TIP3    H131876   4.608   4.693   5.452  0.6159  1.8873 -0.6608
 3487TIP3    H231877   4.484   4.614   5.413  0.4196  1.5749  0.5514
 3488TIP3   OH231878   0.254   4.233   4.972  0.1419 -0.0920 -0.0917
 3488TIP3    H131879   0.176   4.261   4.925  0.5594 -0.5235 -1.0581
 3488TIP3    H231880   0.317   4.210   4.904  1.7479  1.8934  0.6060
 3489TIP3   OH231881   6.175   0.012  14.942  0.0961  0.6475  0.2333
 3489TIP3    H131882   6.240  -0.051  14.914 -0.9945  0.2736 -1.5940
 3489TIP3    H231883   6.221   0.096  14.943  0.9233  0.1957  0.2911
 3490TIP3   OH231884   0.701   6.124  11.879  0.0293  0.0638 -0.8295
 3490TIP3    H131885   0.792   6.147  11.861 -0.3333  2.0586 -0.3676
 3490TIP3    H231886   0.650   6.189  11.830 -1.0636  1.2397  1.7190
 3491TIP3   OH231887   2.260   4.272   5.207  0.7243  0.6823 -0.4054
 3491TIP3    H131888   2.229   4.349   5.160  0.9673 -0.4557 -2.5822
 3491TIP3    H231889   2.215   4.275   5.291 -0.9660  2.0092 -1.2927
 3492TIP3   OH231890   0.130   4.220  11.943 -0.6179 -0.1601 -0.0831
 3492TIP3    H131891   0.105   4.176  12.024  0.3331  1.2914  1.0464
 3492TIP3    H231892   0.224   4.208  11.936 -0.4857  0.8662 -0.2465
 3493TIP3   OH231893   5.751   5.404   0.384  0.9640 -0.1533 -0.5913
 3493TIP3    H131894   5.796   5.428   0.464  1.0669  0.6134 -0.8712
 3493TIP3    H231895   5.820   5.372   0.326  1.0690  0.4850 -0.8194
 3494TIP3   OH231896   5.925   0.802  16.901  0.1404  0.3382  0.1645
 3494TIP3    H131897   5.849   0.853  16.931  1.1692  0.6400  2.4947
 3494TIP3    H231898   5.887   0.728  16.854 -1.4967  1.6562 -0.6973
 3495TIP3   OH231899   0.884   4.586  12.646 -0.2293  0.0068  0.4094
 3495TIP3    H131900   0.924   4.673  12.645  0.2222 -0.1885  0.7014
 3495TIP3    H231901   0.930   4.540  12.717 -2.7633  0.5944  2.5577
 3496TIP3   OH231902   0.421   1.530   6.405  0.1416  0.2645 -0.1992
 3496TIP3    H131903   0.449   1.613   6.366  0.8392 -0.4764 -1.3323
 3496TIP3    H231904   0.340   1.508   6.359  1.4940 -1.1258 -2.1110
 3497TIP3   OH231905   2.190   1.592  16.638 -0.5310  0.2684  0.5919
 3497TIP3    H131906   2.157   1.602  16.728  0.8117 -1.5233  1.3293
 3497TIP3    H231907   2.160   1.505  16.611 -0.2261  0.4617 -0.4177
 3498TIP3   OH231908   2.217   2.008  11.016 -0.1766 -0.1312 -0.0760
 3498TIP3    H131909   2.275   1.974  10.947 -1.3741  0.7469 -1.5845
 3498TIP3    H231910   2.248   2.098  11.031 -1.4045  0.5380 -1.2850
 3499TIP3   OH231911   5.234   0.338   1.315  0.2948  0.3924  0.6103
 3499TIP3    H131912   5.318   0.342   1.270  0.6740  1.1569  1.3519
 3499TIP3    H231913   5.246   0.272   1.383 -0.3962 -1.0342 -0.6079
 3500TIP3   OH231914   3.443   5.856   5.092  0.2557  0.1229 -0.0338
 3500TIP3    H131915   3.421   5.790   5.157  0.4745  0.7181  0.6660
 3500TIP3    H231916   3.512   5.816   5.040 -0.8597 -0.8817 -0.7886
 3501TIP3   OH231917   6.757   5.729   1.924  0.0160 -0.2903 -0.1814
 3501TIP3    H131918   6.764   5.681   2.006 -2.3162  0.2181  0.3934
 3501TIP3    H231919   6.725   5.664   1.861  0.0988 -0.2839 -0.2291
 3502TIP3   OH231920   1.004   3.014   4.617  0.2438 -0.2381 -0.8407
 3502TIP3    H131921   1.022   3.004   4.523  1.4322 -0.1504 -0.6368
 3502TIP3    H231922   1.089   3.033   4.656 -0.2218 -0.3648  0.2783
 3503TIP3   OH231923   0.588   0.902   6.045 -0.2729  0.0449 -0.0297
 3503TIP3    H131924   0.593   0.866   6.133 -1.5028 -1.2833 -0.4685
 3503TIP3    H231925   0.617   0.993   6.054  0.5496 -0.3496  1.5519
 3504TIP3   OH231926   2.373   0.898  15.527 -0.3669 -0.1447  0.3537
 3504TIP3    H131927   2.284   0.864  15.537  0.6786 -3.0792  0.7442
 3504TIP3    H231928   2.391   0.889  15.433 -0.6637  1.0461  0.1688
 3505TIP3   OH231929   1.873   2.188  14.758  0.3485  0.1559  0.0694
 3505TIP3    H131930   1.965   2.208  14.740  0.0140  0.2063 -1.7430
 3505TIP3    H231931   1.876   2.125  14.830  1.9118 -1.2562 -1.1604
 3506TIP3   OH231932   5.696   0.523  12.434  0.4194  0.1606 -0.1478
 3506TIP3    H131933   5.649   0.445  12.402 -1.5099  0.7689  1.0447
 3506TIP3    H231934   5.661   0.595  12.382  0.7633  0.5183  0.1120
 3507TIP3   OH231935   3.616   6.603  17.326 -0.0801 -0.8511  0.2328
 3507TIP3    H131936   3.605   6.684  17.276 -1.3855 -0.4470  1.1021
 3507TIP3    H231937   3.644   6.632  17.413 -0.5151 -1.3258  0.5409
 3508TIP3   OH231938   6.203   2.798  14.503  0.5321 -0.0397  0.0382
 3508TIP3    H131939   6.278   2.811  14.561  0.9907 -1.3272 -0.2300
 3508TIP3    H231940   6.242   2.786  14.416 -0.0908  0.9003 -0.3937
 3509TIP3   OH231941   6.110   5.304  11.263 -0.3713 -0.0937  0.8055
 3509TIP3    H131942   6.048   5.270  11.328 -0.6474  0.5993  0.9215
 3509TIP3    H231943   6.072   5.388  11.237  0.6271  0.4339  1.0233
 3510TIP3   OH231944   4.756   2.671   0.156  0.0868  0.1972  0.6685
 3510TIP3    H131945   4.669   2.689   0.121  0.5046  0.1832 -0.4206
 3510TIP3    H231946   4.767   2.577   0.147  0.9768  0.4351 -1.1015
 3511TIP3   OH231947   0.135   6.561   1.171 -0.0095 -0.3125  0.2363
 3511TIP3    H131948   0.195   6.633   1.193 -0.4138 -0.1079  0.6970
 3511TIP3    H231949   0.057   6.605   1.138 -0.4040 -0.5233  0.8841
 3512TIP3   OH231950   6.285   2.520   5.819  0.0847 -0.3079 -0.4679
 3512TIP3    H131951   6.315   2.587   5.881  3.0027 -0.0772 -1.9642
 3512TIP3    H231952   6.288   2.564   5.734  0.5751 -1.8755 -1.2934
 3513TIP3   OH231953   3.519   1.623   4.537  0.5976 -0.2620  0.5361
 3513TIP3    H131954   3.567   1.687   4.590  1.0716 -0.0485 -0.1437
 3513TIP3    H231955   3.467   1.675   4.477  1.5211 -0.5049 -0.4977
 3514TIP3   OH231956   4.333   6.526   1.525  0.1589 -0.3692  0.1299
 3514TIP3    H131957   4.411   6.486   1.486  0.9560  0.9975  0.2517
 3514TIP3    H231958   4.367   6.578   1.598 -1.1509 -1.7486  1.7930
 3515TIP3   OH231959   0.815   6.227  16.670 -1.0704 -0.2847 -0.5302
 3515TIP3    H131960   0.829   6.296  16.604 -0.8422  0.1513 -0.0302
 3515TIP3    H231961   0.721   6.206  16.663 -1.4559  1.0643  0.2573
 3516TIP3   OH231962   2.695   3.044   5.459  0.0157 -0.3358  0.5973
 3516TIP3    H131963   2.765   2.983   5.481 -0.1963 -0.0690  2.2080
 3516TIP3    H231964   2.641   2.998   5.396  1.3260 -0.7511 -0.2740
 3517TIP3   OH231965   6.087   1.571  12.335 -0.7569  0.5800 -0.2761
 3517TIP3    H131966   6.057   1.532  12.252 -1.9209 -0.1177  0.4435
 3517TIP3    H231967   6.050   1.659  12.335 -1.6901  0.1991 -0.0171
 3518TIP3   OH231968   1.773   2.665   3.569  0.1268  0.1145 -0.2432
 3518TIP3    H131969   1.756   2.662   3.475 -0.1469 -0.3840 -0.1808
 3518TIP3    H231970   1.839   2.597   3.584 -1.1374 -1.0571  0.1816
 3519TIP3   OH231971   3.294   2.327   5.502  0.3477  0.2313  0.1846
 3519TIP3    H131972   3.218   2.270   5.513 -0.3977  1.0090 -0.7412
 3519TIP3    H231973   3.366   2.267   5.486 -0.3057 -0.4875 -0.1620
 3520TIP3   OH231974   6.272   2.706   2.645 -0.1026 -0.3334 -0.0137
 3520TIP3    H131975   6.198   2.653   2.677 -0.5366  0.4989  0.3870
 3520TIP3    H231976   6.231   2.786   2.613  0.6937  0.4251  0.8455
 3521TIP3   OH231977   0.879   0.230   4.294 -0.0735  0.6601  0.9389
 3521TIP3    H131978   0.848   0.231   4.384  0.3740 -2.4531  1.2539
 3521TIP3    H231979   0.835   0.154   4.255  1.6973  0.4005 -0.6789
 3522TIP3   OH231980   3.553   0.009   5.268  0.1133 -0.6205  0.2755
 3522TIP3    H131981   3.562  -0.086   5.273 -0.2707 -0.6903 -0.3022
 3522TIP3    H231982   3.569   0.030   5.176  2.8888  0.1702  0.8293
 3523TIP3   OH231983   2.514   2.952  14.779  0.1217 -0.5633 -0.3295
 3523TIP3    H131984   2.502   2.923  14.869  0.5573  0.8260  0.2151
 3523TIP3    H231985   2.446   3.017  14.765  0.6405 -0.0780 -0.6684
 3524TIP3   OH231986   3.610   3.971   3.602 -0.0835  0.8077  0.0838
 3524TIP3    H131987   3.558   4.051   3.600 -1.6136 -0.0904  1.5441
 3524TIP3    H231988   3.694   3.998   3.639 -0.2564  1.8870 -0.2639
 3525TIP3   OH231989   5.079   4.890   2.568  0.2316  0.7369  0.5152
 3525TIP3    H131990   5.039   4.962   2.617  1.8388  1.7626  0.4010
 3525TIP3    H231991   5.159   4.928   2.531  0.7661 -0.9316 -0.1274
 3526TIP3   OH231992   0.085   5.443  14.236  0.2306 -0.6384  0.3525
 3526TIP3    H131993   0.035   5.378  14.286  0.3145 -0.4135  0.7351
 3526TIP3    H231994   0.064   5.526  14.280  0.0524 -0.3970 -0.1877
 3527TIP3   OH231995   2.022   1.495  14.987 -0.2511  0.2126  0.1118
 3527TIP3    H131996   2.016   1.557  14.915  0.5630 -1.1412 -1.1614
 3527TIP3    H231997   1.932   1.464  15.000 -0.4290  0.5899 -0.2079
 3528TIP3   OH231998   0.238   4.045   0.353 -0.2424  0.0703 -0.4113
 3528TIP3    H131999   0.195   3.983   0.412 -0.6346 -0.8115 -1.5826
 3528TIP3    H232000   0.173   4.062   0.285 -0.0637  1.6397 -0.2329
 3529TIP3   OH232001   0.500   5.642  16.715  0.6274 -0.8608 -0.2780
 3529TIP3    H132002   0.410   5.609  16.707  0.6763 -0.8224 -1.1211
 3529TIP3    H232003   0.490   5.731  16.749  0.4002 -1.1605  0.4504
 3530TIP3   OH232004   3.676   3.333   3.709 -0.1784  0.6572  0.0172
 3530TIP3    H132005   3.733   3.279   3.654 -0.4070  0.1195  0.3047
 3530TIP3    H232006   3.601   3.277   3.729 -0.1698  0.8947  0.7549
 3531TIP3   OH232007   0.864   4.698  16.704 -0.3215 -0.5059 -0.4124
 3531TIP3    H132008   0.786   4.697  16.759  1.0531  0.4223  1.6476
 3531TIP3    H232009   0.830   4.708  16.615 -2.5158  1.5046  0.5530
 3532TIP3   OH232010   3.648   1.169  12.660 -0.2757  0.2203 -0.3174
 3532TIP3    H132011   3.736   1.146  12.631 -0.3715 -0.6024  0.0008
 3532TIP3    H232012   3.647   1.265  12.661  0.9565  0.2425  0.7152
 3533TIP3   OH232013   3.522   3.903   5.708  0.1255 -0.2766  0.2150
 3533TIP3    H132014   3.502   3.852   5.787  1.2936 -2.1677 -0.6335
 3533TIP3    H232015   3.545   3.837   5.643  0.6211  1.3240 -1.2904
 3534TIP3   OH232016   1.684   6.279   2.551 -0.4869 -0.2698 -0.2527
 3534TIP3    H132017   1.671   6.325   2.468  0.2970 -1.3570 -0.9988
 3534TIP3    H232018   1.757   6.220   2.535 -0.4395 -0.6293  1.1674
 3535TIP3   OH232019   1.566   4.148   3.120 -0.4375 -0.1193  0.0731
 3535TIP3    H132020   1.569   4.145   3.216 -0.2873 -0.3464  0.0598
 3535TIP3    H232021   1.546   4.240   3.100 -1.3998 -0.2566  0.3479
 3536TIP3   OH232022   2.672   3.833  14.906 -0.7292 -0.2709 -0.1199
 3536TIP3    H132023   2.715   3.794  14.982 -0.6658 -0.8173 -0.4338
 3536TIP3    H232024   2.587   3.863  14.939  0.3101  1.9217  0.8052
 3537TIP3   OH232025   6.108   2.911   1.142  0.2084  0.2402  0.3849
 3537TIP3    H132026   6.097   2.999   1.178 -0.1605 -0.6856  2.7353
 3537TIP3    H232027   6.197   2.887   1.168 -0.6109 -1.0504  2.2396
 3538TIP3   OH232028   1.154   0.007   0.877  0.3416  0.3763 -0.3026
 3538TIP3    H132029   1.239   0.021   0.919  0.0246 -0.3575  0.6161
 3538TIP3    H232030   1.127   0.095   0.849  1.9148  0.4730 -1.6753
 3539TIP3   OH232031   1.204   3.032   1.880 -0.1632  0.0667  0.9568
 3539TIP3    H132032   1.201   3.010   1.973  0.9295  0.5911  1.1334
 3539TIP3    H232033   1.230   3.124   1.878 -2.5514  0.7889  0.1819
 3540TIP3   OH232034   4.188   4.366   0.122  0.0221  0.4796  0.1817
 3540TIP3    H132035   4.267   4.373   0.177 -0.5209  0.6377  0.9605
 3540TIP3    H232036   4.180   4.451   0.080 -1.2244  1.4347  2.2141
 3541TIP3   OH232037   4.186   0.329  13.994  0.6523 -0.1387 -0.3041
 3541TIP3    H132038   4.260   0.275  13.965 -0.6305 -1.3572 -1.4832
 3541TIP3    H232039   4.158   0.375  13.915  0.2400  0.4307  0.1705
 3542TIP3   OH232040   2.654   3.396   1.031  0.3509 -0.1412  0.1570
 3542TIP3    H132041   2.597   3.352   1.094  2.0725 -0.8476  1.2930
 3542TIP3    H232042   2.704   3.325   0.991  1.2697  0.5570  0.0501
 3543TIP3   OH232043   0.321   0.969   0.650 -0.1124 -0.0815 -0.2285
 3543TIP3    H132044   0.250   1.010   0.699 -0.6584 -0.3458 -0.7935
 3543TIP3    H232045   0.290   0.880   0.633  0.2662 -0.1292 -0.6697
 3544TIP3   OH232046   5.635   3.056   2.593  0.1888 -0.2813 -0.4355
 3544TIP3    H132047   5.689   3.037   2.516 -1.3149 -1.0399 -1.3508
 3544TIP3    H232048   5.545   3.055   2.560 -0.3707  2.0792  0.7977
 3545TIP3   OH232049   5.746   4.229   1.263  0.5686  0.6668 -0.2806
 3545TIP3    H132050   5.828   4.183   1.246  0.7698  0.7010  0.5461
 3545TIP3    H232051   5.769   4.295   1.328 -0.7007 -1.3997  2.4913
 3546TIP3   OH232052   6.430   4.021  16.251  0.2021  0.0917  0.7467
 3546TIP3    H132053   6.513   4.052  16.216 -0.1995  0.1530 -0.1664
 3546TIP3    H232054   6.406   3.946  16.197 -0.9854  0.8838  0.1286
 3547TIP3   OH232055   5.253   0.262  13.000 -0.6157  0.4680  0.5038
 3547TIP3    H132056   5.231   0.354  12.986  0.4562  0.5056 -1.3059
 3547TIP3    H232057   5.349   0.261  13.003 -0.6025 -0.6500  0.0550
 3548TIP3   OH232058   4.225   5.036   4.695 -0.0723 -0.7897  0.3815
 3548TIP3    H132059   4.143   4.988   4.696 -1.2391  0.9932  3.4488
 3548TIP3    H232060   4.273   5.003   4.771  0.8700  0.0625  0.1765
 3549TIP3   OH232061   6.109   3.255  13.411  0.0427 -0.0512  0.0520
 3549TIP3    H132062   6.016   3.258  13.393  0.4614  1.1162 -2.3417
 3549TIP3    H232063   6.124   3.168  13.449 -2.0797  0.0442  1.2222
 3550TIP3   OH232064   2.778   4.879  15.142 -0.4976 -0.1752 -0.3195
 3550TIP3    H132065   2.805   4.885  15.051 -1.3503  0.9046 -0.5180
 3550TIP3    H232066   2.853   4.914  15.191 -0.2200 -0.3273 -0.6279
 3551TIP3   OH232067   0.062   1.752  12.742 -0.4619  0.2124 -0.0128
 3551TIP3    H132068   0.069   1.659  12.722 -1.3095  0.3167 -0.8593
 3551TIP3    H232069   0.149   1.788  12.722 -0.2493 -0.3265 -0.0606
 3552TIP3   OH232070   4.032   1.753   3.644  0.9322  0.2601 -0.0309
 3552TIP3    H132071   4.085   1.720   3.717  1.5791 -0.5714 -0.8405
 3552TIP3    H232072   3.941   1.736   3.671  1.1146  0.8325  0.9728
 3553TIP3   OH232073   2.503   6.657   4.895 -0.8570  0.2583  0.0792
 3553TIP3    H132074   2.414   6.626   4.875  0.0786 -2.4100 -0.4078
 3553TIP3    H232075   2.541   6.677   4.809 -0.3596 -0.5772  0.0946
 3554TIP3   OH232076   2.491   0.696   0.731  0.1038  0.2561  0.6316
 3554TIP3    H132077   2.456   0.728   0.648  0.0779 -0.5680  0.3112
 3554TIP3    H232078   2.461   0.605   0.736 -0.8953  0.6317  2.1142
 3555TIP3   OH232079   2.201   3.918  11.853  0.4208 -0.0668 -0.0916
 3555TIP3    H132080   2.226   3.887  11.766 -0.1634 -0.3820 -0.1485
 3555TIP3    H232081   2.116   3.877  11.870  1.2990 -1.4276  1.3534
 3556TIP3   OH232082   2.468   0.813  17.377  0.0275 -0.1707  0.3333
 3556TIP3    H132083   2.405   0.811  17.305 -1.4304  0.1546  1.5462
 3556TIP3    H232084   2.468   0.723  17.411  1.4833 -0.5916 -0.6436
 3557TIP3   OH232085   6.324   4.042   1.675  0.2322  0.3183  0.2542
 3557TIP3    H132086   6.251   3.983   1.653  0.8078  0.0669 -1.0778
 3557TIP3    H232087   6.387   3.986   1.720  0.8098 -0.1568 -1.0703
 3558TIP3   OH232088   3.323   2.594   1.865 -0.3704  0.2263  0.3915
 3558TIP3    H132089   3.347   2.505   1.892  1.7068 -0.4281 -2.9131
 3558TIP3    H232090   3.229   2.590   1.849 -0.9713 -0.3217  3.4552
 3559TIP3   OH232091   5.352   4.732   2.770  0.3091  0.0138 -0.0207
 3559TIP3    H132092   5.391   4.668   2.710 -1.1404 -0.4409 -0.4991
 3559TIP3    H232093   5.362   4.816   2.726  0.2697 -0.1669 -0.3750
 3560TIP3   OH232094   2.382   4.730   5.947 -0.0348  0.8887  0.2558
 3560TIP3    H132095   2.349   4.814   5.914 -1.0847  1.1498  1.8232
 3560TIP3    H232096   2.303   4.676   5.958  0.7370 -0.8620 -2.0228
 3561TIP3   OH232097   5.505   4.777   3.218  0.3011  0.2929  0.0996
 3561TIP3    H132098   5.581   4.774   3.159  1.2684  0.7574  1.2891
 3561TIP3    H232099   5.433   4.807   3.162  0.7220 -1.1174 -1.3050
 3562TIP3   OH232100   3.563   1.490  11.130 -0.7515 -0.4347  0.0077
 3562TIP3    H132101   3.519   1.575  11.130 -1.0714 -0.5958 -0.2784
 3562TIP3    H232102   3.657   1.512  11.129 -0.8314 -0.0869 -0.1494
 3563TIP3   OH232103   1.970   6.409  12.883  0.6485 -0.0278  0.4163
 3563TIP3    H132104   1.895   6.468  12.871  1.5452  1.2252  0.7458
 3563TIP3    H232105   2.021   6.419  12.802  0.8727 -0.2628  0.5279
 3564TIP3   OH232106   3.859   4.620  13.103 -0.1702  0.8246 -0.4720
 3564TIP3    H132107   3.780   4.627  13.050 -1.2282 -0.9218  0.7834
 3564TIP3    H232108   3.873   4.525  13.113  1.1107  1.1096  0.7604
 3565TIP3   OH232109   5.533   2.551   5.659  0.5509 -0.1011 -0.4654
 3565TIP3    H132110   5.477   2.474   5.652  0.2766 -0.0395  0.8053
 3565TIP3    H232111   5.620   2.520   5.633  0.0465 -0.2893 -2.0783
 3566TIP3   OH232112   1.850   3.220   4.902  0.0529  0.0497  0.1881
 3566TIP3    H132113   1.838   3.176   4.986 -1.7480 -1.8814 -0.9729
 3566TIP3    H232114   1.800   3.167   4.840  2.5336  0.4989 -2.4231
 3567TIP3   OH232115   3.605   6.733   2.964 -0.0353 -0.4278  0.0077
 3567TIP3    H132116   3.510   6.743   2.966  0.0527  1.1816  3.0436
 3567TIP3    H232117   3.636   6.809   2.915 -0.2854 -0.1601  0.2621
 3568TIP3   OH232118   0.995   4.039   2.961 -0.1696  0.0261 -0.0291
 3568TIP3    H132119   0.909   4.054   2.921 -0.4246  0.2196  0.5820
 3568TIP3    H232120   1.014   3.947   2.944 -1.3002 -0.4912  1.3384
 3569TIP3   OH232121   0.547   2.636  11.500 -0.5421 -0.0339 -0.2417
 3569TIP3    H132122   0.460   2.652  11.536 -0.4045  0.2158 -0.0115
 3569TIP3    H232123   0.592   2.720  11.510 -0.0793 -0.3284  0.2015
 3570TIP3   OH232124   1.397   0.584  16.169 -0.5488  1.0383 -0.1249
 3570TIP3    H132125   1.445   0.659  16.134 -0.4245  1.1026  0.1886
 3570TIP3    H232126   1.305   0.611  16.166 -0.3973  1.7685  1.3613
 3571TIP3   OH232127   3.878   4.242  15.097  0.0700  0.4439  0.4323
 3571TIP3    H132128   3.970   4.215  15.109  0.7130  1.8668 -0.9806
 3571TIP3    H232129   3.873   4.327  15.139 -0.5649  0.4655  0.3142
 3572TIP3   OH232130   1.416   5.229   2.117 -0.4992 -0.2607 -0.0817
 3572TIP3    H132131   1.403   5.182   2.199 -2.0861  0.0473 -0.1276
 3572TIP3    H232132   1.339   5.285   2.108 -0.1310  0.0669 -1.5443
 3573TIP3   OH232133   1.530   3.704  13.441 -0.4233  0.1615  0.0976
 3573TIP3    H132134   1.589   3.703  13.517 -1.0507  1.0508  0.6121
 3573TIP3    H232135   1.589   3.712  13.366  0.1424  0.6890  0.5796
 3574TIP3   OH232136   3.581   4.003   2.550 -0.5581 -0.0603  0.1048
 3574TIP3    H132137   3.656   4.062   2.559  0.7895 -1.8074  0.9623
 3574TIP3    H232138   3.556   3.982   2.640 -1.0828 -0.7206 -0.1867
 3575TIP3   OH232139   1.562   3.336  15.344 -0.1927  0.2684  0.1960
 3575TIP3    H132140   1.597   3.247  15.343 -0.4713  0.1517 -0.8157
 3575TIP3    H232141   1.626   3.387  15.394 -1.4352 -1.0156  3.3289
 3576TIP3   OH232142   1.468   0.223  13.274  0.4823  0.4133  0.1565
 3576TIP3    H132143   1.465   0.299  13.215  1.5160 -1.0248 -1.8679
 3576TIP3    H232144   1.379   0.188  13.273 -0.3426  2.2292  2.1150
 3577TIP3   OH232145   6.537   1.102   6.186 -0.3339  0.3531 -0.7993
 3577TIP3    H132146   6.579   1.017   6.174 -0.6240 -0.0010  0.6120
 3577TIP3    H232147   6.519   1.108   6.279  0.7264  2.4618 -0.6502
 3578TIP3   OH232148   5.493   3.095   2.078 -0.1479 -0.0597 -0.4197
 3578TIP3    H132149   5.534   3.180   2.065 -1.9532  0.9761  0.2403
 3578TIP3    H232150   5.480   3.061   1.989 -1.2941  1.3546 -0.8480
 3579TIP3   OH232151   3.743   4.472  16.389 -0.4441 -0.1008 -0.5231
 3579TIP3    H132152   3.801   4.397  16.395 -0.1531  0.2099  1.0905
 3579TIP3    H232153   3.800   4.544  16.362 -0.8206 -0.5189 -2.5895
 3580TIP3   OH232154   5.009   3.869  17.119 -0.4223 -0.2143  0.4170
 3580TIP3    H132155   4.994   3.930  17.048 -0.0586 -1.4433 -0.7655
 3580TIP3    H232156   4.977   3.914  17.197  1.2215  2.0787 -0.1307
 3581TIP3   OH232157   4.378   5.708   6.422  0.1069  0.3405  0.3681
 3581TIP3    H132158   4.291   5.733   6.391  0.5572  1.2110 -0.2536
 3581TIP3    H232159   4.428   5.790   6.424  1.3556 -0.3439 -0.7525
 3582TIP3   OH232160   3.062   3.485  15.401  0.0757  0.3532 -0.5596
 3582TIP3    H132161   3.137   3.500  15.458  0.0827 -1.3521 -0.0476
 3582TIP3    H232162   3.101   3.472  15.314  0.5060 -1.2620 -0.1718
 3583TIP3   OH232163   3.503   0.737   0.432 -0.3733  0.2063 -0.0002
 3583TIP3    H132164   3.478   0.683   0.357  0.5907  0.3077 -0.4112
 3583TIP3    H232165   3.561   0.681   0.483 -0.2722  0.4621  0.1662
 3584TIP3   OH232166   3.166   2.116   0.769  0.4985  0.6554 -0.3649
 3584TIP3    H132167   3.246   2.068   0.747  0.6467  0.7475 -0.0298
 3584TIP3    H232168   3.102   2.047   0.790  0.5468  0.5885 -0.4354
 3585TIP3   OH232169   5.427   6.328   0.680 -0.2749 -0.5906 -0.1643
 3585TIP3    H132170   5.512   6.369   0.662 -0.6502 -0.2595 -1.2601
 3585TIP3    H232171   5.398   6.367   0.762  1.7227 -2.4706  1.5914
 3586TIP3   OH232172   2.326   6.024   2.250  0.3357  0.1478  0.0964
 3586TIP3    H132173   2.377   6.046   2.172 -1.4889  0.5635 -1.0529
 3586TIP3    H232174   2.313   5.930   2.245 -1.6859  0.4219 -1.4470
 3587TIP3   OH232175   6.236   1.497  14.668  0.4506 -0.3482  0.2611
 3587TIP3    H132176   6.145   1.469  14.671 -0.3519  2.0208  0.1167
 3587TIP3    H232177   6.241   1.568  14.733  1.8591  0.4251 -0.6446
 3588TIP3   OH232178   4.807   3.368  13.518  1.2791  0.5227  0.0153
 3588TIP3    H132179   4.821   3.357  13.424 -0.4137 -1.9091 -0.0378
 3588TIP3    H232180   4.850   3.292  13.557 -2.2622 -1.3584  0.6709
 3589TIP3   OH232181   0.748   5.092   2.245  0.6720  0.1766 -0.0022
 3589TIP3    H132182   0.772   5.068   2.156 -1.3891  1.9661 -1.1165
 3589TIP3    H232183   0.815   5.155   2.271  1.6322 -0.8017  0.0136
 3590TIP3   OH232184   3.009   2.491  12.313  0.4167  0.5149 -0.8639
 3590TIP3    H132185   2.988   2.522  12.401  2.8181  0.9124 -0.3795
 3590TIP3    H232186   2.937   2.525  12.259 -0.6015  1.0919  0.7629
 3591TIP3   OH232187   5.771   4.929  13.875 -0.0130 -0.2420  0.4055
 3591TIP3    H132188   5.821   4.989  13.820  1.0542  0.5303  2.1430
 3591TIP3    H232189   5.680   4.954  13.861  0.2394  0.0646 -0.8306
 3592TIP3   OH232190   0.556   1.887  15.793  0.1636  0.2351 -0.1357
 3592TIP3    H132191   0.575   1.828  15.720 -0.3402  1.6321 -1.4398
 3592TIP3    H232192   0.465   1.869  15.815  0.2178  0.0446 -0.0627
 3593TIP3   OH232193   1.134   3.848  13.653  0.0891  0.1815 -0.0531
 3593TIP3    H132194   1.044   3.846  13.620  0.2889  2.4966 -0.9671
 3593TIP3    H232195   1.182   3.786  13.597 -0.8461 -0.7758  0.1890
 3594TIP3   OH232196   1.341   1.431   0.561 -0.1012  0.0453 -0.4082
 3594TIP3    H132197   1.267   1.490   0.545  0.2824  0.2104 -1.7008
 3594TIP3    H232198   1.300   1.348   0.586 -0.7158  0.2792 -0.6156
 3595TIP3   OH232199   0.867   1.075  13.437 -0.1079 -0.0829  0.1854
 3595TIP3    H132200   0.815   1.034  13.367  0.5107  0.7157 -0.7733
 3595TIP3    H232201   0.838   1.031  13.517 -1.6795 -0.2143 -0.4151
 3596TIP3   OH232202   1.632   2.437  11.605  0.4846 -0.0418  0.2810
 3596TIP3    H132203   1.691   2.366  11.579 -0.5914 -1.5710  1.7729
 3596TIP3    H232204   1.550   2.417  11.560  0.1094  0.1061  0.8911
 3597TIP3   OH232205   4.392   1.991  15.680 -0.3511 -0.6994  0.1317
 3597TIP3    H132206   4.421   1.987  15.771 -0.3526  1.1076  0.2480
 3597TIP3    H232207   4.302   2.024  15.685 -0.8281 -1.8402 -0.4769
 3598TIP3   OH232208   2.345   3.955  11.007 -0.1257  0.7051  0.1707
 3598TIP3    H132209   2.284   3.885  10.982  0.1627  0.2463  0.7361
 3598TIP3    H232210   2.306   4.034  10.971 -0.4395  0.2503 -0.5156
 3599TIP3   OH232211   3.291   2.218  16.422 -0.2384  0.0696  0.0820
 3599TIP3    H132212   3.299   2.150  16.355  2.1247 -0.1382  0.4794
 3599TIP3    H232213   3.274   2.170  16.503 -1.3009  0.1855 -0.0636
 3600TIP3   OH232214   5.497   1.383  12.820  0.1822  0.6054  0.1570
 3600TIP3    H132215   5.472   1.388  12.728 -3.2719 -0.3242  0.9230
 3600TIP3    H232216   5.476   1.469  12.856  0.4436  0.5947  0.3420
 3601TIP3   OH232217   6.328   5.893  15.239 -0.0896  0.0868 -0.3250
 3601TIP3    H132218   6.408   5.843  15.260  0.2748  1.1430  0.9294
 3601TIP3    H232219   6.309   5.942  15.319 -0.4206  1.9914 -1.5163
 3602TIP3   OH232220   5.733   5.815   0.756  0.3428  0.3382  0.3019
 3602TIP3    H132221   5.709   5.888   0.699  1.0331 -0.5183 -1.1353
 3602TIP3    H232222   5.660   5.754   0.750  0.6960 -0.0367 -0.1521
 3603TIP3   OH232223   4.886   2.685  10.769 -0.5790  0.3321  0.3139
 3603TIP3    H132224   4.881   2.730  10.685 -0.9939  0.2144  0.2722
 3603TIP3    H232225   4.972   2.643  10.769 -0.4500  0.5971  0.0837
 3604TIP3   OH232226   5.984   4.594  16.748  0.0468  0.1318 -0.0531
 3604TIP3    H132227   6.064   4.585  16.801 -0.4634 -0.8961  0.5759
 3604TIP3    H232228   5.985   4.685  16.719  1.1585  0.2905  0.4158
 3605TIP3   OH232229   6.389   6.671  14.806  0.0305  0.2326 -0.3093
 3605TIP3    H132230   6.415   6.580  14.797 -0.9725 -0.2282  0.9500
 3605TIP3    H232231   6.470   6.721  14.799  1.1277 -1.0217  2.1994
 3606TIP3   OH232232   2.723   1.142   0.104 -0.3714 -0.2774  0.1390
 3606TIP3    H132233   2.638   1.187   0.109  1.0634  2.4655  2.9298
 3606TIP3    H232234   2.782   1.196   0.157  2.6573 -3.1803  0.0262
 3607TIP3   OH232235   0.859   2.046  12.524  0.5408 -0.1221 -0.6923
 3607TIP3    H132236   0.807   2.100  12.464  0.7418 -1.7293 -2.4331
 3607TIP3    H232237   0.878   2.103  12.598 -0.1075  1.8312 -1.9517
 3608TIP3   OH232238   3.956   5.647   3.843  0.4200 -0.5951 -0.8074
 3608TIP3    H132239   4.037   5.606   3.813  1.0008  1.1624 -1.7884
 3608TIP3    H232240   3.909   5.668   3.763 -0.2801 -0.1800 -0.2946
 3609TIP3   OH232241   5.981   3.075  14.641  0.4504 -0.2031 -0.3013
 3609TIP3    H132242   5.930   3.156  14.635  0.2663 -0.3595 -1.0910
 3609TIP3    H232243   5.990   3.047  14.550  0.9310 -0.8119 -0.0707
 3610TIP3   OH232244   4.748   5.427   4.781 -0.0297 -0.0754  0.8954
 3610TIP3    H132245   4.825   5.416   4.837  0.5446  1.1922  0.3975
 3610TIP3    H232246   4.763   5.510   4.736 -1.0166 -0.5174 -0.2937
 3611TIP3   OH232247   0.239   0.356   6.712 -0.2795  0.3373  0.6200
 3611TIP3    H132248   0.264   0.342   6.804  0.8195 -0.4575  0.2261
 3611TIP3    H232249   0.279   0.440   6.689  0.2105  0.1036  0.6132
 3612TIP3   OH232250   3.422   3.220  17.129 -0.0895  0.3396 -0.0214
 3612TIP3    H132251   3.403   3.187  17.216  1.0163 -0.6180 -0.1051
 3612TIP3    H232252   3.416   3.315  17.136 -0.6441  0.2368  0.9300
 3613TIP3   OH232253   5.129   6.154   0.048  0.1110  0.0567 -0.1752
 3613TIP3    H132254   5.132   6.059   0.056  0.6819  0.0527 -0.4078
 3613TIP3    H232255   5.049   6.172  -0.000 -0.0868 -0.2935  0.0173
 3614TIP3   OH232256   4.872   2.793   3.774  0.0020  0.4650 -0.3726
 3614TIP3    H132257   4.922   2.713   3.759  0.0832  0.4037  0.1919
 3614TIP3    H232258   4.826   2.809   3.692  0.5117  0.2087 -0.7115
 3615TIP3   OH232259   5.023   0.016  17.059  0.2887 -0.0848 -0.3185
 3615TIP3    H132260   5.070   0.087  17.015  0.2575  0.0986 -0.0568
 3615TIP3    H232261   5.086  -0.057  17.061 -0.0046 -0.3991 -1.4558
 3616TIP3   OH232262   6.595   4.028  15.429 -0.3355 -0.3111  0.2015
 3616TIP3    H132263   6.661   4.041  15.361 -1.2873  1.9026 -0.3839
 3616TIP3    H232264   6.645   4.007  15.508  1.0441  0.6690 -0.3716
 3617TIP3   OH232265   4.826   1.770   1.938  0.6387  0.2389  0.0147
 3617TIP3    H132266   4.746   1.809   1.973  0.2334  0.2637 -0.9075
 3617TIP3    H232267   4.895   1.803   1.995  0.0605  0.6965  0.4670
 3618TIP3   OH232268   3.460   4.444  15.484 -0.3002  0.0843  0.5466
 3618TIP3    H132269   3.530   4.379  15.472 -3.1390 -3.2676  0.4334
 3618TIP3    H232270   3.467   4.501  15.407  1.6091 -0.8134 -0.0054
 3619TIP3   OH232271   2.747   0.619  11.759  0.1211 -0.0608 -0.1759
 3619TIP3    H132272   2.755   0.701  11.711  1.7098  0.0899  0.3038
 3619TIP3    H232273   2.787   0.636  11.844  0.4127 -1.3072 -0.0347
 3620TIP3   OH232274   1.870   6.481  16.717  0.1476  0.2658  0.3758
 3620TIP3    H132275   1.858   6.499  16.624 -1.5890 -0.8364  0.3536
 3620TIP3    H232276   1.909   6.393  16.720 -2.5765 -1.0209  0.6856
 3621TIP3   OH232277   5.084   1.333  12.120 -0.2222 -0.1036  0.0025
 3621TIP3    H132278   5.070   1.250  12.076 -0.6654 -0.4954  0.8692
 3621TIP3    H232279   5.142   1.382  12.061  1.3819 -1.6422  0.1980
 3622TIP3   OH232280   2.793   5.064  13.243  0.3398 -0.2579  0.0912
 3622TIP3    H132281   2.841   5.040  13.322 -0.5336  5.6037  2.9305
 3622TIP3    H232282   2.702   5.071  13.272  0.1454  3.1315 -0.8973
 3623TIP3   OH232283   6.297   4.673   3.853 -0.0171  0.4937  0.2993
 3623TIP3    H132284   6.229   4.610   3.877  1.9871 -2.4398 -1.1624
 3623TIP3    H232285   6.295   4.675   3.757  1.5726  0.7429  0.2410
 3624TIP3   OH232286   1.655   4.778   1.766 -0.5068 -0.1076  0.5872
 3624TIP3    H132287   1.577   4.827   1.790 -0.2192 -0.1196  1.5865
 3624TIP3    H232288   1.690   4.745   1.849  0.3515 -0.4182  0.1207
 3625TIP3   OH232289   3.896   4.006   3.702 -0.3164  0.5999  0.6862
 3625TIP3    H132290   3.918   4.084   3.651 -0.5253  0.4284  0.3286
 3625TIP3    H232291   3.848   4.040   3.777 -1.5947  0.7154 -0.1538
 3626TIP3   OH232292   4.582   1.434  15.763  0.7466  0.2013  0.2795
 3626TIP3    H132293   4.546   1.418  15.850  0.3507  0.6052  0.1977
 3626TIP3    H232294   4.543   1.517  15.736  1.6568  0.5972  0.1351
 3627TIP3   OH232295   4.207   4.506   2.539  0.5450  0.4168  0.5600
 3627TIP3    H132296   4.132   4.454   2.567  0.8327  0.3385  1.2303
 3627TIP3    H232297   4.271   4.496   2.610  1.3025  0.2494 -0.1265
 3628TIP3   OH232298   2.485   2.268  11.660 -0.1003  0.7647 -0.3876
 3628TIP3    H132299   2.448   2.253  11.747  0.3700  0.5444 -0.2242
 3628TIP3    H232300   2.515   2.181  11.632  0.7691  1.0296 -0.2981
 3629TIP3   OH232301   3.800   0.611   1.910 -0.6197 -0.0639 -0.1170
 3629TIP3    H132302   3.873   0.661   1.947 -0.1468  0.2801 -1.4490
 3629TIP3    H232303   3.779   0.547   1.977  0.4761  0.2683  0.5779
 3630TIP3   OH232304   2.144   5.916  14.540 -0.2155  0.1586  0.5645
 3630TIP3    H132305   2.196   5.988  14.506 -0.5706  0.4315  0.5947
 3630TIP3    H232306   2.139   5.854  14.467 -1.9778  1.2774 -0.3414
 3631TIP3   OH232307   2.256   5.083  14.414  0.0840  0.9905 -0.3628
 3631TIP3    H132308   2.333   5.088  14.356  0.2078  0.7128 -0.2192
 3631TIP3    H232309   2.291   5.055  14.498 -0.2362  0.4409 -0.4115
 3632TIP3   OH232310   2.871   4.517   0.122 -0.0857 -0.2338 -0.1377
 3632TIP3    H132311   2.790   4.467   0.109  0.2058 -0.3478 -1.6682
 3632TIP3    H232312   2.931   4.454   0.162 -0.2410 -0.6234 -0.5117
 3633TIP3   OH232313   5.863   5.542   2.633  0.9952  0.4714  0.2958
 3633TIP3    H132314   5.798   5.566   2.699  0.4125 -0.8942  0.2511
 3633TIP3    H232315   5.835   5.588   2.554  1.3422  1.6167  0.8134
 3634TIP3   OH232316   6.085   5.829  14.756 -0.4390 -0.0822  0.3220
 3634TIP3    H132317   6.131   5.889  14.697 -0.7159 -0.3377 -0.1601
 3634TIP3    H232318   6.154   5.788  14.807 -0.2695  0.9019  0.9016
 3635TIP3   OH232319   0.814   1.536   2.800  0.3354  0.0810  0.0614
 3635TIP3    H132320   0.868   1.587   2.861  0.4972 -2.4183  2.1771
 3635TIP3    H232321   0.875   1.501   2.736  1.0168 -1.1638  1.3283
 3636TIP3   OH232322   2.559   1.036   1.550  0.7015  0.0750 -0.1782
 3636TIP3    H132323   2.541   1.119   1.595  1.6309  0.6124 -0.7493
 3636TIP3    H232324   2.605   0.983   1.615 -0.8830 -0.4456  0.5556
 3637TIP3   OH232325   5.201   1.133   1.989  0.6872  0.5721 -0.3230
 3637TIP3    H132326   5.115   1.091   1.992  1.0863 -0.3637 -1.3419
 3637TIP3    H232327   5.247   1.099   2.065  0.2889  0.7805  0.0134
 3638TIP3   OH232328   4.074   2.581   2.853 -0.5918 -0.6776 -0.0613
 3638TIP3    H132329   4.062   2.671   2.822  1.8384  0.1551  1.1177
 3638TIP3    H232330   4.040   2.583   2.943  1.6578 -0.1556  0.8598
 3639TIP3   OH232331   2.364   6.344  16.073 -0.0078 -0.2975 -0.1020
 3639TIP3    H132332   2.282   6.380  16.037 -0.5478 -1.5892 -0.2161
 3639TIP3    H232333   2.409   6.420  16.110 -0.5202  0.7107 -1.4313
 3640TIP3   OH232334   1.782   0.287   0.342  0.5156  0.0523 -0.0132
 3640TIP3    H132335   1.740   0.322   0.263  1.5077  0.6583 -0.2910
 3640TIP3    H232336   1.789   0.193   0.325 -1.8984 -0.3129  0.6112
 3641TIP3   OH232337   5.868   6.570  11.697  0.3860  0.1476  0.4200
 3641TIP3    H132338   5.892   6.481  11.721 -0.7118 -0.4091 -0.4776
 3641TIP3    H232339   5.948   6.621  11.710  0.6999 -0.7148  2.1102
 3642TIP3   OH232340   3.599   2.525   5.292 -0.0417  0.1785  0.6516
 3642TIP3    H132341   3.607   2.599   5.353  0.6430 -0.2964  1.1495
 3642TIP3    H232342   3.505   2.521   5.273 -0.1227  1.0203  0.8062
 3643TIP3   OH232343   5.750   4.244   0.522  0.0210 -0.3950 -0.0330
 3643TIP3    H132344   5.681   4.274   0.463  1.2260  0.6264 -0.9726
 3643TIP3    H232345   5.810   4.195   0.466  0.5928 -0.3830  0.5609
 3644TIP3   OH232346   4.701   6.077  13.886 -0.3318 -0.0228 -0.0478
 3644TIP3    H132347   4.606   6.086  13.893 -0.6489 -1.2883 -1.9907
 3644TIP3    H232348   4.724   6.127  13.807  0.7995  1.1655  0.9891
 3645TIP3   OH232349   0.917   5.636  15.232  0.0470  0.7537  0.0497
 3645TIP3    H132350   0.924   5.682  15.149 -2.3851  1.6053  0.2544
 3645TIP3    H232351   0.985   5.568  15.228 -0.2021  0.5855 -2.7358
 3646TIP3   OH232352   4.507   4.029  14.514  0.6283  0.1816 -0.4089
 3646TIP3    H132353   4.514   3.940  14.548 -0.9808  0.0361 -0.3896
 3646TIP3    H232354   4.575   4.078  14.561 -0.1045 -0.4836  1.4250
 3647TIP3   OH232355   4.551   5.718   1.479  0.1866  0.0156  0.0205
 3647TIP3    H132356   4.539   5.679   1.566  0.7163 -0.6202 -0.1852
 3647TIP3    H232357   4.544   5.644   1.419  1.0960  0.2455 -0.3836
 3648TIP3   OH232358   5.374   3.445   4.252  0.6389  0.3771  0.1823
 3648TIP3    H132359   5.283   3.418   4.246  1.1685 -1.6190  0.5461
 3648TIP3    H232360   5.370   3.534   4.289 -1.1206  0.1990  0.4972
 3649TIP3   OH232361   3.544   2.099  16.237 -0.0259  0.2723  0.2493
 3649TIP3    H132362   3.510   2.039  16.304  0.3021 -0.3963 -0.1680
 3649TIP3    H232363   3.629   2.063  16.214  0.5952  1.4390  0.6512
 3650TIP3   OH232364   0.538   6.431  12.572 -0.0483  0.7279 -0.1678
 3650TIP3    H132365   0.575   6.506  12.619  0.4253  0.8752 -0.7646
 3650TIP3    H232366   0.613   6.389  12.532 -0.2582 -0.3174  0.4951
 3651TIP3   OH232367   4.755   3.661   4.780  0.4070 -0.0952  0.3507
 3651TIP3    H132368   4.815   3.677   4.707  0.2011  1.1023  0.4217
 3651TIP3    H232369   4.675   3.631   4.738 -0.1782  1.8920 -0.0872
 3652TIP3   OH232370   5.271   4.573   5.173  0.4902 -0.4822  0.4830
 3652TIP3    H132371   5.239   4.493   5.213 -2.2324  1.0911  1.6718
 3652TIP3    H232372   5.232   4.574   5.085 -0.8481  0.2657  1.0580
 3653TIP3   OH232373   0.528   2.912   4.665  0.0131 -0.3201  0.3898
 3653TIP3    H132374   0.539   2.999   4.704 -0.0476  0.5739 -1.4952
 3653TIP3    H232375   0.617   2.880   4.653  0.2116  0.8433 -1.7374
 3654TIP3   OH232376   3.631   6.761  12.459 -0.2920 -0.0619  0.7125
 3654TIP3    H132377   3.656   6.715  12.539  2.4331 -1.7174 -0.9338
 3654TIP3    H232378   3.646   6.697  12.389 -0.4227  2.0028 -1.3262
 3655TIP3   OH232379   0.997   4.685  17.333  0.5573  0.1530  0.0794
 3655TIP3    H132380   1.061   4.723  17.393  0.1579 -1.5492  1.7021
 3655TIP3    H232381   1.035   4.601  17.306 -1.1101 -1.1610  1.5154
 3656TIP3   OH232382   5.105   3.682  12.214 -0.2935  0.3067 -0.5366
 3656TIP3    H132383   5.066   3.761  12.178 -0.5223  0.4160 -0.0636
 3656TIP3    H232384   5.049   3.660  12.289 -0.5256 -0.5831 -0.9539
 3657TIP3   OH232385   2.272   5.171   2.835 -0.0410 -0.1007 -0.2199
 3657TIP3    H132386   2.187   5.212   2.850 -0.5208 -1.0242 -0.3101
 3657TIP3    H232387   2.255   5.103   2.770  0.5166 -1.0536  0.5828
 3658TIP3   OH232388   0.822   0.201   1.696 -0.1177  0.5029  0.2628
 3658TIP3    H132389   0.805   0.114   1.731 -0.3316  0.8525  1.0673
 3658TIP3    H232390   0.903   0.229   1.738  0.5102  0.2886 -0.7827
 3659TIP3   OH232391   2.747   4.203  14.932 -0.6394 -0.1678  0.3265
 3659TIP3    H132392   2.785   4.119  14.905 -1.2103 -0.0347 -0.9535
 3659TIP3    H232393   2.654   4.185  14.942 -0.8736  0.4492 -0.6111
 3660TIP3   OH232394   0.179   2.125  16.739  0.2612  0.3581  0.1378
 3660TIP3    H132395   0.185   2.031  16.754  1.0286  0.3386 -0.2631
 3660TIP3    H232396   0.268   2.152  16.716 -0.3445  0.8137 -1.8461
 3661TIP3   OH232397   5.585   3.181   6.217  0.1118 -0.6913 -1.1371
 3661TIP3    H132398   5.610   3.093   6.187  1.2310 -1.4564  1.6087
 3661TIP3    H232399   5.495   3.191   6.189 -0.8656 -3.7782  0.3611
 3662TIP3   OH232400   5.457   2.509  11.796  0.1603 -0.2277  0.6720
 3662TIP3    H132401   5.402   2.443  11.753  1.2774 -0.8192  0.0909
 3662TIP3    H232402   5.453   2.585  11.737 -1.0335  0.2172  1.2839
 3663TIP3   OH232403   1.137   4.571   0.329  0.2673 -0.7393  0.1588
 3663TIP3    H132404   1.050   4.590   0.363  0.3484  2.7020 -1.1181
 3663TIP3    H232405   1.196   4.623   0.384  1.2399 -1.2009 -0.4249
 3664TIP3   OH232406   1.414   0.298  15.412 -0.3700 -0.1747 -0.7997
 3664TIP3    H132407   1.453   0.368  15.463 -0.7893 -0.3187 -0.2765
 3664TIP3    H232408   1.464   0.220  15.437 -0.7440 -0.2925 -0.4045
 3665TIP3   OH232409   6.755   6.539  15.448  0.2165 -0.5189 -0.4562
 3665TIP3    H132410   6.723   6.518  15.535  0.1439 -3.0547 -1.0081
 3665TIP3    H232411   6.772   6.454  15.407  1.0357  0.5937 -2.6318
 3666TIP3   OH232412   1.453   1.917  16.822 -0.0129 -0.8596  0.4822
 3666TIP3    H132413   1.530   1.898  16.768  0.2657 -0.7684  0.8454
 3666TIP3    H232414   1.391   1.846  16.802 -0.2052 -0.4301 -0.5094
 3667TIP3   OH232415   6.311   3.731  13.147 -0.5135 -0.2213  1.1592
 3667TIP3    H132416   6.272   3.687  13.222  0.1678  1.3268  2.4785
 3667TIP3    H232417   6.238   3.744  13.087 -1.5907  0.6290  2.5971
 3668TIP3   OH232418   3.748   3.391   2.467 -0.0685 -0.0387 -0.7193
 3668TIP3    H132419   3.750   3.374   2.561  3.4916  0.8899 -0.5046
 3668TIP3    H232420   3.731   3.485   2.460 -0.4409 -0.1252 -1.0512
 3669TIP3   OH232421   5.782   1.798  13.418  0.2814  0.0580 -0.1806
 3669TIP3    H132422   5.731   1.744  13.358  0.9240  0.2340 -0.8940
 3669TIP3    H232423   5.819   1.736  13.481  0.9304 -0.3317 -0.9323
 3670TIP3   OH232424   4.454   6.067  16.912 -0.1465 -0.3036  0.0186
 3670TIP3    H132425   4.432   6.033  16.826  1.1352 -0.5992 -0.2134
 3670TIP3    H232426   4.396   6.142  16.924  0.2441  0.2741 -1.4665
 3671TIP3   OH232427   4.548   4.432   0.320  0.2639  0.7381  0.2597
 3671TIP3    H132428   4.480   4.477   0.371  0.1679  0.7090  0.1585
 3671TIP3    H232429   4.532   4.460   0.230 -0.5718 -0.4603  0.0103
 3672TIP3   OH232430   3.309   1.729   4.729 -0.2330 -0.1586 -0.1724
 3672TIP3    H132431   3.324   1.730   4.824  0.8103 -0.2645 -0.3251
 3672TIP3    H232432   3.323   1.819   4.702  0.3356 -0.2895 -0.3394
 3673TIP3   OH232433   3.176   3.874  15.841  0.2870  0.2781 -0.0754
 3673TIP3    H132434   3.186   3.968  15.824 -1.8370  0.4425 -0.6236
 3673TIP3    H232435   3.102   3.847  15.787 -0.1440 -1.3926  1.2659
 3674TIP3   OH232436   3.202   2.257   1.840  0.2283 -0.2207  0.2171
 3674TIP3    H132437   3.133   2.324   1.839  2.1733  1.8856 -0.0566
 3674TIP3    H232438   3.220   2.240   1.747  0.7730  0.0117  0.2766
 3675TIP3   OH232439   2.911   1.820   4.487 -0.4562 -0.4014 -0.0077
 3675TIP3    H132440   3.001   1.852   4.498 -0.3222 -1.0356  0.8133
 3675TIP3    H232441   2.908   1.787   4.397 -0.3546  1.1161 -0.6007
 3676TIP3   OH232442   0.741   4.911  14.318  0.1148 -0.3138 -0.1808
 3676TIP3    H132443   0.741   4.855  14.395  1.2384  1.3913  1.1183
 3676TIP3    H232444   0.782   4.992  14.346  0.6309  0.3617 -2.5985
 3677TIP3   OH232445   3.639   6.193   2.409 -0.6949 -0.4006 -0.6318
 3677TIP3    H132446   3.552   6.157   2.394 -1.1865 -0.2907  1.5173
 3677TIP3    H232447   3.692   6.161   2.337 -2.4449 -0.6936 -1.8451
 3678TIP3   OH232448   3.917   1.082   2.787  0.0241  0.3473 -0.0386
 3678TIP3    H132449   3.855   1.155   2.791 -0.7955 -0.2560 -1.2978
 3678TIP3    H232450   4.001   1.122   2.810 -0.5749  1.4819  0.2636
 3679TIP3   OH232451   0.445   5.220   4.793  0.2833  0.6533 -0.2942
 3679TIP3    H132452   0.370   5.225   4.735 -0.9356 -0.3193  1.1211
 3679TIP3    H232453   0.503   5.155   4.753 -1.8497 -2.1800  0.9140
 3680TIP3   OH232454   6.448   3.656   0.267  0.0799 -0.1873  0.1730
 3680TIP3    H132455   6.516   3.719   0.245 -1.2029  1.7582  1.4622
 3680TIP3    H232456   6.388   3.658   0.193  1.0477 -1.4179 -0.6719
 3681TIP3   OH232457   0.234   4.636  12.751  0.2656 -0.4712  0.2955
 3681TIP3    H132458   0.194   4.672  12.830  0.9398 -0.3307  0.5775
 3681TIP3    H232459   0.324   4.615  12.777  0.5318 -0.3017 -0.4719
 3682TIP3   OH232460   2.668   4.040  17.147 -0.0362 -0.3423 -0.2850
 3682TIP3    H132461   2.697   4.131  17.152 -1.6105  0.1327  0.6670
 3682TIP3    H232462   2.595   4.041  17.086  0.6378 -1.1834 -1.1362
 3683TIP3   OH232463   0.725   1.657   5.827  0.0744  0.5622  1.5040
 3683TIP3    H132464   0.757   1.748   5.826  0.2133  0.5091  0.7467
 3683TIP3    H232465   0.771   1.615   5.755 -1.0810  0.2599  0.9191
 3684TIP3   OH232466   1.838   3.639  12.155  0.2257 -0.3587  0.2511
 3684TIP3    H132467   1.870   3.692  12.228  0.5406 -0.8292  0.4585
 3684TIP3    H232468   1.891   3.666  12.080  0.5269 -0.5292  0.4031
 3685TIP3   OH232469   6.062   5.595   1.023  0.3729  0.1544 -0.7220
 3685TIP3    H132470   5.967   5.591   1.033  0.4854 -0.6571  0.2492
 3685TIP3    H232471   6.090   5.662   1.085  0.6272 -1.3275  0.8337
 3686TIP3   OH232472   3.308   5.660   2.915 -0.3033 -0.0428  0.3893
 3686TIP3    H132473   3.266   5.651   3.001  0.4943 -0.9266  0.7010
 3686TIP3    H232474   3.250   5.612   2.856 -0.2195 -0.4629  0.6468
 3687TIP3   OH232475   2.292   3.610  13.225 -1.0234 -0.1039 -0.5350
 3687TIP3    H132476   2.328   3.658  13.151  0.8089  0.3522  0.6012
 3687TIP3    H232477   2.287   3.674  13.296 -0.3045 -1.1154  0.4715
 3688TIP3   OH232478   0.749   4.941   5.776  0.9125 -0.4859 -0.6757
 3688TIP3    H132479   0.783   4.959   5.864  1.5398 -3.0587 -0.3001
 3688TIP3    H232480   0.740   5.027   5.736  0.4968  0.7924  1.9288
 3689TIP3   OH232481   6.503   4.986  14.037  0.4246 -0.2785 -0.0963
 3689TIP3    H132482   6.409   4.996  14.025  0.5486  1.2843  0.0030
 3689TIP3    H232483   6.512   4.913  14.099 -0.7821  0.3987  0.9314
 3690TIP3   OH232484   6.747   5.516  15.632 -0.4038 -0.3970  0.2514
 3690TIP3    H132485   6.710   5.429  15.650  0.2659 -0.8005 -0.2710
 3690TIP3    H232486   6.765   5.552  15.719 -2.1357 -0.1173  0.5387
 3691TIP3   OH232487   1.830   6.683   5.168 -0.1638  0.3821  0.0190
 3691TIP3    H132488   1.861   6.694   5.078  0.4220  1.4812  0.3298
 3691TIP3    H232489   1.909   6.658   5.217 -0.4116  0.1294  0.2905
 3692TIP3   OH232490   0.022   5.675  14.985  0.2065  0.4945  0.4026
 3692TIP3    H132491   0.089   5.644  15.046  0.3628  1.2454  0.6240
 3692TIP3    H232492  -0.058   5.633  15.015  0.5743 -0.4611  0.0980
 3693TIP3   OH232493   6.191   3.892   3.282  0.0505  0.0755 -0.1565
 3693TIP3    H132494   6.252   3.917   3.351  0.3201 -0.3622 -0.2344
 3693TIP3    H232495   6.126   3.962   3.281  0.1750  0.2005  0.3824
 3694TIP3   OH232496   2.584   5.321   3.247 -0.0963  0.5082  0.5463
 3694TIP3    H132497   2.638   5.399   3.229  0.1426  0.4982  1.1713
 3694TIP3    H232498   2.555   5.291   3.161 -1.9496  2.5138  0.3885
 3695TIP3   OH232499   4.548   3.654   4.582  0.5300 -0.0474  0.8820
 3695TIP3    H132500   4.558   3.734   4.532  0.7693 -0.7260 -0.1930
 3695TIP3    H232501   4.456   3.652   4.608  0.2505  0.0104 -0.0859
 3696TIP3   OH232502   5.772   4.391  14.732 -0.0617  0.6279 -0.0579
 3696TIP3    H132503   5.813   4.451  14.671  1.0620 -0.0165  0.0443
 3696TIP3    H232504   5.683   4.425  14.743  0.0607  1.3539 -1.2095
 3697TIP3   OH232505   5.270   1.439   1.573  0.1612  0.5181  0.0784
 3697TIP3    H132506   5.185   1.438   1.619 -1.0322  2.6790 -1.8678
 3697TIP3    H232507   5.257   1.500   1.500  3.6633  1.6177  0.1906
 3698TIP3   OH232508   1.430   4.063  10.649  0.6718  0.0528 -0.0297
 3698TIP3    H132509   1.458   4.108  10.570 -0.4212  0.4505 -0.2026
 3698TIP3    H232510   1.401   4.132  10.708  2.7223 -0.1125  1.2777
 3699TIP3   OH232511   2.832   5.958   5.482 -0.2831  0.6965  0.5229
 3699TIP3    H132512   2.927   5.966   5.487 -0.1304 -0.0940 -0.6268
 3699TIP3    H232513   2.813   5.872   5.518 -0.6755  1.2604  1.6870
 3700TIP3   OH232514   2.158   5.612  15.416  0.0330 -0.2245 -0.2213
 3700TIP3    H132515   2.078   5.584  15.461 -0.0816 -0.2816 -0.4558
 3700TIP3    H232516   2.226   5.553  15.449 -0.0638 -0.3111 -0.1746
 3701TIP3   OH232517   4.898   5.078   5.246  0.4591 -0.1167 -0.0203
 3701TIP3    H132518   4.888   5.171   5.223  0.8982  0.1540  0.8453
 3701TIP3    H232519   4.901   5.033   5.161  2.7067  0.9104 -0.5863
 3702TIP3   OH232520   1.586   0.073   3.987 -0.2663 -0.9011 -0.0261
 3702TIP3    H132521   1.657   0.058   3.925  0.3511  1.1424  0.1228
 3702TIP3    H232522   1.519   0.119   3.937 -0.3277 -0.4331  0.4761
 3703TIP3   OH232523   5.192   3.312  10.823  0.1800 -0.0360  0.0272
 3703TIP3    H132524   5.114   3.311  10.880  0.5095  1.8643  0.5832
 3703TIP3    H232525   5.161   3.278  10.739 -1.4223  1.1350  0.0897
 3704TIP3   OH232526   1.873   4.942   4.010  0.5127 -0.0874 -0.1606
 3704TIP3    H132527   1.899   4.861   4.053 -0.6466 -1.2799 -1.5988
 3704TIP3    H232528   1.900   4.930   3.919 -1.6292  0.1796 -0.8698
 3705TIP3   OH232529   3.642   5.902   0.314  0.0490  0.3755 -0.1524
 3705TIP3    H132530   3.692   5.880   0.236 -0.2153  0.6668 -0.4071
 3705TIP3    H232531   3.617   5.817   0.351 -0.3945  0.2386 -0.7564
 3706TIP3   OH232532   4.103   3.771   0.654  0.3822  0.3015 -0.1445
 3706TIP3    H132533   4.181   3.716   0.651 -0.7454 -1.3962  0.4573
 3706TIP3    H232534   4.136   3.857   0.683  1.9330 -0.5519  0.7652
 3707TIP3   OH232535   2.725   5.926  16.120  0.4110 -0.0872 -0.1321
 3707TIP3    H132536   2.639   5.886  16.107 -0.1993  1.1972 -0.1728
 3707TIP3    H232537   2.746   5.965  16.035  0.5101  0.5862  0.1974
 3708TIP3   OH232538   0.938   6.201   0.083 -0.3057 -0.1052 -0.0064
 3708TIP3    H132539   1.019   6.158   0.057  0.0181  0.7129 -0.4019
 3708TIP3    H232540   0.949   6.217   0.177  0.8426  1.6872 -0.3902
 3709TIP3   OH232541   0.568   2.212  15.536  0.5459  0.5922  0.3270
 3709TIP3    H132542   0.574   2.307  15.541 -0.3305  0.5946  1.5923
 3709TIP3    H232543   0.660   2.183  15.535  0.8351  1.4684 -1.0462
 3710TIP3   OH232544   1.175   0.254  17.047 -0.2324  0.4179  0.1056
 3710TIP3    H132545   1.136   0.337  17.019 -1.1354  0.6888  2.0381
 3710TIP3    H232546   1.247   0.239  16.985 -0.2759  2.4495 -0.4954
 3711TIP3   OH232547   5.881   3.697   5.956  0.4413 -0.6821 -0.3613
 3711TIP3    H132548   5.919   3.719   5.871  1.5341  0.8409  0.4755
 3711TIP3    H232549   5.826   3.621   5.938  1.2788 -0.9067 -2.2718
 3712TIP3   OH232550   3.541   2.478  17.236  0.5197  0.2688  0.0731
 3712TIP3    H132551   3.624   2.498  17.280 -1.0797  1.0614  3.0440
 3712TIP3    H232552   3.479   2.541  17.274 -1.4566 -0.2475 -2.0877
 3713TIP3   OH232553   0.789   5.106   4.931 -0.5004 -0.0428  0.3391
 3713TIP3    H132554   0.784   5.200   4.948  2.5596  0.2994 -0.1384
 3713TIP3    H232555   0.787   5.098   4.836  1.4420 -0.1808  0.2603
 3714TIP3   OH232556   4.162   0.848  17.382 -0.1851 -0.1899  0.1129
 3714TIP3    H132557   4.124   0.780  17.438  1.1936 -1.2490 -0.1992
 3714TIP3    H232558   4.242   0.874  17.428 -0.9999  1.7017  0.5418
 3715TIP3   OH232559   6.373   2.042  12.795  0.7739  0.2449  0.0251
 3715TIP3    H132560   6.311   2.079  12.859  0.2222  0.3736 -0.5709
 3715TIP3    H232561   6.417   1.972  12.842  0.5091  0.4598  0.6063
 3716TIP3   OH232562   3.192   5.051  15.842 -0.1781  0.2095  0.0325
 3716TIP3    H132563   3.262   5.079  15.901 -0.2774 -0.9706  0.7388
 3716TIP3    H232564   3.213   5.093  15.759  1.9513 -0.8674 -0.0597
 3717TIP3   OH232565   6.293   2.249  13.280 -0.3140 -0.1775  0.1770
 3717TIP3    H132566   6.331   2.209  13.359 -0.2517 -0.1716  0.1501
 3717TIP3    H232567   6.211   2.202  13.267 -1.7483  1.6810  1.8557
 3718TIP3   OH232568   6.375   0.265   1.939  0.2602  0.2776  0.4741
 3718TIP3    H132569   6.296   0.310   1.967  0.3400  0.5411  0.2794
 3718TIP3    H232570   6.432   0.334   1.905  0.5951  0.0963  0.6571
 3719TIP3   OH232571   1.858   3.719   1.062  0.7363  0.0690 -0.4122
 3719TIP3    H132572   1.952   3.707   1.045  0.6602 -0.8116 -0.2142
 3719TIP3    H232573   1.820   3.633   1.051  0.4259 -0.2705  2.5001
 3720TIP3   OH232574   1.662   4.728   4.293 -0.3199 -0.1776  0.5433
 3720TIP3    H132575   1.726   4.743   4.223 -0.7834  0.4620  0.2499
 3720TIP3    H232576   1.682   4.639   4.325  0.9026  0.1220  0.6693
 3721TIP3   OH232577   5.065   4.394   0.143  0.4606 -0.2316 -0.2890
 3721TIP3    H132578   5.054   4.313   0.193 -1.6102 -0.1237 -0.4998
 3721TIP3    H232579   4.977   4.418   0.115  1.3082  0.8582 -2.2339
 3722TIP3   OH232580   4.797   5.509  17.270  0.1541  0.6869 -0.0797
 3722TIP3    H132581   4.843   5.474  17.346  0.2229  1.0374  0.0433
 3722TIP3    H232582   4.834   5.462  17.196 -2.2096 -2.1163  0.3420
 3723TIP3   OH232583   6.540   6.278   4.062 -0.4948  0.0978 -0.2871
 3723TIP3    H132584   6.607   6.213   4.083 -1.9451 -1.6088 -0.6959
 3723TIP3    H232585   6.573   6.321   3.982  0.6519  0.1596  0.1977
 3724TIP3   OH232586   1.196   1.278  11.869  0.0882 -0.3318 -0.8031
 3724TIP3    H132587   1.130   1.262  11.937 -0.0170  0.3514 -0.7340
 3724TIP3    H232588   1.210   1.373  11.871  0.9380 -0.4480 -0.9494
 3725TIP3   OH232589   2.406   3.553  12.747 -0.5641 -0.3799  0.3512
 3725TIP3    H132590   2.417   3.607  12.669 -2.1839 -0.5472 -0.0311
 3725TIP3    H232591   2.320   3.513  12.736 -0.2377 -1.4703  1.5874
 3726TIP3   OH232592   6.073   1.031  11.009 -0.4875 -0.0245 -0.0240
 3726TIP3    H132593   6.153   1.009  10.962 -0.3052  0.0801  0.2297
 3726TIP3    H232594   6.103   1.053  11.098 -0.7305  0.5686 -0.0795
 3727TIP3   OH232595   3.837   1.787   5.580  0.1346 -0.3723 -0.5553
 3727TIP3    H132596   3.887   1.737   5.644 -0.2384 -0.2579 -0.1750
 3727TIP3    H232597   3.903   1.814   5.515  0.0833 -2.8514 -1.7512
 3728TIP3   OH232598   6.262   4.312  12.434 -0.1254 -0.1703  0.1099
 3728TIP3    H132599   6.210   4.241  12.396 -1.2073  0.6367  0.0478
 3728TIP3    H232600   6.352   4.291  12.410 -0.3862 -1.7008  0.3925
 3729TIP3   OH232601   2.331   6.058   0.473  0.9742  0.3866  0.0005
 3729TIP3    H132602   2.411   6.051   0.421  0.4147  1.2188 -0.9971
 3729TIP3    H232603   2.360   6.100   0.554  1.9655 -1.4802  0.6747
 3730TIP3   OH232604   4.623   2.639  11.521 -0.4020 -0.3097 -0.1266
 3730TIP3    H132605   4.583   2.724  11.542 -0.6263 -0.5445  0.4113
 3730TIP3    H232606   4.577   2.576  11.576 -0.7553 -0.9035 -1.0675
 3731TIP3   OH232607   3.959   3.127   6.083  0.0430 -0.0923 -0.1430
 3731TIP3    H132608   3.980   3.049   6.135  0.8802 -0.0494 -0.4129
 3731TIP3    H232609   3.944   3.094   5.995 -0.9319 -0.1060  0.0151
 3732TIP3   OH232610   0.392   5.370   1.729 -0.1955  0.0323  0.1271
 3732TIP3    H132611   0.457   5.317   1.682 -1.1001 -0.3702 -0.7192
 3732TIP3    H232612   0.430   5.457   1.733 -0.2560  0.1879 -1.7791
 3733TIP3   OH232613   5.410   6.100  10.986 -0.5185  0.4442  0.1925
 3733TIP3    H132614   5.432   6.010  11.009 -0.7293 -0.1205 -1.6391
 3733TIP3    H232615   5.337   6.092  10.925  0.4251  1.7447 -1.2001
 3734TIP3   OH232616   0.304   6.027  12.078  0.7612 -0.4471 -0.3471
 3734TIP3    H132617   0.348   5.986  12.004 -0.5053  1.0158 -2.0136
 3734TIP3    H232618   0.350   6.109  12.092  1.8437 -1.3064  1.4467
 3735TIP3   OH232619   1.486   0.544   2.014  0.8972  0.4815  0.3637
 3735TIP3    H132620   1.512   0.488   2.087 -0.5958  0.9318  1.2712
 3735TIP3    H232621   1.535   0.625   2.028 -0.2885  1.0297  1.6130
 3736TIP3   OH232622   5.588   1.877   1.656 -0.9436  0.3786  0.1071
 3736TIP3    H132623   5.610   1.872   1.563  0.8704 -1.5076  0.5739
 3736TIP3    H232624   5.510   1.933   1.659 -1.7077 -0.3865 -2.6446
 3737TIP3   OH232625   5.987   5.186  11.532 -0.1348 -0.0718  0.4642
 3737TIP3    H132626   5.912   5.155  11.481  1.2198  0.6262 -2.1493
 3737TIP3    H232627   6.042   5.109  11.543  0.3014  0.0689 -0.5797
 3738TIP3   OH232628   4.889   5.647  13.576 -0.2757 -0.2470  0.4660
 3738TIP3    H132629   4.940   5.705  13.632 -0.6041  0.6752 -0.1615
 3738TIP3    H232630   4.824   5.609  13.633  0.5417 -0.7367  1.0875
 3739TIP3   OH232631   6.427   4.810  15.267 -0.3628  0.2097  0.3345
 3739TIP3    H132632   6.514   4.830  15.235  0.1923 -0.7729  1.1504
 3739TIP3    H232633   6.367   4.850  15.203  0.6742 -0.0065 -0.7973
 3740TIP3   OH232634   0.686   2.348  11.955  0.0358 -0.6560  0.0497
 3740TIP3    H132635   0.761   2.291  11.936 -1.0886 -2.3715  0.4995
 3740TIP3    H232636   0.610   2.289  11.955 -1.0064  0.5603  2.1151
 3741TIP3   OH232637   3.156   0.293  15.082 -0.5590  0.0621  0.2881
 3741TIP3    H132638   3.136   0.234  15.010 -1.7438  0.1021  0.5770
 3741TIP3    H232639   3.215   0.243  15.139 -0.4370 -0.3333 -0.1868
 3742TIP3   OH232640   2.993   2.940   2.794 -0.7729  0.1967 -0.5551
 3742TIP3    H132641   3.006   2.957   2.887 -1.1488  0.9527 -0.6295
 3742TIP3    H232642   2.901   2.914   2.787 -0.7141  0.0255 -0.7001
 3743TIP3   OH232643   4.484   3.343   0.493  0.0138  0.1249 -0.4089
 3743TIP3    H132644   4.539   3.331   0.571 -0.6620 -0.8866 -0.0541
 3743TIP3    H232645   4.501   3.265   0.440 -1.1826 -0.3083 -0.2033
 3744TIP3   OH232646   2.868   3.838  13.690  0.9795 -0.8714 -0.2657
 3744TIP3    H132647   2.913   3.857  13.607  0.4937  1.2538 -0.1119
 3744TIP3    H232648   2.911   3.895  13.754 -1.8651  1.3436 -0.1308
 3745TIP3   OH232649   0.149   1.888   0.873  0.4279  0.2394 -0.0276
 3745TIP3    H132650   0.080   1.931   0.923 -0.2614 -2.4803  1.5320
 3745TIP3    H232651   0.227   1.940   0.890 -0.9699  2.9520 -1.2229
 3746TIP3   OH232652   4.503   0.986  13.527 -0.0386 -0.3473  0.0617
 3746TIP3    H132653   4.501   0.911  13.467 -1.1256 -0.7552  0.5733
 3746TIP3    H232654   4.445   1.050  13.486 -0.8034 -0.6375  0.6733
 3747TIP3   OH232655   3.019   2.602   5.264  0.2309 -0.0951  0.0292
 3747TIP3    H132656   3.026   2.560   5.178 -0.0290  0.8584 -0.4658
 3747TIP3    H232657   3.020   2.529   5.326  0.1129 -0.8155 -0.7974
 3748TIP3   OH232658   0.820   1.477   0.302  0.0833 -0.0600  0.6787
 3748TIP3    H132659   0.849   1.386   0.293  1.8495  0.5656 -0.2618
 3748TIP3    H232660   0.810   1.490   0.396 -2.0874 -1.7569  0.7598
 3749TIP3   OH232661   3.795   3.640   2.912 -0.2550  0.4850  0.1090
 3749TIP3    H132662   3.741   3.622   2.989 -0.4852 -2.4341 -0.6469
 3749TIP3    H232663   3.881   3.603   2.933 -0.2347 -0.0822 -0.8972
 3750TIP3   OH232664   0.801   6.151  10.765  0.0744  0.1738  0.5196
 3750TIP3    H132665   0.859   6.099  10.710 -0.4024 -0.5782  0.7107
 3750TIP3    H232666   0.858   6.188  10.832  0.4241 -0.1100  0.3776
 3751TIP3   OH232667   0.499   3.142  11.993 -0.2377  0.0747  0.2152
 3751TIP3    H132668   0.440   3.191  12.049 -0.9318 -0.6769  0.1557
 3751TIP3    H232669   0.548   3.209  11.946 -1.1302  0.7131  0.1689
 3752TIP3   OH232670   5.493   0.808  16.494 -0.0908 -0.5897 -0.8524
 3752TIP3    H132671   5.575   0.844  16.526  0.2144 -0.7447 -1.4418
 3752TIP3    H232672   5.447   0.883  16.456 -0.9022 -0.2010  0.7975
 3753TIP3   OH232673   5.335   6.268   4.244  0.0159  0.0390 -0.7684
 3753TIP3    H132674   5.275   6.193   4.244  1.9519 -1.6751  1.6229
 3753TIP3    H232675   5.296   6.329   4.306  0.1389 -0.5525 -0.0940
 3754TIP3   OH232676   0.842   2.579  16.351 -0.1014 -0.0707 -0.6343
 3754TIP3    H132677   0.801   2.663  16.369  0.5542  0.3746 -1.2080
 3754TIP3    H232678   0.818   2.559  16.260 -1.3325 -1.1292 -0.1159
 3755TIP3   OH232679   1.773   0.902   2.150  0.4549  0.1529  0.4146
 3755TIP3    H132680   1.816   0.890   2.234  0.3289  0.1890  0.4844
 3755TIP3    H232681   1.764   0.813   2.115  0.2083  0.1062  0.5900
 3756TIP3   OH232682   0.628   3.877   1.831 -0.2243  0.1882  0.0595
 3756TIP3    H132683   0.704   3.934   1.844 -0.0836 -0.0437  0.2800
 3756TIP3    H232684   0.571   3.896   1.907 -0.5437  0.6015 -0.2774
 3757TIP3   OH232685   4.588   3.465  14.068 -0.4169  0.2681  0.8726
 3757TIP3    H132686   4.682   3.466  14.082 -0.4703  1.7520  1.2558
 3757TIP3    H232687   4.574   3.523  13.993 -1.0037 -0.2579  0.5580
 3758TIP3   OH232688   2.464   2.462  13.374 -0.1293  0.3601  0.2174
 3758TIP3    H132689   2.377   2.450  13.413 -0.3406  1.8606  0.2490
 3758TIP3    H232690   2.488   2.374  13.343 -1.8573  0.0068 -0.2396
 3759TIP3   OH232691   5.333   2.826   1.513  0.2560 -0.7145  1.0408
 3759TIP3    H132692   5.258   2.871   1.474  0.9004 -0.5243 -0.0519
 3759TIP3    H232693   5.296   2.769   1.580 -0.7914 -0.1521  0.9574
 3760TIP3   OH232694   2.237   1.778  12.229  0.0686 -0.4056  0.1972
 3760TIP3    H132695   2.142   1.770  12.231  0.0832 -0.5712  0.2764
 3760TIP3    H232696   2.262   1.787  12.321  0.0598  0.5109  0.1192
 3761TIP3   OH232697   4.200   2.850  11.936 -0.6650  0.2363  0.1537
 3761TIP3    H132698   4.163   2.762  11.942 -0.9461  0.3282 -0.1604
 3761TIP3    H232699   4.131   2.902  11.894  0.1473  0.2276 -1.2333
 3762TIP3   OH232700   1.145   2.440   2.666  0.8479  0.3312 -0.1739
 3762TIP3    H132701   1.224   2.431   2.612  0.5076  1.1689 -0.8468
 3762TIP3    H232702   1.154   2.527   2.706  0.0661  0.6356 -0.6241
 3763TIP3   OH232703   1.976   3.978   1.234 -0.1342  0.3495  0.0852
 3763TIP3    H132704   2.012   3.927   1.161 -0.7974  0.8885 -0.6399
 3763TIP3    H232705   1.881   3.964   1.227 -0.3263  1.6651 -0.1307
 3764TIP3   OH232706   0.562   6.290  16.075 -0.4385  0.2197 -0.4414
 3764TIP3    H132707   0.534   6.198  16.073 -0.0692  0.1103 -0.6982
 3764TIP3    H232708   0.537   6.320  16.162 -3.1363  0.6957 -1.2789
 3765TIP3   OH232709   3.900   4.452  16.167  0.3783  0.0103  0.1737
 3765TIP3    H132710   3.951   4.435  16.246  0.0603 -0.1412  0.3491
 3765TIP3    H232711   3.942   4.400  16.099 -0.0753 -0.8208  0.5179
 3766TIP3   OH232712   3.381   5.362   6.101  0.2106  0.1908 -0.5674
 3766TIP3    H132713   3.386   5.266   6.109  1.8516  0.3055  0.3037
 3766TIP3    H232714   3.401   5.379   6.009 -0.2419 -0.3067 -0.7647
 3767TIP3   OH232715   5.183   5.813   4.884 -0.5549  0.5551  0.2495
 3767TIP3    H132716   5.208   5.748   4.818 -0.7759 -0.3318  1.0391
 3767TIP3    H232717   5.100   5.782   4.919 -0.1439  0.7035  1.3723
 3768TIP3   OH232718   2.999   4.993   3.109 -0.4821 -0.0165  0.0090
 3768TIP3    H132719   2.969   4.906   3.135  1.0886 -0.7090 -0.4047
 3768TIP3    H232720   2.922   5.033   3.067 -2.0015 -0.2054  2.4108
 3769TIP3   OH232721   6.267   4.315  10.472  0.1357 -0.3975 -0.5980
 3769TIP3    H132722   6.309   4.393  10.509  1.8662 -1.5436 -0.0207
 3769TIP3    H232723   6.236   4.265  10.548  0.9566 -1.2867 -0.8283
 3770TIP3   OH232724   0.382   4.874  11.777  0.0543 -0.7719 -0.1529
 3770TIP3    H132725   0.418   4.957  11.747  1.3799 -0.5710  1.8607
 3770TIP3    H232726   0.310   4.898  11.835 -0.1207 -1.0566 -0.2477
 3771TIP3   OH232727   0.103   6.308  16.121  0.0759  0.2892  0.1215
 3771TIP3    H132728   0.179   6.251  16.111  1.2759  1.8783 -0.2501
 3771TIP3    H232729   0.064   6.311  16.034  0.0556  0.1091  0.1235
 3772TIP3   OH232730   4.124   3.991   4.851 -0.4826  0.1637 -0.0935
 3772TIP3    H132731   4.055   4.025   4.794 -0.2401 -1.1260 -1.2136
 3772TIP3    H232732   4.084   3.918   4.898 -0.0092 -0.3758 -0.4998
 3773TIP3   OH232733   0.572   2.875  16.528  0.5388  0.1216 -0.2119
 3773TIP3    H132734   0.503   2.928  16.487 -0.3377 -0.2556  0.7215
 3773TIP3    H232735   0.588   2.917  16.612  1.2874  0.0543 -0.3132
 3774TIP3   OH232736   2.949   0.415  14.505  0.2068 -0.7882 -0.4101
 3774TIP3    H132737   2.992   0.399  14.421  1.4551  0.0736  0.0467
 3774TIP3    H232738   3.005   0.477  14.550 -2.5422  2.1314 -0.6466
 3775TIP3   OH232739   4.764   2.291  12.276  1.0652 -0.0402 -0.6697
 3775TIP3    H132740   4.746   2.289  12.182 -0.8427 -0.6644 -0.3423
 3775TIP3    H232741   4.756   2.384  12.300  2.2095  0.2097 -1.2168
 3776TIP3   OH232742   2.461   5.926   1.226  0.4464 -0.2783  0.4893
 3776TIP3    H132743   2.390   5.876   1.186 -0.0009 -0.5720  1.6361
 3776TIP3    H232744   2.491   5.872   1.298  1.6465 -0.0190  0.2095
 3777TIP3   OH232745   6.746   1.978   0.664 -0.0687 -0.5690  0.1546
 3777TIP3    H132746   6.807   1.931   0.721  1.8321  3.7421  2.2125
 3777TIP3    H232747   6.799   2.005   0.589 -0.5098 -0.1539 -0.0143
 3778TIP3   OH232748   2.595   0.275   0.909 -0.2997  0.4242 -0.2930
 3778TIP3    H132749   2.580   0.336   0.836 -1.5402  0.2153 -0.2397
 3778TIP3    H232750   2.515   0.223   0.912 -0.1643  0.2822  1.0941
 3779TIP3   OH232751   4.933   3.406  17.324 -0.3525  0.6224 -0.9264
 3779TIP3    H132752   4.889   3.375  17.403 -0.0086  1.2305 -0.4855
 3779TIP3    H232753   4.863   3.413  17.259 -0.9765  1.8525 -0.1589
 3780TIP3   OH232754   1.825   0.608   1.411  0.1762  0.2986 -0.0115
 3780TIP3    H132755   1.920   0.609   1.422  0.1816 -0.2831  0.0503
 3780TIP3    H232756   1.807   0.524   1.369 -0.3931  0.0237  0.7575
 3781TIP3   OH232757   0.700   2.504   1.920 -0.4590 -0.2295  0.3987
 3781TIP3    H132758   0.663   2.469   2.001  0.1127  0.5431  1.0162
 3781TIP3    H232759   0.678   2.597   1.922 -2.3164 -0.5585 -1.4135
 3782TIP3   OH232760   6.212   4.183   4.254 -0.2618 -0.4554  0.1109
 3782TIP3    H132761   6.216   4.167   4.159 -0.8585 -1.7831  0.2800
 3782TIP3    H232762   6.121   4.208   4.270 -0.0741  0.1206  0.2940
 3783TIP3   OH232763   1.855   0.145  12.735  0.3707 -0.4065  0.0062
 3783TIP3    H132764   1.772   0.159  12.781  0.4172 -0.7993  0.2123
 3783TIP3    H232765   1.833   0.151  12.642 -0.0147 -1.1542  0.0385
 3784TIP3   OH232766   0.795   4.961  15.689 -0.5920 -0.3535  0.3467
 3784TIP3    H132767   0.762   4.880  15.727 -1.5772 -0.8453 -1.4006
 3784TIP3    H232768   0.793   5.024  15.761  0.6498 -1.9669  1.8618
 3785TIP3   OH232769   0.206   2.694  12.240 -0.1384  0.2256 -0.3547
 3785TIP3    H132770   0.287   2.731  12.275 -0.6715  1.1548 -0.0777
 3785TIP3    H232771   0.154   2.671  12.317 -0.1760 -0.2732 -0.5290
 3786TIP3   OH232772   2.706   1.085   1.248 -0.3873  0.3571 -0.5683
 3786TIP3    H132773   2.665   1.113   1.166 -2.4771  0.7914  0.5455
 3786TIP3    H232774   2.683   1.154   1.311  0.1163 -0.5601  0.6593
 3787TIP3   OH232775   3.451   1.407   3.116 -0.0832  0.3389  0.1868
 3787TIP3    H132776   3.470   1.354   3.194  1.9470  5.0468  3.4049
 3787TIP3    H232777   3.381   1.466   3.143 -1.2461  0.4134 -2.6403
 3788TIP3   OH232778   0.899   2.466  15.022  0.0372 -0.2843  0.3851
 3788TIP3    H132779   0.951   2.447  14.944  1.6200 -2.7645  1.9433
 3788TIP3    H232780   0.961   2.503  15.085 -0.9139  0.3304  0.9949
 3789TIP3   OH232781   0.447   1.861  17.342  0.2761  0.0558  0.0975
 3789TIP3    H132782   0.434   1.766  17.345  1.8371 -0.1862 -0.2790
 3789TIP3    H232783   0.432   1.889  17.432  3.0255 -1.0462  1.0100
 3790TIP3   OH232784   0.760   3.185   0.941 -0.3032  0.1917 -0.0758
 3790TIP3    H132785   0.803   3.261   0.980 -0.1188 -0.8510  1.8686
 3790TIP3    H232786   0.831   3.135   0.902 -0.4048  0.8881 -1.2075
 3791TIP3   OH232787   6.027   0.922  12.904 -0.2034 -0.3529  0.1210
 3791TIP3    H132788   6.004   0.993  12.844 -0.8719 -1.5469 -1.0902
 3791TIP3    H232789   6.057   0.967  12.983 -0.9303  1.2730 -0.4731
 3792TIP3   OH232790   5.183   5.364   1.173  0.0394 -0.4624  0.3569
 3792TIP3    H132791   5.101   5.359   1.222  0.6770 -0.9427  1.4102
 3792TIP3    H232792   5.247   5.398   1.236  1.2434 -2.5567  0.3652
 3793TIP3   OH232793   5.851   2.499  11.447 -0.6869  0.2694 -0.5268
 3793TIP3    H132794   5.932   2.537  11.482 -0.8476  0.2576 -0.1339
 3793TIP3    H232795   5.859   2.405  11.467 -1.8618  0.5696  1.7275
 3794TIP3   OH232796   0.582   6.314   6.112  0.3724 -0.4963  0.0426
 3794TIP3    H132797   0.580   6.397   6.065  3.4767  0.0410  0.5946
 3794TIP3    H232798   0.492   6.300   6.141 -0.5159  1.9658 -1.2188
 3795TIP3   OH232799   6.705   5.934   0.746  0.5306  0.2280  0.8374
 3795TIP3    H132800   6.752   5.925   0.663  0.4439  0.6236  0.7408
 3795TIP3    H232801   6.655   6.015   0.736 -1.4524 -1.0143  0.3007
 3796TIP3   OH232802   3.754   4.736  17.294  0.1730 -0.2848 -0.1785
 3796TIP3    H132803   3.674   4.776  17.328 -0.6477 -1.1241 -1.0815
 3796TIP3    H232804   3.750   4.645  17.322  0.2526 -0.6068 -1.1589
 3797TIP3   OH232805   4.916   5.651  11.693 -0.0410 -0.1407 -0.4152
 3797TIP3    H132806   4.854   5.645  11.765  0.6191  0.7752  0.2607
 3797TIP3    H232807   4.921   5.744  11.672  2.1140  0.0149  0.4956
 3798TIP3   OH232808   4.477   4.250   1.591  0.5041  0.1146  0.1976
 3798TIP3    H132809   4.400   4.246   1.648  0.9058  1.9642  0.9405
 3798TIP3    H232810   4.468   4.174   1.533 -0.5053 -1.1766  1.9621
 3799TIP3   OH232811   3.030   6.245   2.508  0.2817  0.0097 -0.1410
 3799TIP3    H132812   3.063   6.166   2.464 -0.4615 -0.5147  0.2176
 3799TIP3    H232813   3.107   6.299   2.522  0.7498 -0.4965 -0.7242
 3800TIP3   OH232814   2.506   5.630  15.442 -0.1856  0.5466 -0.0229
 3800TIP3    H132815   2.453   5.686  15.384  3.8407  2.3084 -2.4860
 3800TIP3    H232816   2.547   5.567  15.382 -1.0697 -2.1601  2.0714
 3801TIP3   OH232817   5.434   3.004   4.267 -0.2111  0.3800  0.5123
 3801TIP3    H132818   5.350   2.988   4.308  0.0881 -0.7770  0.7082
 3801TIP3    H232819   5.413   3.030   4.177 -0.7700 -0.3801  0.4163
 3802TIP3   OH232820   2.392   0.609   0.488 -0.4771  0.4816 -0.2852
 3802TIP3    H132821   2.308   0.647   0.514  0.0453  0.3714  1.7081
 3802TIP3    H232822   2.373   0.515   0.481 -0.6832  0.5431 -0.6061
 3803TIP3   OH232823   5.912   3.521  16.118  0.8941  0.1771 -0.0204
 3803TIP3    H132824   5.959   3.469  16.053 -0.1639 -0.6364 -0.1528
 3803TIP3    H232825   5.856   3.578  16.066 -0.2372 -0.7420  0.1613
 3804TIP3   OH232826   4.801   5.342  10.728 -0.1907  0.4705  0.0309
 3804TIP3    H132827   4.755   5.352  10.811  1.0544 -0.3272  0.8410
 3804TIP3    H232828   4.828   5.431  10.705 -5.7874  1.9052 -2.7814
 3805TIP3   OH232829   4.441   2.835   3.643 -0.8529  0.3304 -0.7079
 3805TIP3    H132830   4.480   2.861   3.727  0.1769 -0.7450 -0.8306
 3805TIP3    H232831   4.372   2.773   3.667 -0.9954  0.5144 -0.6318
 3806TIP3   OH232832   6.712   3.804  14.593 -0.7931 -0.4122 -0.2709
 3806TIP3    H132833   6.715   3.715  14.559 -3.9028 -0.0918 -1.7300
 3806TIP3    H232834   6.699   3.859  14.515  0.9927  1.3656  0.5981
 3807TIP3   OH232835   6.741   1.636   4.136 -0.5582  0.4957 -0.2561
 3807TIP3    H132836   6.749   1.604   4.226  1.3937  1.7368  0.0790
 3807TIP3    H232837   6.786   1.720   4.137  0.0690  0.2377 -2.5309
 3808TIP3   OH232838   4.036   3.850   6.159 -0.5858 -0.0785 -0.1177
 3808TIP3    H132839   4.128   3.823   6.165 -0.5237  0.0757 -0.3727
 3808TIP3    H232840   3.990   3.771   6.131 -0.5861 -0.2548  0.3599
 3809TIP3   OH232841   0.185   0.179  15.442 -0.4524 -0.4363 -0.4141
 3809TIP3    H132842   0.268   0.225  15.452 -1.3880  0.8560  2.7803
 3809TIP3    H232843   0.156   0.164  15.532 -2.9806 -2.1861 -1.4243
 3810TIP3   OH232844   4.024   2.060   4.437  0.2985 -0.9274 -0.2132
 3810TIP3    H132845   3.929   2.059   4.442  0.2556  1.5645  0.6974
 3810TIP3    H232846   4.053   2.024   4.521  0.1031  0.3827  0.4352
 3811TIP3   OH232847   2.403   3.872  14.847 -0.1386 -0.0894  0.3555
 3811TIP3    H132848   2.371   3.904  14.763  0.3900  2.5775  1.0514
 3811TIP3    H232849   2.325   3.843  14.894 -0.5467 -0.6807 -0.6682
 3812TIP3   OH232850   4.537   5.911   6.343 -0.2370  0.2090 -0.5037
 3812TIP3    H132851   4.574   5.973   6.406  0.8166  0.0252 -0.9238
 3812TIP3    H232852   4.511   5.966   6.269 -1.2267  0.3906 -0.0381
 3813TIP3   OH232853   2.734   5.184  15.171 -0.4544 -0.4661  0.2145
 3813TIP3    H132854   2.693   5.176  15.085  0.6153 -0.2867 -0.3271
 3813TIP3    H232855   2.818   5.140  15.162 -0.0662  0.0926  0.9862
 3814TIP3   OH232856   5.616   4.804  12.348  0.4946  0.1148  0.3612
 3814TIP3    H132857   5.650   4.893  12.335  0.2445  0.1856  0.1981
 3814TIP3    H232858   5.635   4.759  12.266  0.8308 -0.0520  0.5271
 3815TIP3   OH232859   1.921   5.448   6.656  0.1017 -0.2865  0.8374
 3815TIP3    H132860   1.842   5.469   6.606  0.5455  2.3250  1.1039
 3815TIP3    H232861   1.888   5.425   6.743 -0.4014  1.5585  1.1870
 3816TIP3   OH232862   6.408   6.266  14.305  0.2230 -0.3164 -0.6531
 3816TIP3    H132863   6.320   6.262  14.341 -0.2796  0.5372 -1.7365
 3816TIP3    H232864   6.441   6.351  14.332  0.2951 -0.1721 -1.1940
 3817TIP3   OH232865   2.052   1.560  13.069 -0.1454  0.1297 -0.5245
 3817TIP3    H132866   2.035   1.560  13.163  0.8170  0.7605 -0.3318
 3817TIP3    H232867   2.135   1.608  13.059 -1.2700  1.9512 -1.8842
 3818TIP3   OH232868   0.234   1.204  15.621 -0.4644 -0.2835 -0.4406
 3818TIP3    H132869   0.149   1.191  15.579 -1.5931  2.3075  0.7599
 3818TIP3    H232870   0.231   1.150  15.700 -2.3811  1.9134  1.1701
 3819TIP3   OH232871   6.302   3.475  15.525 -0.3883 -0.0274 -0.3350
 3819TIP3    H132872   6.385   3.511  15.556  0.2177 -0.3537 -1.4935
 3819TIP3    H232873   6.269   3.424  15.599  2.3306 -3.0308 -0.9622
 3820TIP3   OH232874   5.239   6.034  16.302 -0.1296  0.0559 -0.8508
 3820TIP3    H132875   5.244   6.093  16.377  0.9407 -0.7382 -0.2770
 3820TIP3    H232876   5.256   5.947  16.338 -0.8880 -0.5172 -1.8072
 3821TIP3   OH232877   3.564   3.041  13.548  0.1593  0.4582  0.5090
 3821TIP3    H132878   3.476   3.078  13.559  0.2147  0.9984 -0.7555
 3821TIP3    H232879   3.619   3.116  13.525  1.1340  0.2661  2.0513
 3822TIP3   OH232880   5.169   4.298  16.997 -0.4042  1.0150  0.1330
 3822TIP3    H132881   5.206   4.258  17.076 -1.7040  1.6474  1.1113
 3822TIP3    H232882   5.130   4.225  16.949  1.6158  0.4071 -0.6953
 3823TIP3   OH232883   1.592   5.519   4.772 -0.5472  0.2876 -0.1069
 3823TIP3    H132884   1.581   5.587   4.706 -2.2903  1.9416  1.7682
 3823TIP3    H232885   1.666   5.549   4.824 -0.1794 -0.2041 -0.3391
 3824TIP3   OH232886   0.737   1.456   0.856 -0.6973  0.2730  0.6439
 3824TIP3    H132887   0.796   1.495   0.920  0.4148  2.0920 -1.3301
 3824TIP3    H232888   0.780   1.374   0.832 -0.3751  0.2740  1.1935
 3825TIP3   OH232889   0.572   5.164   1.663  0.2509 -0.1078 -0.0575
 3825TIP3    H132890   0.504   5.097   1.661  1.3245 -1.2014 -0.9650
 3825TIP3    H232891   0.645   5.127   1.613  1.1236  1.4680 -0.0281
 3826TIP3   OH232892   6.264   6.312   5.543  0.5858 -0.7842 -0.2416
 3826TIP3    H132893   6.337   6.253   5.561  0.8891 -0.4094 -0.2224
 3826TIP3    H232894   6.275   6.336   5.451  2.7971  2.3449  0.6927
 3827TIP3   OH232895   5.980   2.797   3.625 -0.3234 -0.0062  0.0644
 3827TIP3    H132896   5.938   2.827   3.544  0.3944 -1.1393 -0.7715
 3827TIP3    H232897   6.067   2.767   3.596  0.3209  0.5083  1.4288
 3828TIP3   OH232898   2.248   4.148  14.439 -0.0037  0.4214  0.3003
 3828TIP3    H132899   2.258   4.188  14.525  0.2351  2.0997 -0.4795
 3828TIP3    H232900   2.154   4.145  14.425 -0.0388  0.2520  0.5556
 3829TIP3   OH232901   2.284   1.297   0.932  1.2606  0.7164 -0.0804
 3829TIP3    H132902   2.292   1.277   0.838  0.0785 -1.7815  0.2966
 3829TIP3    H232903   2.329   1.225   0.976 -1.8509 -0.4898  1.3361
 3830TIP3   OH232904   3.420   3.380   2.386  0.4605 -0.4543 -0.0814
 3830TIP3    H132905   3.422   3.474   2.401  1.0462 -0.4718 -0.0552
 3830TIP3    H232906   3.511   3.352   2.389  0.1731 -1.4666  2.7903
 3831TIP3   OH232907   4.292   0.074   1.149 -0.1330  0.9616 -0.0485
 3831TIP3    H132908   4.321   0.165   1.153  0.6670  0.8032 -1.5143
 3831TIP3    H232909   4.365   0.023   1.184  0.2291  0.7620 -1.0647
 3832TIP3   OH232910   2.116   6.540   0.671 -0.2136 -0.2408  0.2078
 3832TIP3    H132911   2.163   6.457   0.668  0.5765  0.1239  1.5203
 3832TIP3    H232912   2.066   6.537   0.752 -0.9229  0.1890 -0.2005
 3833TIP3   OH232913   4.072   5.123  16.414 -0.1025  0.2710 -0.6231
 3833TIP3    H132914   4.143   5.060  16.399  0.0297  0.3614 -0.4000
 3833TIP3    H232915   3.997   5.068  16.437 -0.2005  0.1574 -1.2057
 3834TIP3   OH232916   2.079   6.187  11.079 -0.3189  0.0191 -0.2546
 3834TIP3    H132917   2.101   6.114  11.021 -0.7943  0.3656 -0.8801
 3834TIP3    H232918   2.160   6.205  11.127 -0.7128 -2.2172  1.3783
 3835TIP3   OH232919   1.072   0.461  13.106  0.3975  0.1762  0.2656
 3835TIP3    H132920   1.165   0.449  13.124  0.5126  0.5462 -0.0733
 3835TIP3    H232921   1.039   0.372  13.089  0.5049 -0.0554  1.2148
 3836TIP3   OH232922   6.144   4.630  14.959 -0.2204  0.3357  0.7745
 3836TIP3    H132923   6.079   4.610  15.026  0.2938 -2.4129  0.5986
 3836TIP3    H232924   6.228   4.605  14.999  0.4199  1.2939  0.0716
 3837TIP3   OH232925   6.421   0.451  12.791  0.1779  0.6638  0.1631
 3837TIP3    H132926   6.354   0.383  12.795 -0.2749  1.0188 -0.8822
 3837TIP3    H232927   6.469   0.432  12.710  1.7587  0.0519  1.2063
 3838TIP3   OH232928   4.389   4.207  12.866  0.1243  0.8213 -0.3828
 3838TIP3    H132929   4.407   4.127  12.816  0.7453  0.5926  0.1890
 3838TIP3    H232930   4.360   4.270  12.801  0.8153  0.5009 -1.0176
 3839TIP3   OH232931   1.290   6.320   3.885 -0.0654 -0.0534  0.3641
 3839TIP3    H132932   1.240   6.253   3.932  0.1037  0.0905  0.7491
 3839TIP3    H232933   1.234   6.343   3.810 -0.7686  0.4008  1.0198
 3840TIP3   OH232934   5.226   5.437  13.527  0.0317 -0.5013 -0.0147
 3840TIP3    H132935   5.150   5.472  13.482  1.0109 -0.0961 -1.4210
 3840TIP3    H232936   5.238   5.494  13.603 -1.3655 -0.9144  0.5501
 3841TIP3   OH232937   3.063   2.652  13.156  0.4691  0.0087 -0.4611
 3841TIP3    H132938   2.984   2.705  13.170 -0.3323 -0.5250 -2.5752
 3841TIP3    H232939   3.092   2.630  13.244 -1.3439  0.7943  0.4097
 3842TIP3   OH232940   4.993   5.200  14.999 -0.0958  0.0954 -0.0232
 3842TIP3    H132941   5.084   5.222  15.020 -0.3738  1.9070 -0.5729
 3842TIP3    H232942   5.000   5.126  14.938  1.0512  0.6394 -0.5852
 3843TIP3   OH232943   6.439   4.078   0.308 -0.3398  0.4479 -0.0703
 3843TIP3    H132944   6.467   4.050   0.220  0.9251  2.1049 -0.2524
 3843TIP3    H232945   6.405   3.999   0.349  3.6999 -1.6071 -0.2405
 3844TIP3   OH232946   1.827   3.150   5.165  0.0183  0.4939 -0.1482
 3844TIP3    H132947   1.896   3.174   5.227  0.5545  0.3029 -0.6650
 3844TIP3    H232948   1.789   3.070   5.201  2.7043 -1.7163 -1.8230
 3845TIP3   OH232949   6.140   0.336   6.072 -0.1180 -0.2952 -0.1139
 3845TIP3    H132950   6.120   0.430   6.078 -0.8317 -0.3755 -1.0065
 3845TIP3    H232951   6.204   0.321   6.142 -1.0302  0.5850  0.9666
 3846TIP3   OH232952   0.364   6.622  15.650 -0.4476  0.4140  1.0483
 3846TIP3    H132953   0.341   6.711  15.623  0.1513  0.7231  1.5344
 3846TIP3    H232954   0.296   6.598  15.713 -0.7463  0.4279  0.7372
 3847TIP3   OH232955   1.313   6.245   2.418 -0.0120  0.3661 -0.2319
 3847TIP3    H132956   1.345   6.187   2.349  0.3703  2.1302 -1.6003
 3847TIP3    H232957   1.257   6.189   2.472  2.0567 -1.8330 -0.1606
 3848TIP3   OH232958   2.452   5.814   6.066  0.3938  0.1303  0.0733
 3848TIP3    H132959   2.470   5.763   5.988 -1.0402  1.1513 -0.9913
 3848TIP3    H232960   2.537   5.825   6.109  0.7623 -3.2823  0.5217
 3849TIP3   OH232961   4.549   2.399   6.036 -0.2948 -0.2443 -0.1988
 3849TIP3    H132962   4.489   2.409   6.109  1.3495  0.5763  1.1050
 3849TIP3    H232963   4.568   2.489   6.008  0.3543 -0.4884 -0.5716
 3850TIP3   OH232964   3.643   3.146  10.984 -0.4290 -0.1613  0.5526
 3850TIP3    H132965   3.688   3.089  11.046 -2.0718  0.3989  2.3803
 3850TIP3    H232966   3.550   3.133  11.003 -0.8963  2.4510  0.4423
 3851TIP3   OH232967   6.268   3.182  12.103 -0.2523 -0.0606 -0.3121
 3851TIP3    H132968   6.336   3.250  12.105 -0.1002 -0.2272  0.3687
 3851TIP3    H232969   6.272   3.148  12.014 -0.1934  0.6842 -0.6039
 3852TIP3   OH232970   3.003   5.330   0.839 -0.7189 -0.3146 -0.7993
 3852TIP3    H132971   3.000   5.344   0.745 -0.8891 -0.3665 -0.8029
 3852TIP3    H232972   2.949   5.252   0.853  1.0008 -1.5781 -0.8980
 3853TIP3   OH232973   0.452   0.610  11.000  0.2080 -0.1229  0.0227
 3853TIP3    H132974   0.438   0.515  11.002 -0.3529 -0.0446 -0.2240
 3853TIP3    H232975   0.373   0.648  11.037  0.3253  0.2629 -0.1143
 3854TIP3   OH232976   3.840   1.070   3.858  1.2636 -0.3253  0.2332
 3854TIP3    H132977   3.907   1.134   3.882  0.9905 -0.3409  1.0527
 3854TIP3    H232978   3.760   1.121   3.851  1.4776 -0.1710 -1.5071
 3855TIP3   OH232979   4.081   5.872  11.317  0.0674  0.3792  0.0311
 3855TIP3    H132980   4.023   5.895  11.245  1.8343  0.5267 -1.4005
 3855TIP3    H232981   4.061   5.780  11.335 -1.6266  0.8202  0.6106
 3856TIP3   OH232982   6.276   5.157   4.505  0.3307  0.7103 -0.2198
 3856TIP3    H132983   6.251   5.209   4.581  0.5507 -1.2588  1.2977
 3856TIP3    H232984   6.370   5.139   4.517  0.6253  1.2270 -1.5270
 3857TIP3   OH232985   3.460   5.997  12.391 -0.0400  0.2893 -0.0010
 3857TIP3    H132986   3.382   6.004  12.337  0.1568  0.9268 -0.2184
 3857TIP3    H232987   3.524   5.953  12.335 -0.8052 -2.0229  0.8318
 3858TIP3   OH232988   2.662   3.600   3.344  0.1121  0.0362 -0.3701
 3858TIP3    H132989   2.647   3.691   3.319 -1.6898  0.2540  1.2277
 3858TIP3    H232990   2.756   3.594   3.360  0.4722  1.2340 -1.8321
 3859TIP3   OH232991   1.729   4.025  11.407 -0.1666 -1.2248 -0.0045
 3859TIP3    H132992   1.683   4.038  11.490  0.1509  1.7630 -0.1749
 3859TIP3    H232993   1.661   3.999  11.345 -1.5720  1.9716  0.0118
 3860TIP3   OH232994   6.121   2.987   4.607  0.4298 -0.8363 -1.0121
 3860TIP3    H132995   6.035   2.970   4.646  0.5645 -0.3921 -0.5030
 3860TIP3    H232996   6.162   2.901   4.601  0.3675 -0.9321 -0.2461
 3861TIP3   OH232997   2.537   2.438   6.958 -0.1728  0.4386  0.1766
 3861TIP3    H132998   2.625   2.400   6.949  0.1229  0.5598  2.1435
 3861TIP3    H232999   2.478   2.365   6.942  0.3654 -0.4408  2.0174
 3862TIP3   OH233000   0.209   3.487   4.918  0.1540 -0.2812 -0.4509
 3862TIP3    H133001   0.181   3.402   4.885 -0.0463 -0.5425  0.3923
 3862TIP3    H233002   0.127   3.533   4.937  0.2703 -0.5044  0.6271
 3863TIP3   OH233003   4.411   0.643   3.619  0.0535  0.0519  0.2154
 3863TIP3    H133004   4.488   0.607   3.663  0.1323  1.1579  1.0064
 3863TIP3    H233005   4.380   0.571   3.563  2.8014  0.1698 -1.6599
 3864TIP3   OH233006   1.371   2.530  14.335  0.3671 -0.3661 -0.0464
 3864TIP3    H133007   1.453   2.496  14.370  0.7975 -0.7178 -1.3350
 3864TIP3    H233008   1.397   2.598  14.273 -0.4266  1.0937  1.1618
 3865TIP3   OH233009   0.317   4.986   3.163  0.1111  0.0455 -0.9501
 3865TIP3    H133010   0.222   4.994   3.156  0.1272  0.4464 -0.7116
 3865TIP3    H233011   0.349   4.997   3.074 -0.1826 -1.8437 -1.3494
 3866TIP3   OH233012   3.976   2.461   1.775  0.4735  0.2153  0.1790
 3866TIP3    H133013   3.951   2.504   1.692 -0.4499 -0.5436  0.0518
 3866TIP3    H233014   4.065   2.431   1.760  1.0000  1.6921  0.1203
 3867TIP3   OH233015   2.171   1.071   5.065 -0.2446  0.2983  0.0796
 3867TIP3    H133016   2.084   1.105   5.082 -0.4144  0.0487 -0.2720
 3867TIP3    H233017   2.173   0.986   5.109 -0.4754 -0.0744 -0.6035
 3868TIP3   OH233018   3.355   3.029  16.920  0.6066  0.7761  0.2329
 3868TIP3    H133019   3.364   3.086  16.997  1.7035  1.2729 -0.2278
 3868TIP3    H233020   3.385   2.943  16.949  0.2171  0.7601  0.5822
 3869TIP3   OH233021   1.152   5.095   3.039  0.4582  0.4080  0.2017
 3869TIP3    H133022   1.136   5.189   3.031  1.6173  0.6629  0.6583
 3869TIP3    H233023   1.096   5.068   3.112  0.0221  0.7049 -0.0133
 3870TIP3   OH233024   6.338   1.235   4.087 -0.7402  0.2436  0.0208
 3870TIP3    H133025   6.432   1.242   4.068 -0.5225  0.1781  1.0231
 3870TIP3    H233026   6.306   1.325   4.080 -0.0398  0.7488  2.3571
 3871TIP3   OH233027   5.864   0.345  15.373  0.1665  0.3570  0.3386
 3871TIP3    H133028   5.918   0.320  15.298  1.9514  0.6219  1.4631
 3871TIP3    H233029   5.830   0.262  15.407  1.3673 -0.0382  0.6491
 3872TIP3   OH233030   4.823   5.923  16.018  0.0425 -0.9170 -0.2838
 3872TIP3    H133031   4.862   5.835  16.024 -0.0891 -1.0277 -0.9474
 3872TIP3    H233032   4.895   5.982  16.040  0.0013 -1.2001  0.6682
 3873TIP3   OH233033   3.819   3.121  14.003 -0.2457 -0.1197  0.3891
 3873TIP3    H133034   3.803   3.082  13.917  0.9118 -0.7198  0.4283
 3873TIP3    H233035   3.779   3.060  14.065 -2.7979  1.2578  0.2416
 3874TIP3   OH233036   2.208   3.990   1.616 -0.2919 -0.2088 -0.2064
 3874TIP3    H133037   2.280   4.035   1.660  0.0853 -0.6653 -0.3469
 3874TIP3    H233038   2.202   4.033   1.531  0.2266 -0.5713 -0.4333
 3875TIP3   OH233039   4.400   4.479   4.318 -0.1932 -0.2712 -0.0884
 3875TIP3    H133040   4.311   4.469   4.350  0.9006  0.3737  3.6757
 3875TIP3    H233041   4.421   4.571   4.334  0.7294 -0.0189 -2.3325
 3876TIP3   OH233042   2.985   4.535  15.359  0.0775  0.1900 -0.0203
 3876TIP3    H133043   3.041   4.542  15.437  1.8072  0.3325 -1.2343
 3876TIP3    H233044   3.004   4.448  15.323  0.4633  0.7257 -1.1417
 3877TIP3   OH233045   5.371   1.829  11.923  0.1322  0.4117  0.0460
 3877TIP3    H133046   5.327   1.789  11.848 -0.3126 -1.2812  1.1450
 3877TIP3    H233047   5.392   1.918  11.894 -0.1569 -0.1313 -2.0103
 3878TIP3   OH233048   0.857   0.953   1.220  0.2556 -0.2803 -0.7965
 3878TIP3    H133049   0.782   1.013   1.218 -0.0422 -0.5986  0.1588
 3878TIP3    H233050   0.901   0.973   1.302  1.5939  0.3259 -1.6396
 3879TIP3   OH233051   3.730   5.671   0.477 -0.1205 -0.1587  0.3046
 3879TIP3    H133052   3.752   5.589   0.434 -1.2271 -0.8901  1.0670
 3879TIP3    H233053   3.669   5.646   0.547 -1.8557  1.4983 -0.5245
 3880TIP3   OH233054   4.558   3.480  15.570  0.0344  0.2038  0.5415
 3880TIP3    H133055   4.563   3.404  15.627 -1.4036  0.7073  1.3867
 3880TIP3    H233056   4.599   3.451  15.488  1.4308 -0.7698  1.5396
 3881TIP3   OH233057   4.474   4.432   2.058  0.2434  0.1760 -0.0248
 3881TIP3    H133058   4.530   4.454   1.984 -0.8194  1.0647 -0.6019
 3881TIP3    H233059   4.515   4.475   2.133  1.0709 -0.3329 -0.1755
 3882TIP3   OH233060   3.639   1.493  15.730 -0.1570  0.4780 -0.6230
 3882TIP3    H133061   3.621   1.475  15.638  0.1501 -1.9738 -0.2628
 3882TIP3    H233062   3.636   1.407  15.772 -1.9667  1.7110  1.9783
 3883TIP3   OH233063   3.199   1.016   5.565  0.3197  0.4347  0.4607
 3883TIP3    H133064   3.267   1.027   5.632 -0.1123 -0.9577  1.1463
 3883TIP3    H233065   3.188   0.922   5.557 -0.5876  0.6188 -0.6256
 3884TIP3   OH233066   1.578   6.640   0.105  0.7662  0.7256  0.1798
 3884TIP3    H133067   1.563   6.666   0.196  1.7887  1.8966  0.0364
 3884TIP3    H233068   1.493   6.610   0.074  0.2289  1.0864  1.2778
 3885TIP3   OH233069   3.936   5.804   2.285  0.1931 -0.4095  0.4510
 3885TIP3    H133070   4.024   5.829   2.313  0.2879  1.4462 -1.2573
 3885TIP3    H233071   3.941   5.805   2.189 -1.1062 -2.6015  0.2945
 3886TIP3   OH233072   2.007   3.670  10.778  0.3896 -0.1811  0.3249
 3886TIP3    H133073   2.013   3.754  10.732 -0.3614 -0.0163  0.5123
 3886TIP3    H233074   2.046   3.687  10.863  3.0734 -0.8503 -0.6715
 3887TIP3   OH233075   5.548   1.135   6.899 -0.4178 -0.0842 -0.4715
 3887TIP3    H133076   5.497   1.194   6.843 -0.8227 -0.6138 -0.6676
 3887TIP3    H233077   5.567   1.060   6.844 -0.9809 -0.6987  0.1442
 3888TIP3   OH233078   0.893   1.513   3.867 -0.1312  0.3352 -0.5344
 3888TIP3    H133079   0.813   1.461   3.865 -0.8543  1.3909  0.0039
 3888TIP3    H233080   0.945   1.474   3.937  0.4283 -1.1670 -1.7296
 3889TIP3   OH233081   0.503   2.214   4.361  0.1032 -0.3538 -0.0390
 3889TIP3    H133082   0.556   2.250   4.432 -0.2791 -0.4122  0.2775
 3889TIP3    H233083   0.461   2.290   4.321 -0.4739 -0.4074  0.4441
 3890TIP3   OH233084   3.708   3.373   2.053  0.1177 -0.5355 -0.3963
 3890TIP3    H133085   3.754   3.386   1.970 -0.1039 -0.1425 -0.4584
 3890TIP3    H233086   3.748   3.294   2.090  0.9783 -0.1048 -0.3630
 3891TIP3   OH233087   6.629   0.211  15.572 -0.7547 -0.4266  0.6077
 3891TIP3    H133088   6.696   0.180  15.633  1.3627 -2.4680 -2.4673
 3891TIP3    H233089   6.614   0.302  15.599  1.4196 -0.6180  2.9504
 3892TIP3   OH233090   4.899   5.986   2.936 -0.1193  0.2282  0.0328
 3892TIP3    H133091   4.981   5.999   2.888  1.5091 -1.6076  2.1205
 3892TIP3    H233092   4.839   5.951   2.871  1.5159 -0.7198 -1.0652
 3893TIP3   OH233093   0.394   3.160   1.847 -0.6014 -0.0542  0.3394
 3893TIP3    H133094   0.440   3.144   1.765  0.1300  0.6017  0.6136
 3893TIP3    H233095   0.454   3.130   1.915 -1.3228 -0.8697  0.6437
 3894TIP3   OH233096   2.135   2.264  14.693 -0.2130  0.4060 -0.3745
 3894TIP3    H133097   2.209   2.209  14.668 -0.1586 -0.5831  1.7215
 3894TIP3    H233098   2.165   2.311  14.770 -0.8758  2.1076 -1.1093
 3895TIP3   OH233099   6.340   0.881  12.634  0.0636 -0.0318 -0.5882
 3895TIP3    H133100   6.331   0.828  12.554 -1.2007 -1.9789  0.7495
 3895TIP3    H233101   6.314   0.822  12.704  2.5375  1.1248  1.4742
 3896TIP3   OH233102   1.284   2.548  13.094 -0.2644  0.0149 -0.4580
 3896TIP3    H133103   1.322   2.468  13.058 -0.6051 -1.1648  1.6313
 3896TIP3    H233104   1.194   2.524  13.116  0.2831  0.1895  2.3399
 3897TIP3   OH233105   5.724   5.220   4.689 -0.0073 -0.0855  0.2243
 3897TIP3    H133106   5.812   5.244   4.719  0.5752 -0.1953 -1.3370
 3897TIP3    H233107   5.673   5.209   4.770  1.1126  1.0757  1.1178
 3898TIP3   OH233108   5.043   0.757  11.242 -0.1297  0.2518  0.3900
 3898TIP3    H133109   4.968   0.722  11.193  0.1606 -0.6565  0.5793
 3898TIP3    H233110   5.073   0.831  11.190 -1.1218  0.5837  0.2734
 3899TIP3   OH233111   0.688   1.020  15.320 -0.6017 -0.3819 -0.0581
 3899TIP3    H133112   0.634   0.996  15.244 -0.0598  0.2643 -0.6632
 3899TIP3    H233113   0.752   0.949  15.327  0.9491  0.7361 -1.7958
 3900TIP3   OH233114   6.404   0.248  11.190  0.2904 -0.5076 -0.0154
 3900TIP3    H133115   6.389   0.255  11.096  0.9021  0.5180 -0.0519
 3900TIP3    H233116   6.487   0.294  11.204 -1.2706  2.0529  1.4508
 3901TIP3   OH233117   3.260   6.428  13.046  0.3910 -0.4872  0.0532
 3901TIP3    H133118   3.232   6.438  12.955  0.4591  2.5014  0.2470
 3901TIP3    H233119   3.179   6.435  13.096  0.5666 -0.1150  0.2865
 3902TIP3   OH233120   1.281   6.730   5.680  0.4506 -0.1513 -0.4079
 3902TIP3    H133121   1.310   6.817   5.655  1.7900  0.1891  1.9704
 3902TIP3    H233122   1.342   6.670   5.637 -0.2644  0.0751 -1.7727
 3903TIP3   OH233123   6.728   3.360  14.001 -0.0585 -0.3052  0.3200
 3903TIP3    H133124   6.740   3.420  14.075 -0.4479  0.1620  0.0089
 3903TIP3    H233125   6.814   3.320  13.988  0.5061  1.0636 -0.2243
 3904TIP3   OH233126   1.975   2.637   2.139  0.2474  0.2610  0.1121
 3904TIP3    H133127   2.031   2.676   2.206 -1.3923  1.1068  1.0728
 3904TIP3    H233128   1.906   2.702   2.126  0.0427 -0.2849 -1.7820
 3905TIP3   OH233129   6.250   2.492   0.366 -0.1523  0.3234 -0.1527
 3905TIP3    H133130   6.216   2.518   0.281  1.0356  1.6782 -0.2503
 3905TIP3    H233131   6.293   2.409   0.350  1.3696  1.2685 -1.2487
 3906TIP3   OH233132   0.156   0.461  11.963 -0.0877  0.4834  0.1252
 3906TIP3    H133133   0.149   0.472  12.058 -0.9603  0.3725  0.0849
 3906TIP3    H233134   0.155   0.550  11.929 -3.2651  0.5197  0.0332
 3907TIP3   OH233135   4.482   5.494   5.880 -0.3858 -0.6287 -0.3304
 3907TIP3    H133136   4.557   5.554   5.875 -0.4047 -0.5711  0.0837
 3907TIP3    H233137   4.514   5.419   5.929 -1.1291  0.2279  1.5859
 3908TIP3   OH233138   1.049   4.104  11.638 -0.6300  0.3828  0.1919
 3908TIP3    H133139   1.104   4.058  11.575  0.4706  0.3938  1.0967
 3908TIP3    H233140   1.092   4.190  11.648 -1.6448  0.9481 -0.1549
 3909TIP3   OH233141   3.809   2.808  10.845  0.0422 -0.0776  0.3140
 3909TIP3    H133142   3.758   2.813  10.764 -0.6586 -0.9496  0.6797
 3909TIP3    H233143   3.862   2.729  10.835  0.0098 -0.1447  0.6722
 3910TIP3   OH233144   4.547   0.436  14.788 -0.0907 -0.0294 -0.3614
 3910TIP3    H133145   4.560   0.497  14.860 -0.2485  0.4968 -0.7699
 3910TIP3    H233146   4.581   0.353  14.820 -0.7694  0.0340  0.5700
 3911TIP3   OH233147   4.596   1.424  14.489  0.4159 -0.4616 -0.5953
 3911TIP3    H133148   4.575   1.517  14.488 -1.2006 -0.8081 -1.4293
 3911TIP3    H233149   4.683   1.419  14.529  0.4706  1.3826 -0.4398
 3912TIP3   OH233150   4.107   2.845   5.455 -0.1152  0.0308 -0.1554
 3912TIP3    H133151   4.108   2.868   5.362  1.0471 -1.1383 -0.4660
 3912TIP3    H233152   4.174   2.777   5.464  0.5166  0.8296  1.7366
 3913TIP3   OH233153   4.915   0.286  17.169 -0.5180 -0.6918 -0.5336
 3913TIP3    H133154   4.912   0.381  17.156  2.3568 -0.2446  1.1891
 3913TIP3    H233155   4.977   0.255  17.103  0.4984 -0.9527  0.5088
 3914TIP3   OH233156   2.250   2.502   5.053 -0.1283 -0.4311  0.6994
 3914TIP3    H133157   2.229   2.576   5.109  0.7373  1.6691 -1.5816
 3914TIP3    H233158   2.339   2.478   5.076 -0.5243 -1.0293  1.6674
 3915TIP3   OH233159   6.377   4.873  15.964 -0.0011 -0.3457 -0.3314
 3915TIP3    H133160   6.368   4.779  15.953 -0.1605 -0.1160 -2.7270
 3915TIP3    H233161   6.468   4.891  15.937  0.5921  0.0235  1.7515
 3916TIP3   OH233162   2.048   5.970   3.180 -0.2873 -0.3568  0.1901
 3916TIP3    H133163   2.044   5.938   3.090  0.1547  0.7526 -0.2447
 3916TIP3    H233164   1.973   6.030   3.188  0.8710  1.1878 -0.1314
 3917TIP3   OH233165   1.872   1.985   1.232 -0.3939 -0.3171 -0.0748
 3917TIP3    H133166   1.924   2.024   1.162  1.6453 -2.3203  0.2278
 3917TIP3    H233167   1.904   2.027   1.312 -0.5833 -0.2044 -0.0577
 3918TIP3   OH233168   5.503   6.402   1.576 -0.4064  0.2096  0.7258
 3918TIP3    H133169   5.412   6.406   1.605 -0.8575  0.6090 -0.6153
 3918TIP3    H233170   5.536   6.318   1.608 -0.9919  0.4118  1.9013
 3919TIP3   OH233171   0.127   6.148  10.846  0.4449  0.3800  0.4057
 3919TIP3    H133172   0.204   6.129  10.900  0.3015  0.1335  0.5272
 3919TIP3    H233173   0.128   6.080  10.779 -0.2685 -0.2871  1.0480
 3920TIP3   OH233174   4.080   0.770  16.500  0.1873 -0.3112  0.0898
 3920TIP3    H133175   4.087   0.790  16.594  1.1462 -0.4987  0.0700
 3920TIP3    H233176   4.095   0.854  16.457 -3.6571  0.5456  0.1184
 3921TIP3   OH233177   2.164   0.718  15.526  0.3915  0.2688  0.6443
 3921TIP3    H133178   2.074   0.727  15.559  0.9153  0.4996  2.0504
 3921TIP3    H233179   2.153   0.701  15.432 -1.2922 -3.5638  1.3404
 3922TIP3   OH233180   1.670   3.626  15.126  0.2570  0.4409 -0.6297
 3922TIP3    H133181   1.710   3.596  15.045 -1.4517 -2.3471 -0.5713
 3922TIP3    H233182   1.580   3.593  15.122 -0.1254  0.9512  2.0132
 3923TIP3   OH233183   1.099   0.138   2.420  0.2005  0.4020 -0.3190
 3923TIP3    H133184   1.141   0.059   2.454  1.7246  1.1215 -0.4379
 3923TIP3    H233185   1.006   0.122   2.430  0.4831 -1.3680 -0.2489
 3924TIP3   OH233186   5.601   6.545   4.753  0.3675 -0.7786  0.2937
 3924TIP3    H133187   5.618   6.639   4.751 -2.2418 -0.2074  1.4740
 3924TIP3    H233188   5.665   6.511   4.816  1.5015  0.1208 -0.3385
 3925TIP3   OH233189   3.043   3.107   3.614 -0.0739 -0.0885 -0.1028
 3925TIP3    H133190   3.103   3.039   3.583 -0.6981  0.1937 -2.0878
 3925TIP3    H233191   2.973   3.060   3.659  1.2396 -0.4703  1.6424
 3926TIP3   OH233192   4.871   3.166  11.265 -0.2665  0.1614  0.4497
 3926TIP3    H133193   4.912   3.133  11.345  0.1548 -1.6070 -0.4376
 3926TIP3    H233194   4.777   3.163  11.283 -0.2144  4.0449  2.4266
 3927TIP3   OH233195   5.494   3.472  14.536 -0.4216  0.5928 -0.7785
 3927TIP3    H133196   5.416   3.472  14.481 -0.5125  0.5400 -0.6486
 3927TIP3    H233197   5.548   3.543  14.500  1.1563 -1.6378 -3.2371
 3928TIP3   OH233198   4.239   0.333   3.627  0.2270 -0.3669 -0.5152
 3928TIP3    H133199   4.320   0.352   3.580  1.0959  1.2894  1.5064
 3928TIP3    H233200   4.254   0.247   3.666 -0.0196 -1.1942 -2.1585
 3929TIP3   OH233201   1.618   3.457  15.940 -0.3798 -0.3398 -0.2356
 3929TIP3    H133202   1.542   3.514  15.925 -1.6681 -1.5032  1.4772
 3929TIP3    H233203   1.613   3.392  15.869 -2.5812 -1.9266  1.2154
 3930TIP3   OH233204   1.177   5.033  17.184  0.1063 -0.1074 -0.0374
 3930TIP3    H133205   1.082   5.036  17.187  0.1291 -0.2203  1.2024
 3930TIP3    H233206   1.205   5.122  17.205  0.2784 -0.2267  0.2467
 3931TIP3   OH233207   6.350   4.158  17.366  0.3630 -0.0804  0.7710
 3931TIP3    H133208   6.427   4.119  17.407  2.5221  1.6712 -1.3313
 3931TIP3    H233209   6.364   4.146  17.272 -1.2920  1.4745  0.2732
 3932TIP3   OH233210   1.609   4.690  10.869 -0.3485 -0.5912  0.3925
 3932TIP3    H133211   1.664   4.761  10.833 -0.2157 -0.1026  1.5035
 3932TIP3    H233212   1.671   4.621  10.890 -0.2508 -0.3628  0.8779
 3933TIP3   OH233213   4.665   6.209  10.946  0.4677 -0.0749 -0.1716
 3933TIP3    H133214   4.665   6.182  11.038 -0.3574 -1.0397 -0.4328
 3933TIP3    H233215   4.674   6.304  10.949  0.3388 -0.0789  0.9134
 3934TIP3   OH233216   5.772   2.045  14.575  0.2118  0.2274 -1.0440
 3934TIP3    H133217   5.714   1.968  14.574 -0.5878  0.7918 -2.6041
 3934TIP3    H233218   5.726   2.109  14.629  0.7258 -0.2538 -0.0072
 3935TIP3   OH233219   2.686   3.441  16.872 -0.1729  0.0529 -0.3385
 3935TIP3    H133220   2.646   3.386  16.805  0.8209 -0.9032 -0.1726
 3935TIP3    H233221   2.674   3.393  16.953 -1.6933  1.3776  0.2722
 3936TIP3   OH233222   6.112   1.478   6.146 -0.1505  0.3646  0.1196
 3936TIP3    H133223   6.165   1.509   6.072 -0.5396  1.7887  0.4160
 3936TIP3    H233224   6.144   1.527   6.221 -1.2330  0.5462  0.4827
 3937TIP3   OH233225   0.051   0.119   0.046 -0.5136 -0.1435  0.2183
 3937TIP3    H133226   0.125   0.173   0.072 -2.5705  2.7627  0.5408
 3937TIP3    H233227   0.064   0.103  -0.047  2.0841 -2.5518  0.8559
 3938TIP3   OH233228   3.118   1.408   5.221  0.0933  0.4490  0.2999
 3938TIP3    H133229   3.112   1.345   5.293 -0.1589  1.3536  1.1061
 3938TIP3    H233230   3.027   1.424   5.196  0.0489  1.5781  1.1071
 3939TIP3   OH233231   3.146   4.965   3.575 -0.4183  0.0943  0.4392
 3939TIP3    H133232   3.077   4.953   3.639 -0.7696  0.4620  0.1288
 3939TIP3    H233233   3.142   4.887   3.520 -0.1609 -0.1882  0.8153
 3940TIP3   OH233234   0.172   2.771   5.161 -0.5494 -0.4946  0.3619
 3940TIP3    H133235   0.082   2.802   5.173 -0.6653 -1.1810  1.3437
 3940TIP3    H233236   0.224   2.851   5.156 -0.9615 -0.0945  1.8829
 3941TIP3   OH233237   1.935   1.952   0.007 -0.2108 -0.0723 -0.0075
 3941TIP3    H133238   1.892   1.896  -0.058 -1.5853  1.3599 -0.3985
 3941TIP3    H233239   2.005   1.995  -0.041 -0.5909  0.2355 -0.2899
 3942TIP3   OH233240   5.212   3.384  16.849  0.3077 -0.0893  0.1785
 3942TIP3    H133241   5.263   3.464  16.858 -0.6772  0.6583 -0.6751
 3942TIP3    H233242   5.274   3.320  16.813  0.3797  1.1510 -2.0604
 3943TIP3   OH233243   0.767   3.700   2.951 -0.1339  0.0108 -0.2741
 3943TIP3    H133244   0.774   3.698   3.047 -0.7449  0.3228 -0.2212
 3943TIP3    H233245   0.856   3.716   2.921  0.3047 -1.3734  0.1895
 3944TIP3   OH233246   3.230   1.064   1.975 -0.0771 -0.1096 -0.2570
 3944TIP3    H133247   3.235   1.109   2.060  0.8245  1.0555 -0.8848
 3944TIP3    H233248   3.306   1.006   1.975 -1.4378 -1.9695  0.6968
 3945TIP3   OH233249   6.204   5.883   4.086  0.3456  0.1060 -0.0670
 3945TIP3    H133250   6.147   5.933   4.027  1.4164  1.1616 -0.2528
 3945TIP3    H233251   6.170   5.902   4.174 -0.2027 -0.0797 -0.2377
 3946TIP3   OH233252   0.643   1.734   1.568 -0.5579 -0.2529 -0.0852
 3946TIP3    H133253   0.582   1.719   1.640  0.0395 -2.8671 -0.0382
 3946TIP3    H233254   0.689   1.651   1.558  1.3918  0.9289 -1.6251
 3947TIP3   OH233255   3.645   4.007   5.158 -0.1465  0.2802 -0.1338
 3947TIP3    H133256   3.665   3.938   5.220  1.3519  1.0237  0.2659
 3947TIP3    H233257   3.730   4.033   5.121 -0.5402  2.3750  0.2674
 3948TIP3   OH233258   5.425   6.585  15.578 -0.0012 -0.3392 -0.7843
 3948TIP3    H133259   5.436   6.676  15.604 -1.4148 -0.1908 -0.6263
 3948TIP3    H233260   5.514   6.550  15.575  0.4209  0.2911  1.8775
 3949TIP3   OH233261   0.578   3.100   2.064  0.0338 -0.0527  0.1106
 3949TIP3    H133262   0.657   3.062   2.025  1.5526  2.5230  0.4483
 3949TIP3    H233263   0.594   3.097   2.159 -0.2968  0.4141  0.1865
 3950TIP3   OH233264   2.844   1.785  15.343  0.0181  0.1329  0.2815
 3950TIP3    H133265   2.891   1.788  15.259 -0.0979 -0.9547  0.1671
 3950TIP3    H233266   2.819   1.876  15.359  0.6917  0.4738 -0.4916
 3951TIP3   OH233267   0.073   3.764  14.215 -0.1314 -0.3624  0.1942
 3951TIP3    H133268   0.024   3.837  14.252  0.3824 -0.7260  1.6550
 3951TIP3    H233269   0.163   3.777  14.247  0.3831 -0.6336 -1.0502
 3952TIP3   OH233270   2.244   4.223   5.564  0.3727 -0.7025 -0.2941
 3952TIP3    H133271   2.187   4.246   5.491 -0.3465 -2.2307 -0.2627
 3952TIP3    H233272   2.311   4.291   5.566 -0.0218 -0.2466 -1.9160
 3953TIP3   OH233273   3.693   1.613   2.721  0.6501  0.1212 -0.7476
 3953TIP3    H133274   3.599   1.597   2.732  0.8660 -1.3343 -0.8837
 3953TIP3    H233275   3.732   1.586   2.803  1.0049  0.2781 -0.8642
 3954TIP3   OH233276   4.618   2.189   4.955 -0.3056 -0.3012  0.1065
 3954TIP3    H133277   4.655   2.248   5.021  3.1594 -1.2126 -0.8407
 3954TIP3    H233278   4.570   2.248   4.896  2.3292  1.5928 -0.3544
 3955TIP3   OH233279   1.746   6.558  12.825  0.5851  0.8095 -0.3524
 3955TIP3    H133280   1.710   6.629  12.771 -1.3636 -0.5442 -0.9680
 3955TIP3    H233281   1.684   6.486  12.814  0.6072  0.1091  2.9362
 3956TIP3   OH233282   3.627   1.632   1.864  0.0241 -0.4135  0.5574
 3956TIP3    H133283   3.580   1.652   1.945 -2.2578  2.3735 -1.2852
 3956TIP3    H233284   3.579   1.559   1.826  0.8547 -1.4571  1.4298
 3957TIP3   OH233285   0.859   1.257   4.409 -0.5653 -0.1746  0.0666
 3957TIP3    H133286   0.850   1.352   4.420 -0.2824 -0.3283  2.0350
 3957TIP3    H233287   0.873   1.245   4.315 -0.5207  1.7296 -0.2180
 3958TIP3   OH233288   3.728   0.820  16.084  0.3363  0.5761 -0.1210
 3958TIP3    H133289   3.721   0.756  16.155  4.5151  0.8141  0.7841
 3958TIP3    H233290   3.770   0.772  16.012  1.0211  1.6034 -0.4352
 3959TIP3   OH233291   5.208   6.742  13.062 -0.5432  0.3759  0.3994
 3959TIP3    H133292   5.295   6.715  13.094 -1.3530 -0.3141  2.1236
 3959TIP3    H233293   5.218   6.834  13.040  0.9077  0.0446 -0.4672
 3960TIP3   OH233294   3.758   4.590  15.811 -0.0083  0.5896 -0.0820
 3960TIP3    H133295   3.712   4.630  15.885 -0.6528  1.9944 -1.1958
 3960TIP3    H233296   3.710   4.620  15.734 -0.3375 -2.0976 -1.0521
 3961TIP3   OH233297   1.822   1.618  12.966 -0.5847 -0.1934 -0.2670
 3961TIP3    H133298   1.818   1.569  12.884 -0.9453 -0.0711 -0.3259
 3961TIP3    H233299   1.899   1.585  13.011  0.3759  0.6442 -1.2411
 3962TIP3   OH233300   0.464   6.635   2.595  0.6333 -0.5640  0.0974
 3962TIP3    H133301   0.395   6.592   2.647 -0.8277  0.9542 -0.5029
 3962TIP3    H233302   0.541   6.632   2.651 -0.3697 -0.7727  1.5233
 3963TIP3   OH233303   5.213   4.860  16.753  1.0360  0.3912 -0.2221
 3963TIP3    H133304   5.274   4.903  16.812 -0.3538 -1.2997  2.6642
 3963TIP3    H233305   5.259   4.782  16.723  1.1223  0.3006  0.1361
 3964TIP3   OH233306   5.352   0.297  15.612 -0.5845  0.5532  0.1635
 3964TIP3    H133307   5.423   0.232  15.609 -1.0885  0.0121 -0.1506
 3964TIP3    H233308   5.295   0.266  15.682 -1.8452 -0.4307 -1.2343
 3965TIP3   OH233309   2.032   4.529   4.611  0.0856 -0.1783  0.3639
 3965TIP3    H133310   2.067   4.514   4.699 -1.0007  0.9740  1.0306
 3965TIP3    H233311   2.007   4.622   4.610  0.5117 -0.0423 -1.3311
 3966TIP3   OH233312   3.261   5.358  12.867 -0.2403 -0.3862  0.3753
 3966TIP3    H133313   3.320   5.305  12.921  0.5484 -0.7160 -0.7497
 3966TIP3    H233314   3.202   5.295  12.826 -0.0957 -0.2752 -0.0133
 3967TIP3   OH233315   6.106   0.590   6.135 -0.0523 -0.2103 -0.2707
 3967TIP3    H133316   6.097   0.684   6.118  2.8191 -0.2885 -3.4076
 3967TIP3    H233317   6.183   0.583   6.192 -0.6176 -0.6659  0.4564
 3968TIP3   OH233318   4.371   6.503   2.286 -0.1176  0.1721 -0.0630
 3968TIP3    H133319   4.417   6.556   2.352  0.6445  0.1577 -0.5741
 3968TIP3    H233320   4.435   6.438   2.259 -0.7219 -0.3795 -0.1835
 3969TIP3   OH233321   2.299   5.792   0.518  0.1464 -0.2344 -0.0853
 3969TIP3    H133322   2.332   5.881   0.506  1.6404 -0.5972  1.0426
 3969TIP3    H233323   2.230   5.783   0.452  0.6016  1.4341 -0.8458
 3970TIP3   OH233324   1.518   0.443   3.530 -0.1533 -0.1936 -0.6176
 3970TIP3    H133325   1.587   0.399   3.580  2.9849  1.1559 -3.3553
 3970TIP3    H233326   1.538   0.536   3.537 -1.9137  0.2842 -1.2936
 3971TIP3   OH233327   1.320   2.676  16.354 -0.8878 -0.1377  0.6675
 3971TIP3    H133328   1.262   2.746  16.384 -0.3285  1.1326 -1.0907
 3971TIP3    H233329   1.335   2.695  16.261  2.2645 -0.4517  1.0138
 3972TIP3   OH233330   1.075   1.217  12.364  0.5160 -0.3796  0.1913
 3972TIP3    H133331   1.113   1.300  12.395  0.3034  0.3815 -1.4540
 3972TIP3    H233332   0.992   1.210  12.411 -0.0473  1.0052 -0.5184
 3973TIP3   OH233333   4.964   0.608  14.836 -0.3190  0.1400 -0.4971
 3973TIP3    H133334   5.056   0.629  14.850 -0.4484  1.6866 -1.6814
 3973TIP3    H233335   4.941   0.549  14.907  0.6750  2.4959  1.9376
 3974TIP3   OH233336   6.175   4.568   3.633 -0.0557 -0.0964  0.0346
 3974TIP3    H133337   6.220   4.641   3.589 -0.5573  0.4536  0.4280
 3974TIP3    H233338   6.174   4.498   3.567  0.7909  0.1069 -0.2069
 3975TIP3   OH233339   5.831   1.162   4.250  0.2326  0.1402 -0.6234
 3975TIP3    H133340   5.779   1.133   4.176  0.1722 -0.2968 -0.4105
 3975TIP3    H233341   5.767   1.202   4.310 -0.1817 -2.0656  0.5018
 3976TIP3   OH233342   3.744   3.687   2.429  0.0154 -0.6357 -0.3885
 3976TIP3    H133343   3.791   3.770   2.436  0.7203 -0.9892 -0.7657
 3976TIP3    H233344   3.742   3.668   2.335 -0.5114 -0.8434 -0.3401
 3977TIP3   OH233345   2.922   1.298   3.512 -0.2736  0.1779 -0.0489
 3977TIP3    H133346   2.894   1.370   3.569 -2.1322 -0.2761 -0.3061
 3977TIP3    H233347   2.945   1.341   3.429  2.5362  0.8502  0.9719
 3978TIP3   OH233348   1.557   4.652  15.410  0.3379 -0.6319  0.5296
 3978TIP3    H133349   1.613   4.682  15.338  0.3108  0.5853  0.9968
 3978TIP3    H233350   1.616   4.648  15.485 -0.0284 -0.1556  0.8408
 3979TIP3   OH233351   1.442   3.337  14.845  0.1071  0.3226 -0.1579
 3979TIP3    H133352   1.449   3.316  14.938  2.6277  0.3981 -0.2625
 3979TIP3    H233353   1.350   3.324  14.824 -0.0685 -2.2283  1.7582
 3980TIP3   OH233354   1.079   3.777  13.930  0.6396  0.0953 -0.1659
 3980TIP3    H133355   1.121   3.813  13.852 -0.1564 -1.6072 -1.4570
 3980TIP3    H233356   1.073   3.851  13.990  1.2115  1.4939 -1.7358
 3981TIP3   OH233357   0.639   4.076  17.250 -0.0316 -0.8761 -0.5771
 3981TIP3    H133358   0.711   4.123  17.293 -0.3900  1.7138 -2.5785
 3981TIP3    H233359   0.683   4.014  17.192  0.6156  0.3349 -1.4124
 3982TIP3   OH233360   3.627   2.668  14.964  0.5349  0.3345 -0.2788
 3982TIP3    H133361   3.583   2.706  15.040  1.2500  0.0995  0.2580
 3982TIP3    H233362   3.646   2.743  14.908 -0.8225  0.4154 -0.6850
 3983TIP3   OH233363   6.676   5.312  14.488 -0.1659  0.4330  0.2160
 3983TIP3    H133364   6.743   5.381  14.490  0.1132  0.1718  2.3181
 3983TIP3    H233365   6.725   5.232  14.505 -0.8122  0.0103  0.0940
 3984TIP3   OH233366   5.879   0.752   5.077  1.1282  0.0227 -0.0935
 3984TIP3    H133367   5.839   0.825   5.126  0.1671  0.0687 -0.9188
 3984TIP3    H233368   5.900   0.688   5.145  0.4777  0.3807  0.4709
 3985TIP3   OH233369   0.496   5.062  15.779 -0.5004  0.0148  0.0203
 3985TIP3    H133370   0.479   5.034  15.869  1.1450  0.6191  0.5700
 3985TIP3    H233371   0.495   5.157  15.783 -0.0990  0.0482 -0.5343
 3986TIP3   OH233372   5.906   3.143  12.973  0.0345 -0.3320  0.3692
 3986TIP3    H133373   5.874   3.233  12.984  0.1602 -0.0848 -1.1428
 3986TIP3    H233374   5.858   3.092  13.039 -1.8450  0.4069 -0.3691
 3987TIP3   OH233375   0.662   6.308  11.059  0.2365 -0.4310  0.2628
 3987TIP3    H133376   0.745   6.283  11.018  0.7141  2.2182 -0.5840
 3987TIP3    H233377   0.686   6.341  11.145 -0.0528 -0.5939  0.4068
 3988TIP3   OH233378   2.554   6.243  12.114  0.2715  0.2529  0.2960
 3988TIP3    H133379   2.498   6.219  12.040  0.6071 -2.0589  0.7254
 3988TIP3    H233380   2.581   6.333  12.095  1.0941 -0.5358 -2.8743
 3989TIP3   OH233381   6.742   3.792  13.300 -0.1806  0.4377  0.3932
 3989TIP3    H133382   6.664   3.847  13.298 -1.0402 -0.7548  0.2279
 3989TIP3    H233383   6.712   3.708  13.334  1.4595  0.5703  2.3349
 3990TIP3   OH233384   3.731   0.499  14.102 -0.3407 -0.2522 -0.2597
 3990TIP3    H133385   3.793   0.509  14.030  0.7786 -1.2358  0.5227
 3990TIP3    H233386   3.684   0.418  14.083  0.6150 -1.0323  0.5363
 3991TIP3   OH233387   6.405   5.025   5.400  0.0533 -0.6915  0.1486
 3991TIP3    H133388   6.366   5.036   5.313  1.4034  0.3843 -0.3445
 3991TIP3    H233389   6.489   4.982   5.384  0.8129  0.5035  0.7871
 3992TIP3   OH233390   3.232   4.593  16.226 -0.3746 -0.4462  0.2722
 3992TIP3    H133391   3.247   4.537  16.150  0.4262  0.2913 -0.1312
 3992TIP3    H233392   3.217   4.531  16.298  0.4043 -1.1855 -0.1800
 3993TIP3   OH233393   6.140   4.715  14.047  0.0604 -0.2292  0.4382
 3993TIP3    H133394   6.097   4.677  13.970  0.6363  0.4938 -0.2638
 3993TIP3    H233395   6.234   4.707  14.029  0.2041 -0.2733  1.1805
 3994TIP3   OH233396   0.613   4.928  17.354 -0.0394 -0.3475 -0.0843
 3994TIP3    H133397   0.623   4.999  17.290 -1.6957 -0.7858 -0.8857
 3994TIP3    H233398   0.674   4.861  17.324  0.3380  0.0762 -0.2858
 3995TIP3   OH233399   5.035   5.759   1.367  0.1836  0.0582  0.6739
 3995TIP3    H133400   5.029   5.855   1.362 -0.2401  0.0164  0.3563
 3995TIP3    H233401   5.107   5.743   1.429  1.4867  0.5920 -0.6239
 3996TIP3   OH233402   0.476   6.226  13.340 -0.0764  0.3461 -0.6537
 3996TIP3    H133403   0.475   6.213  13.434  0.6060  3.0649 -0.1927
 3996TIP3    H233404   0.433   6.148  13.304  0.2408 -1.0555  1.8218
 3997TIP3   OH233405   0.221   4.053  17.134 -0.3104  0.1904  0.0976
 3997TIP3    H133406   0.177   4.130  17.170  1.8699  0.9852  1.2202
 3997TIP3    H233407   0.286   4.030  17.200  0.0545 -1.7629 -0.8845
 3998TIP3   OH233408   4.501   3.359   2.252  0.2911  0.0161 -0.4701
 3998TIP3    H133409   4.466   3.446   2.273  2.3521  0.4844  1.3262
 3998TIP3    H233410   4.573   3.376   2.191  1.1976 -0.3021  0.4725
 3999TIP3   OH233411   5.964   4.758   2.723 -0.3008 -0.2491 -0.0688
 3999TIP3    H133412   5.961   4.720   2.811 -2.7291 -0.1570 -0.0403
 3999TIP3    H233413   5.944   4.684   2.665  2.2914 -0.5443 -0.7107
 4000TIP3   OH233414   3.958   0.550   0.763  0.5121  0.3267  0.4520
 4000TIP3    H133415   3.998   0.499   0.692 -1.7070  0.8512 -1.2962
 4000TIP3    H233416   3.887   0.494   0.795  1.6647 -0.0373  2.5803
 4001TIP3   OH233417   5.438   0.529   5.393  0.7650  0.2408 -0.3993
 4001TIP3    H133418   5.416   0.561   5.306  0.1046 -2.0599 -1.1349
 4001TIP3    H233419   5.441   0.608   5.448 -1.3143  1.4845 -1.9648
 4002TIP3   OH233420   4.981   0.108  13.861 -0.0297  0.3018  0.0496
 4002TIP3    H133421   5.032   0.078  13.786 -0.1517 -0.9053  0.4358
 4002TIP3    H233422   4.890   0.089  13.837  0.0260 -1.2996  1.0220
 4003TIP3   OH233423   5.910   1.095   5.092 -0.0027  0.1099 -0.2020
 4003TIP3    H133424   5.869   1.058   5.170 -0.9332  1.4715 -0.0118
 4003TIP3    H233425   5.993   1.048   5.085 -0.3516 -0.7645  1.0061
 4004TIP3   OH233426   3.422   4.111   2.946 -0.2292  0.3602  0.6086
 4004TIP3    H133427   3.382   4.068   3.022 -0.1220  0.8067  0.9218
 4004TIP3    H233428   3.411   4.049   2.875 -0.0983 -0.1735  1.0493
 4005TIP3   OH233429   0.022   1.875  16.517 -0.8259  0.4091 -0.2883
 4005TIP3    H133430   0.105   1.916  16.542 -0.2455 -1.2862  0.8049
 4005TIP3    H233431   0.014   1.891  16.423  0.6209  0.8473 -0.3601
 4006TIP3   OH233432   3.435   0.391   3.787  0.3046 -0.1395  0.2165
 4006TIP3    H133433   3.498   0.321   3.770  1.5117  0.9101  0.2553
 4006TIP3    H233434   3.455   0.420   3.876  0.6031  1.0385 -0.2190
 4007TIP3   OH233435   1.243   6.135   5.954 -0.6206 -0.5535 -0.1273
 4007TIP3    H133436   1.266   6.212   6.005  0.9005 -0.8611 -0.3033
 4007TIP3    H233437   1.230   6.066   6.019 -1.4760 -0.2825 -0.0017
 4008TIP3   OH233438   4.097   0.693  14.204  0.4532 -0.4020 -0.6454
 4008TIP3    H133439   4.031   0.627  14.227 -0.1871 -0.2912 -2.0895
 4008TIP3    H233440   4.172   0.671  14.259  0.0370 -1.9522 -0.6517
 4009TIP3   OH233441   3.538   1.397  11.683  0.3207 -0.2644 -0.0703
 4009TIP3    H133442   3.603   1.439  11.627  2.2498 -2.9701 -0.0142
 4009TIP3    H233443   3.554   1.434  11.770 -1.0647  2.1142 -0.7207
 4010TIP3   OH233444   1.251   5.443   2.169  0.2029 -0.5981  0.6511
 4010TIP3    H133445   1.257   5.496   2.249  2.1605  0.6202 -0.2373
 4010TIP3    H233446   1.178   5.481   2.121  1.7775  1.6160 -0.1247
 4011TIP3   OH233447   3.045   3.978   5.151 -0.1936  0.0393  0.0497
 4011TIP3    H133448   3.010   3.894   5.121  0.7689  0.1152 -1.3751
 4011TIP3    H233449   3.090   3.957   5.233 -0.0932 -0.8260 -0.2144
 4012TIP3   OH233450   4.008   0.084   0.751  0.1977 -0.1521  0.3485
 4012TIP3    H133451   3.926   0.125   0.723  0.4610 -0.0278 -0.2508
 4012TIP3    H233452   4.002  -0.006   0.718  0.0999 -0.2851  0.7182
 4013TIP3   OH233453   1.133   0.147  10.578 -0.4317 -0.7094 -0.8149
 4013TIP3    H133454   1.135   0.056  10.607  0.9828 -0.0850  1.2815
 4013TIP3    H233455   1.109   0.197  10.657  2.0508  0.9756 -1.0242
 4014TIP3   OH233456   5.581   3.721  14.368  0.1066 -0.4856  0.0880
 4014TIP3    H133457   5.516   3.789  14.347  0.5581 -0.1479 -0.2566
 4014TIP3    H233458   5.663   3.769  14.376  1.0425 -1.2716 -3.1131
 4015TIP3   OH233459   5.599   3.110   3.426 -0.3514 -0.2368 -0.4823
 4015TIP3    H133460   5.561   3.102   3.338 -0.2621 -1.5320 -0.4158
 4015TIP3    H233461   5.535   3.069   3.484  1.2891 -2.9473 -0.4309
 4016TIP3   OH233462   5.232   1.437   2.074 -0.1895 -0.1768 -0.5289
 4016TIP3    H133463   5.312   1.430   2.126  0.7284 -0.1602 -1.8757
 4016TIP3    H233464   5.236   1.363   2.014 -0.7625  0.2894 -1.1605
 4017TIP3   OH233465   5.521   2.192  16.563 -0.1424  0.4375 -0.0083
 4017TIP3    H133466   5.609   2.224  16.546 -0.4682  0.3213 -2.1604
 4017TIP3    H233467   5.466   2.238  16.500 -1.7272  0.8818  1.6084
 4018TIP3   OH233468   5.370   1.433  17.034 -0.7516  0.2847 -0.1712
 4018TIP3    H133469   5.325   1.517  17.042  0.2615  1.0723 -1.9604
 4018TIP3    H233470   5.378   1.420  16.939  0.1875 -1.2549  0.0893
 4019TIP3   OH233471   2.235   0.985   1.970 -0.1817  0.0199 -0.2186
 4019TIP3    H133472   2.141   1.002   1.959 -0.8276 -2.3085  1.0773
 4019TIP3    H233473   2.240   0.925   2.044  2.3133 -0.3026 -0.5672
 4020TIP3   OH233474   5.352   5.789  14.790  0.3881  0.3300 -0.2655
 4020TIP3    H133475   5.300   5.757  14.717  1.1105 -0.0987 -0.6104
 4020TIP3    H233476   5.442   5.765  14.767  0.7410  1.0643  0.3035
 4021TIP3   OH233477   4.398   5.998   5.369 -0.3282 -0.2274 -0.0542
 4021TIP3    H133478   4.481   6.034   5.403  0.1769 -1.9871  0.6939
 4021TIP3    H233479   4.330   6.043   5.420  0.2714 -0.3032  0.8399
 4022TIP3   OH233480   1.066   5.269   2.659 -0.7766  0.7164 -0.2102
 4022TIP3    H133481   1.106   5.352   2.632  1.7818 -0.3293  0.0239
 4022TIP3    H233482   1.045   5.281   2.751 -1.4734  1.4509 -0.4545
 4023TIP3   OH233483   0.097   4.281  12.745  0.3067 -0.1525  0.0741
 4023TIP3    H133484   0.030   4.226  12.705  1.0908 -0.6504 -0.5880
 4023TIP3    H233485   0.154   4.307  12.672  1.5451 -0.7633  0.7787
 4024TIP3   OH233486   0.087   0.772   5.917 -0.3957  0.1941  0.1706
 4024TIP3    H133487   0.179   0.747   5.918 -0.4348 -0.0017 -0.3931
 4024TIP3    H233488   0.068   0.787   5.824 -1.2942 -1.1419  0.1142
 4025TIP3   OH233489   3.420   5.215   2.673 -0.5395  0.3833  0.0585
 4025TIP3    H133490   3.508   5.208   2.710  0.0484  1.6776 -1.0325
 4025TIP3    H233491   3.366   5.163   2.732  0.4709  1.7634  2.3599
 4026TIP3   OH233492   6.345   0.894  14.765  0.8425 -0.0734  0.7973
 4026TIP3    H133493   6.295   0.813  14.760  3.0653 -1.4964 -0.1416
 4026TIP3    H233494   6.293   0.957  14.716 -1.7629 -0.3732  2.9749
 4027TIP3   OH233495   3.519   0.036   6.075 -0.5179  0.1139  0.0785
 4027TIP3    H133496   3.456  -0.017   6.124 -1.9018  2.7183  1.2724
 4027TIP3    H233497   3.603  -0.008   6.090 -1.5973 -1.8400  0.8025
 4028TIP3   OH233498   3.628   5.333  14.703  0.7325  0.3328 -1.4197
 4028TIP3    H133499   3.589   5.391  14.637  1.5321 -0.2882 -2.4680
 4028TIP3    H233500   3.721   5.332  14.681  1.4560  1.9011  1.1059
 4029TIP3   OH233501   0.085   5.695   1.094  0.3677 -0.4391 -0.0659
 4029TIP3    H133502   0.078   5.773   1.038 -2.3518 -1.1890 -0.9312
 4029TIP3    H233503   0.177   5.692   1.120  0.2777  4.0787  1.5578
 4030TIP3   OH233504   0.657   3.541  16.112 -0.5150  0.0889 -0.0234
 4030TIP3    H133505   0.735   3.561  16.164  0.2531  0.1848 -1.1976
 4030TIP3    H233506   0.604   3.621  16.117 -0.2654  0.2384  0.2734
 4031TIP3   OH233507   0.550   1.661   2.169 -0.3683 -0.5906  1.1338
 4031TIP3    H133508   0.527   1.728   2.105  3.0490  0.0339  0.3627
 4031TIP3    H233509   0.540   1.578   2.122  0.2008 -0.2649  0.4191
 4032TIP3   OH233510   4.066   3.942   7.111 -0.3504  0.4406 -0.2732
 4032TIP3    H133511   4.042   3.912   7.023 -1.3815 -1.1174  0.4903
 4032TIP3    H233512   4.159   3.919   7.119 -0.5957 -0.6696 -0.4765
 4033TIP3   OH233513   3.576   5.657  15.959 -0.1926 -0.0927  0.1473
 4033TIP3    H133514   3.625   5.670  16.039  1.8759 -1.4782 -0.8144
 4033TIP3    H233515   3.637   5.679  15.889 -1.6571  0.2439 -1.0905
 4034TIP3   OH233516   1.823   4.554  10.538  0.2571 -0.3016  0.1506
 4034TIP3    H133517   1.766   4.499  10.592  0.0262 -0.3064 -0.0970
 4034TIP3    H233518   1.906   4.555  10.585 -0.4446  1.1455  1.4537
 4035TIP3   OH233519   6.485   0.279   4.965 -0.8159 -0.1426 -0.3169
 4035TIP3    H133520   6.571   0.302   5.002 -1.0909  0.5630 -0.1021
 4035TIP3    H233521   6.425   0.345   5.001 -1.1265  0.4876 -1.9160
 4036TIP3   OH233522   1.196   1.837  14.909  0.5344  0.3074 -0.1832
 4036TIP3    H133523   1.160   1.906  14.852 -1.0126  0.8873  1.4246
 4036TIP3    H233524   1.172   1.755  14.865 -1.0821  0.7325 -0.1603
 4037TIP3   OH233525   5.915   3.409  16.943 -0.2211 -0.1670  0.2293
 4037TIP3    H133526   5.974   3.484  16.931  0.5716 -0.5134  1.8015
 4037TIP3    H233527   5.917   3.364  16.858  1.1088  0.3077 -0.0219
 4038TIP3   OH233528   4.686   6.651   0.580  0.3186 -0.0144  0.2061
 4038TIP3    H133529   4.664   6.729   0.632  0.0181 -0.0577  0.1500
 4038TIP3    H233530   4.775   6.629   0.605  0.8041  0.9834 -0.5716
 4039TIP3   OH233531   2.135   1.642   5.074 -0.3788  0.8732  0.3303
 4039TIP3    H133532   2.067   1.701   5.041  0.9688  1.0125 -2.4374
 4039TIP3    H233533   2.217   1.687   5.056  0.5935 -0.7691  0.4384
 4040TIP3   OH233534   0.187   3.223   0.975 -0.1144  0.5589  0.2810
 4040TIP3    H133535   0.251   3.158   0.947 -0.6204 -0.3933  1.2530
 4040TIP3    H233536   0.225   3.264   1.052  0.2699  1.5552 -0.4143
 4041TIP3   OH233537   2.572   3.353   3.406  0.1957  0.5076 -0.2948
 4041TIP3    H133538   2.610   3.434   3.372 -0.4494  1.4019  1.0273
 4041TIP3    H233539   2.540   3.377   3.493 -0.9956 -0.8932 -0.3167
 4042TIP3   OH233540   4.666   0.850  12.008 -0.3973  0.5691  0.0001
 4042TIP3    H133541   4.648   0.913  12.077 -0.1147  0.8913 -0.2197
 4042TIP3    H233542   4.718   0.898  11.944 -0.5203  0.2264 -0.3610
 4043TIP3   OH233543   3.098   6.581   3.298  0.3148  0.0161  0.5008
 4043TIP3    H133544   3.063   6.667   3.322 -1.8336 -0.0765 -1.8426
 4043TIP3    H233545   3.186   6.599   3.265  0.2499  1.1558  0.8982
 4044TIP3   OH233546   4.843   4.217   5.768 -0.2768  0.3631  0.8743
 4044TIP3    H133547   4.904   4.280   5.805  0.8909 -0.9143  1.2252
 4044TIP3    H233548   4.830   4.152   5.838  0.4787 -1.0727 -0.2545
 4045TIP3   OH233549   4.869   5.955  16.849 -0.7251 -0.1286  0.2860
 4045TIP3    H133550   4.796   5.893  16.856  1.5620 -2.9487  1.2812
 4045TIP3    H233551   4.904   5.961  16.938  1.1861 -0.1329 -0.4120
 4046TIP3   OH233552   0.886   6.389   3.886  0.1034 -0.3193  0.5168
 4046TIP3    H133553   0.850   6.347   3.808  3.9898 -0.4483 -1.5019
 4046TIP3    H233554   0.893   6.482   3.862 -1.5319  0.2168  1.9995
 4047TIP3   OH233555   3.087   5.214  13.282 -0.2535 -0.5737  0.1048
 4047TIP3    H133556   3.135   5.261  13.350 -1.0865 -0.0956  0.3765
 4047TIP3    H233557   3.111   5.258  13.201  0.1678 -0.6740  0.1719
 4048TIP3   OH233558   5.471   0.314   1.150 -0.7170 -0.2091 -0.7121
 4048TIP3    H133559   5.527   0.392   1.146 -1.2095  0.1649 -0.4840
 4048TIP3    H233560   5.523   0.245   1.111  0.5443 -0.2551  0.9564
 4049TIP3   OH233561   4.586   3.782   5.749  0.0389  0.1201 -0.1669
 4049TIP3    H133562   4.515   3.777   5.685 -0.8529 -0.3970  0.8240
 4049TIP3    H233563   4.641   3.853   5.718 -0.1837 -0.3267 -1.6755
 4050TIP3   OH233564   2.073   0.380   5.543  0.5716 -0.4437  0.8476
 4050TIP3    H133565   2.048   0.324   5.470 -0.1076  1.7929 -0.7527
 4050TIP3    H233566   1.991   0.394   5.591  0.3176  0.6351  0.1382
 4051TIP3   OH233567   3.092   6.687  11.337  0.0487 -0.4823 -0.0837
 4051TIP3    H133568   3.180   6.707  11.305  0.7378 -0.8417  1.5042
 4051TIP3    H233569   3.060   6.770  11.374 -0.2421 -0.3872 -0.5345
 4052TIP3   OH233570   3.978   4.270   6.979  0.0914 -0.4324  0.1098
 4052TIP3    H133571   3.929   4.195   6.947  0.5367 -0.7150  0.0798
 4052TIP3    H233572   4.003   4.247   7.068  0.5259 -0.4730 -0.0164
 4053TIP3   OH233573   0.365   4.565   3.963  0.1705 -0.0671  0.1968
 4053TIP3    H133574   0.277   4.567   3.926 -0.2777  1.5907  1.2778
 4053TIP3    H233575   0.359   4.503   4.036  0.8661 -2.7448 -1.8589
 4054TIP3   OH233576   5.043   5.512  13.039 -0.2568  0.1323 -0.7775
 4054TIP3    H133577   4.983   5.478  13.106 -1.9838  0.7834 -1.9218
 4054TIP3    H233578   5.004   5.595  13.012  1.4160  0.7965 -1.2766
 4055TIP3   OH233579   3.150   0.298   2.952  0.1268  0.1129  0.0983
 4055TIP3    H133580   3.124   0.387   2.977  0.0675  0.1282 -0.0178
 4055TIP3    H233581   3.095   0.241   3.007  0.4490  0.1479  0.4615
 4056TIP3   OH233582   2.477   4.167  14.972  0.4205  0.2469  0.3209
 4056TIP3    H133583   2.432   4.084  14.991  2.0735 -1.0220 -0.9622
 4056TIP3    H233584   2.461   4.182  14.879 -0.8909  2.0733  0.8005
 4057TIP3   OH233585   5.585   3.947   4.069 -0.2058 -0.4817  0.1004
 4057TIP3    H133586   5.578   3.876   4.133 -1.4324  0.8140  1.4661
 4057TIP3    H233587   5.624   4.020   4.118 -0.2391  0.2298 -0.9084
 4058TIP3   OH233588   2.215   2.694  14.486 -0.8121  0.3676 -0.0055
 4058TIP3    H133589   2.135   2.730  14.449 -0.6529 -0.3552 -1.1173
 4058TIP3    H233590   2.236   2.751  14.560 -3.3020 -0.4545  1.4484
 4059TIP3   OH233591   2.773   3.604   5.758  0.5059  0.0960 -0.2771
 4059TIP3    H133592   2.720   3.564   5.828  0.0295 -1.0947 -1.2720
 4059TIP3    H233593   2.840   3.653   5.804 -0.9831  0.9935  1.0240
 4060TIP3   OH233594   4.889   5.267   0.656 -0.0778  0.4012  0.7651
 4060TIP3    H133595   4.911   5.177   0.679 -1.2258  0.1390  0.8877
 4060TIP3    H233596   4.837   5.260   0.576 -0.5261  0.9165  1.0002
 4061TIP3   OH233597   1.945   2.758   0.535  0.2303  0.0030  0.5245
 4061TIP3    H133598   2.008   2.783   0.603  0.2548 -1.0466  0.9147
 4061TIP3    H233599   1.899   2.682   0.573 -0.9449  0.4648  0.0580
 4062TIP3   OH233600   3.390   5.120  11.300  0.0968 -0.2899  0.2599
 4062TIP3    H133601   3.349   5.050  11.248  1.9322 -1.7986  0.7239
 4062TIP3    H233602   3.374   5.200  11.250 -0.9018 -1.2385 -1.0101
 4063TIP3   OH233603   2.985   1.970  16.384 -0.5945 -0.2965 -0.3847
 4063TIP3    H133604   2.942   2.053  16.406 -1.3650 -0.6583 -0.4999
 4063TIP3    H233605   2.933   1.903  16.428  0.9982 -0.6159  1.1182
 4064TIP3   OH233606   2.367   1.120   1.371  0.4278 -0.0149  0.2746
 4064TIP3    H133607   2.408   1.066   1.439  0.5667 -0.3613 -0.0804
 4064TIP3    H233608   2.437   1.176   1.339  0.9056 -1.2894 -1.0220
 4065TIP3   OH233609   6.541   5.525  11.020 -1.1594 -0.4418  0.2990
 4065TIP3    H133610   6.616   5.484  11.062 -0.6404  0.6964  0.5275
 4065TIP3    H233611   6.549   5.618  11.042 -2.9248 -0.3599  0.7771
 4066TIP3   OH233612   1.243   3.576   5.015 -0.2146  0.8937 -0.1748
 4066TIP3    H133613   1.287   3.496   5.042 -0.2676  1.2757  1.1268
 4066TIP3    H233614   1.312   3.627   4.972  0.5406  1.2459  1.3446
 4067TIP3   OH233615   3.873   1.990  12.995  0.4474  0.1953 -0.0692
 4067TIP3    H133616   3.903   2.045  13.068 -1.5025  1.8054 -0.3681
 4067TIP3    H233617   3.779   2.009  12.989  0.5712  0.2410 -3.0962
 4068TIP3   OH233618   1.429   1.900   4.470 -0.7559 -0.6036  0.3890
 4068TIP3    H133619   1.517   1.883   4.435 -0.7840  2.6539 -1.6114
 4068TIP3    H233620   1.370   1.858   4.408 -0.6589 -0.6290  0.3135
 4069TIP3   OH233621   2.671   0.920  14.330 -0.1848  0.5175 -0.4365
 4069TIP3    H133622   2.593   0.876  14.295 -0.7267  1.6190 -0.6518
 4069TIP3    H233623   2.701   0.862  14.401 -0.6971 -0.3437 -0.9056
 4070TIP3   OH233624   4.345   4.277  16.201 -0.0827 -0.4300  0.4778
 4070TIP3    H133625   4.423   4.311  16.245  0.3171  1.2217 -1.3442
 4070TIP3    H233626   4.308   4.214  16.262  0.6524  1.3917  2.9832
 4071TIP3   OH233627   2.022   0.261  11.294  0.1505  0.8938 -0.3750
 4071TIP3    H133628   1.944   0.206  11.293  0.0867  0.9360  0.7147
 4071TIP3    H233629   2.061   0.251  11.207 -0.8077  0.5014 -0.7614
 4072TIP3   OH233630   2.680   0.562  12.341  0.0580 -0.7577  0.2598
 4072TIP3    H133631   2.630   0.615  12.403  0.8533  1.5008 -0.8746
 4072TIP3    H233632   2.771   0.588  12.355  0.2693 -0.2384 -1.6999
 4073TIP3   OH233633   5.101   4.951   3.334 -0.4349 -0.6357  0.6346
 4073TIP3    H133634   5.058   5.030   3.301  0.1640  0.6585  2.8096
 4073TIP3    H233635   5.192   4.976   3.347 -0.3860 -1.4402  2.0280
 4074TIP3   OH233636   1.226   0.979   0.234  0.6369 -0.1475  0.0998
 4074TIP3    H133637   1.167   0.977   0.159  0.3393 -0.1167  0.3306
 4074TIP3    H233638   1.217   0.892   0.273  0.6570 -0.1048  0.2004
 4075TIP3   OH233639   3.951   1.392  13.330 -0.2093 -0.2212  0.1574
 4075TIP3    H133640   3.937   1.312  13.279 -1.3848 -0.4240  0.7645
 4075TIP3    H233641   3.930   1.366  13.420  2.6180 -0.0972  0.9462
 4076TIP3   OH233642   4.103   3.519   5.810  0.3349 -0.2012  0.3630
 4076TIP3    H133643   4.126   3.476   5.728  0.5333  0.3364  0.1300
 4076TIP3    H233644   4.009   3.504   5.820  0.3101 -0.2663  0.0373
 4077TIP3   OH233645   1.493   5.604  15.883  0.3951  0.3904 -0.1321
 4077TIP3    H133646   1.537   5.660  15.947 -0.4283  0.5461  0.2955
 4077TIP3    H233647   1.512   5.515  15.912 -0.5052  0.4599  0.6999
 4078TIP3   OH233648   4.756   0.974  15.136 -0.5355 -0.3383 -0.1429
 4078TIP3    H133649   4.773   1.065  15.158 -1.7649 -0.0370 -0.3658
 4078TIP3    H233650   4.842   0.936  15.123 -0.0221  1.1594 -1.4728
 4079TIP3   OH233651   4.058   0.603   0.117  0.2365 -0.0093  0.2796
 4079TIP3    H133652   4.141   0.559   0.133  0.0884 -0.8021 -0.9481
 4079TIP3    H233653   4.022   0.620   0.204  0.5915 -1.8098  0.8188
 4080TIP3   OH233654   6.528   0.803  17.281  0.4307 -0.0858 -0.1240
 4080TIP3    H133655   6.526   0.848  17.197 -0.7290  0.6576  0.2765
 4080TIP3    H233656   6.458   0.844  17.332  1.8541  0.2923  1.6242
 4081TIP3   OH233657   5.045   5.723  16.642  0.3756  0.2064  0.5622
 4081TIP3    H133658   5.130   5.686  16.618  1.1296  1.5035  1.0717
 4081TIP3    H233659   5.008   5.756  16.560 -0.0214 -1.0743  0.2104
 4082TIP3   OH233660   1.119   6.026   5.703  0.1703 -0.8030 -0.3762
 4082TIP3    H133661   1.143   6.074   5.624 -2.3235  3.8037  1.3211
 4082TIP3    H233662   1.182   6.057   5.769 -1.1233 -0.2770  0.6397
 4083TIP3   OH233663   0.936   2.343   5.576 -0.3146 -0.2479 -0.2750
 4083TIP3    H133664   0.855   2.302   5.607  0.1801 -1.1167 -0.0981
 4083TIP3    H233665   0.977   2.278   5.520  1.8990 -1.2278  2.2541
 4084TIP3   OH233666   5.377   4.322   6.472  0.4780  0.3014  0.0860
 4084TIP3    H133667   5.393   4.378   6.396  0.6704 -0.4061 -0.4093
 4084TIP3    H233668   5.344   4.381   6.539 -0.1880  0.8626 -0.7143
 4085TIP3   OH233669   2.943   6.227  12.461 -0.4947 -0.2797 -0.0916
 4085TIP3    H133670   2.858   6.213  12.419 -0.0343 -2.2105 -0.4886
 4085TIP3    H233671   2.924   6.224  12.555 -0.6596 -2.4377 -0.1605
 4086TIP3   OH233672   1.360   2.869  15.357 -0.0294 -0.1003  0.4204
 4086TIP3    H133673   1.282   2.922  15.339  0.9894  1.6892  1.0677
 4086TIP3    H233674   1.362   2.861  15.452  0.3666 -0.4968  0.3815
 4087TIP3   OH233675   1.725   0.970  16.054 -0.2525 -0.0603 -0.1265
 4087TIP3    H133676   1.763   0.950  15.968 -0.1256  1.3018 -0.4065
 4087TIP3    H233677   1.723   1.065  16.057  0.6384 -0.0624  1.7737
 4088TIP3   OH233678   2.529   0.737   5.394  0.0683  0.0778  0.4723
 4088TIP3    H133679   2.600   0.710   5.452 -0.2705 -0.1476  0.7809
 4088TIP3    H233680   2.569   0.804   5.338  0.4434  0.1699  0.8407
 4089TIP3   OH233681   2.724   2.297   4.525  0.0376 -0.3954 -0.0089
 4089TIP3    H133682   2.693   2.208   4.507  0.9082 -0.4575 -1.3822
 4089TIP3    H233683   2.650   2.354   4.505 -0.0033 -0.7056 -0.7698
 4090TIP3   OH233684   3.220   3.718  14.079  0.5466  0.4718  0.3400
 4090TIP3    H133685   3.259   3.803  14.098  1.2461  0.2558 -0.0756
 4090TIP3    H233686   3.226   3.710  13.983  1.7999 -0.6454  0.4867
 4091TIP3   OH233687   2.842   3.065  14.897  0.2230 -0.5014  0.2724
 4091TIP3    H133688   2.759   3.032  14.932  0.7653 -0.8847  1.2227
 4091TIP3    H233689   2.849   3.025  14.810 -2.4423  2.5322 -1.6023
 4092TIP3   OH233690   1.667   2.209  15.801  0.0151  0.0225  0.3770
 4092TIP3    H133691   1.594   2.191  15.860  1.1862 -0.5413  1.7302
 4092TIP3    H233692   1.745   2.199  15.856  1.1905 -0.7192 -1.3192
 4093TIP3   OH233693   5.704   0.745  11.776 -0.5581 -0.2701  0.6779
 4093TIP3    H133694   5.628   0.748  11.834  0.1293 -2.2854  1.7763
 4093TIP3    H233695   5.718   0.652  11.758  1.8949 -0.0304  0.8850
 4094TIP3   OH233696   4.685   0.935   3.232 -0.2733 -0.2328  0.2353
 4094TIP3    H133697   4.639   0.997   3.176 -2.2255 -0.2620  1.7172
 4094TIP3    H233698   4.616   0.889   3.280  1.2711 -0.8221  2.0282
 4095TIP3   OH233699   1.654   4.500  16.320 -0.1620 -0.2375  0.5777
 4095TIP3    H133700   1.563   4.529  16.323  0.0463  0.5453 -0.1676
 4095TIP3    H233701   1.654   4.414  16.361 -0.9791  0.3980  1.9481
 4096TIP3   OH233702   4.787   4.855   2.088 -0.2717  0.0348  0.1412
 4096TIP3    H133703   4.703   4.815   2.066 -0.2736 -0.1991  0.5745
 4096TIP3    H233704   4.811   4.817   2.172 -1.2690  2.4567  1.6393
 4097TIP3   OH233705   3.978   2.987   3.694  0.0298  0.4525  0.4275
 4097TIP3    H133706   4.020   3.072   3.708  0.3094 -0.0231  2.7761
 4097TIP3    H233707   3.911   2.982   3.762 -0.2810 -1.0268  0.0388
 4098TIP3   OH233708   2.966   3.245  13.712  0.2120  0.2623  0.3737
 4098TIP3    H133709   2.879   3.286  13.715  0.1727  0.1216  1.7459
 4098TIP3    H233710   3.020   3.301  13.767  0.7963 -0.1072  0.1770
 4099TIP3   OH233711   0.066   0.468   5.440  0.7433 -0.0363  0.5126
 4099TIP3    H133712   0.098   0.451   5.529  1.5157 -0.3261  0.1811
 4099TIP3    H233713  -0.029   0.474   5.450  0.7986 -0.3871  1.3067
 4100TIP3   OH233714   1.506   3.582   2.952 -0.1528 -0.5313  0.3524
 4100TIP3    H133715   1.548   3.515   3.006 -0.4974  0.1478  1.4927
 4100TIP3    H233716   1.543   3.664   2.984  0.5132 -0.1788 -1.2534
 4101TIP3   OH233717   4.292   1.183  16.830  0.3879  0.7109 -0.0315
 4101TIP3    H133718   4.289   1.243  16.905 -0.7528  0.2401  0.3251
 4101TIP3    H233719   4.204   1.188  16.792 -0.5191 -2.2659  1.2876
 4102TIP3   OH233720   2.147   3.917  12.937  0.3117 -0.1853  0.3904
 4102TIP3    H133721   2.215   3.887  12.998 -1.4774  0.6632  2.9945
 4102TIP3    H233722   2.088   3.842  12.928  1.1438 -0.6992 -1.3482
 4103TIP3   OH233723   4.097   1.668   4.251 -0.2494 -0.2338 -0.6858
 4103TIP3    H133724   4.018   1.664   4.197 -0.9228  0.0075  0.2592
 4103TIP3    H233725   4.167   1.687   4.189 -0.8667 -0.8207 -1.5940
 4104TIP3   OH233726   5.825   2.842   1.059 -0.4993 -0.5403  0.2450
 4104TIP3    H133727   5.838   2.759   1.013 -2.2794 -0.4131 -0.5790
 4104TIP3    H233728   5.912   2.881   1.064  0.0400 -1.4749 -1.2661
 4105TIP3   OH233729   1.989   1.799  12.853 -0.1892  0.5809 -0.5104
 4105TIP3    H133730   1.921   1.738  12.883 -1.4134  0.6860 -2.8375
 4105TIP3    H233731   1.999   1.861  12.925 -0.8008 -0.8299  0.8603
 4106TIP3   OH233732   2.333   0.738   3.808 -0.1514  0.4107  0.3393
 4106TIP3    H133733   2.349   0.654   3.765 -0.6180  0.3572  0.2672
 4106TIP3    H233734   2.242   0.733   3.839  0.0587  0.5860  1.0192
 4107TIP3   OH233735   5.997   5.662   0.742 -0.0139  0.0568  0.5405
 4107TIP3    H133736   5.934   5.732   0.760  0.0699  0.5425 -0.9120
 4107TIP3    H233737   6.019   5.626   0.828 -0.3593  1.5613  1.2871
 4108TIP3   OH233738   5.137   3.313   4.167  0.2737 -0.3772 -0.3301
 4108TIP3    H133739   5.049   3.305   4.130  0.0252 -0.5077  0.2674
 4108TIP3    H233740   5.185   3.237   4.134 -1.1245 -2.8444  2.7838
 4109TIP3   OH233741   5.812   1.756   5.524 -0.1457 -0.1896 -0.1616
 4109TIP3    H133742   5.901   1.725   5.538 -0.6233 -1.0685  1.1100
 4109TIP3    H233743   5.759   1.677   5.522 -0.9874  0.3665 -0.2132
 4110TIP3   OH233744   3.836   4.714  16.260 -0.5598 -0.0571 -0.4366
 4110TIP3    H133745   3.835   4.642  16.196 -0.4508  1.2759 -1.9918
 4110TIP3    H233746   3.751   4.757  16.249 -1.1624 -0.6859  1.4061
 4111TIP3   OH233747   5.463   5.607   1.778 -0.5348 -0.2608  0.7326
 4111TIP3    H133748   5.498   5.561   1.855 -0.1868  0.3655  0.9560
 4111TIP3    H233749   5.539   5.625   1.723 -0.6190  0.2895  0.7818
 4112TIP3   OH233750   3.212   6.188   2.134  0.1043  0.5391  0.1367
 4112TIP3    H133751   3.122   6.156   2.139  0.2242 -0.0753 -1.1320
 4112TIP3    H233752   3.211   6.252   2.063  0.7586  0.1719 -0.2130
 4113TIP3   OH233753   5.519   0.200   0.744 -0.1239 -0.1198 -0.0165
 4113TIP3    H133754   5.545   0.124   0.692 -1.0351 -0.4508  0.0011
 4113TIP3    H233755   5.525   0.274   0.683  0.3520 -0.2577 -0.1462
 4114TIP3   OH233756   4.694   5.548  11.483 -0.1129  0.1569 -0.4756
 4114TIP3    H133757   4.645   5.581  11.407 -2.3805 -0.8260  0.4663
 4114TIP3    H233758   4.685   5.617  11.549  0.6360  0.3861 -0.6018
 4115TIP3   OH233759   0.258   2.204  12.636 -0.0590 -0.7060  0.1640
 4115TIP3    H133760   0.344   2.195  12.678 -0.9748  1.4138  2.7655
 4115TIP3    H233761   0.223   2.287  12.669 -1.6574  0.3503 -3.6507
 4116TIP3   OH233762   2.393   0.147   2.899 -0.5555  0.0019 -0.0600
 4116TIP3    H133763   2.336   0.224   2.896 -1.8498 -0.9525 -1.5038
 4116TIP3    H233764   2.454   0.159   2.826  0.9247  0.8241  1.2390
 4117TIP3   OH233765   4.538   0.963   1.669  0.7645  0.0615  0.9005
 4117TIP3    H133766   4.477   0.889   1.668 -1.1885  1.5422  2.2754
 4117TIP3    H233767   4.567   0.972   1.578  0.7475 -2.0913  0.6351
 4118TIP3   OH233768   1.114   5.798  11.899  0.0721 -0.2488  0.1569
 4118TIP3    H133769   1.064   5.870  11.937 -3.6569 -0.8107 -3.0995
 4118TIP3    H233770   1.192   5.840  11.862 -0.7477  1.6955  0.5079
 4119TIP3   OH233771   1.717   4.232  12.294 -0.1220 -0.1441  0.0326
 4119TIP3    H133772   1.729   4.142  12.324 -1.3791  0.1220  1.4868
 4119TIP3    H233773   1.743   4.286  12.369 -0.4701  0.6691 -0.4147
 4120TIP3   OH233774   2.416   4.123   4.500  0.2817 -0.1512  0.2554
 4120TIP3    H133775   2.431   4.194   4.563  2.4197  0.0640 -0.3990
 4120TIP3    H233776   2.476   4.054   4.528 -0.1337 -0.7968 -0.4398
 4121TIP3   OH233777   6.067   5.954   1.739  0.0175 -0.1546 -0.3474
 4121TIP3    H133778   6.040   5.900   1.665 -1.0253  0.3374 -0.3467
 4121TIP3    H233779   6.118   6.025   1.700 -0.9676  0.3906 -0.6684
 4122TIP3   OH233780   2.252   5.697   4.434  0.4737 -0.8920 -0.3943
 4122TIP3    H133781   2.284   5.706   4.344 -0.7071 -1.5530 -0.8996
 4122TIP3    H233782   2.259   5.786   4.470  1.3870 -0.7074 -0.9784
 4123TIP3   OH233783   4.908   2.606   5.725  0.3312 -0.3454 -0.2675
 4123TIP3    H133784   4.861   2.623   5.807  1.8024  1.6170  0.2478
 4123TIP3    H233785   4.964   2.531   5.744  1.4439  0.7426  0.9152
 4124TIP3   OH233786   5.274   6.634   0.596  0.7460  0.1965 -0.3566
 4124TIP3    H133787   5.344   6.699   0.593  0.2804  0.9377  2.0662
 4124TIP3    H233788   5.285   6.592   0.682 -2.1670  0.8745  0.4586
 4125TIP3   OH233789   3.563   5.916  16.841  0.4286 -0.5688 -0.2741
 4125TIP3    H133790   3.488   5.960  16.881 -0.4972 -1.2269 -1.2322
 4125TIP3    H233791   3.534   5.825  16.831  1.0729 -0.6703 -1.3275
 4126TIP3   OH233792   2.957   2.894  12.321 -0.0145 -0.1986  0.0576
 4126TIP3    H133793   2.959   2.845  12.403  0.8543 -2.6083 -1.3163
 4126TIP3    H233794   2.875   2.944  12.326 -1.8682 -3.0948  0.8812
 4127TIP3   OH233795   1.573   0.503   2.594 -0.2347  0.1167  0.1395
 4127TIP3    H133796   1.659   0.509   2.635 -0.3710  1.4328  0.2588
 4127TIP3    H233797   1.519   0.458   2.658  0.5246 -1.4262 -0.2421
 4128TIP3   OH233798   1.671   1.894   5.332 -0.0839  0.2000  0.1858
 4128TIP3    H133799   1.669   1.966   5.395  0.4789  0.5339 -0.1664
 4128TIP3    H233800   1.688   1.816   5.386 -0.9504  0.2872  0.5958
 4129TIP3   OH233801   5.180   3.273   0.073 -0.6648  1.0612 -0.4695
 4129TIP3    H133802   5.197   3.203   0.010 -2.9131 -1.6609  1.6695
 4129TIP3    H233803   5.112   3.326   0.033  0.0171  1.1696 -1.5127
 4130TIP3   OH233804   4.800   4.723  16.611  0.1944  0.2403 -0.9864
 4130TIP3    H133805   4.745   4.786  16.659 -0.4112  0.5305 -2.0411
 4130TIP3    H233806   4.801   4.645  16.668  0.5932  1.0263  0.1276
 4131TIP3   OH233807   0.606   4.697   1.835  0.3831  0.2240  0.0881
 4131TIP3    H133808   0.570   4.683   1.923 -0.4283  1.6771  0.0244
 4131TIP3    H233809   0.576   4.622   1.784  0.9861 -0.7137  1.0790
 4132TIP3   OH233810   3.641   1.197   5.157  0.8530  0.1542  0.0012
 4132TIP3    H133811   3.637   1.226   5.248  0.4671 -1.0785  0.3870
 4132TIP3    H233812   3.550   1.203   5.126  1.0650  1.1085 -0.4999
 4133TIP3   OH233813   3.983   0.932  13.831  0.1793  0.3163 -1.0132
 4133TIP3    H133814   4.043   0.861  13.856  0.3289  0.1141 -1.8946
 4133TIP3    H233815   3.947   0.963  13.914 -0.8875 -1.6767 -0.6495
 4134TIP3   OH233816   5.906   5.834  13.784 -0.1757  0.1675 -0.3364
 4134TIP3    H133817   5.998   5.844  13.760  0.1370 -0.2451  0.6676
 4134TIP3    H233818   5.867   5.919  13.763  0.7201  0.8112  0.5039
 4135TIP3   OH233819   6.032   0.764  15.390 -0.3265  0.2036  0.0583
 4135TIP3    H133820   6.112   0.798  15.350 -0.8727 -0.3086 -1.5645
 4135TIP3    H233821   5.963   0.825  15.363 -0.6457  0.0646  0.5522
 4136TIP3   OH233822   2.437   1.535  13.964  0.2811  0.0866  0.7836
 4136TIP3    H133823   2.341   1.539  13.969  0.2188  0.1191 -0.2505
 4136TIP3    H233824   2.458   1.579  13.882  1.2638  1.0285  1.5095
 4137TIP3   OH233825   1.808   5.941   4.072 -0.1028 -0.0484  0.1415
 4137TIP3    H133826   1.849   5.999   4.137  0.0049  2.2685 -1.8476
 4137TIP3    H233827   1.881   5.908   4.020 -0.3263 -0.4232  0.0619
 4138TIP3   OH233828   2.453   1.565  15.323  0.2969  0.2977 -0.3711
 4138TIP3    H133829   2.461   1.622  15.400 -0.0614  0.8563 -0.7358
 4138TIP3    H233830   2.361   1.574  15.296  0.4914  0.3601 -1.0432
 4139TIP3   OH233831   4.974   6.225  15.321  0.2928  0.0118 -0.0591
 4139TIP3    H133832   4.960   6.206  15.414  0.8544 -0.5672 -0.0816
 4139TIP3    H233833   5.039   6.296  15.320 -0.6581  0.9092 -0.0004
 4140TIP3   OH233834   6.021   6.612   6.200 -0.2244  0.2462  0.2593
 4140TIP3    H133835   5.929   6.587   6.193 -0.3133  0.7328 -0.4111
 4140TIP3    H233836   6.023   6.704   6.173  0.7073 -0.2232 -1.3665
 4141TIP3   OH233837   6.117   3.966   2.270 -0.3268  0.7724 -0.6206
 4141TIP3    H133838   6.114   4.043   2.326 -0.6291 -0.5324  1.2948
 4141TIP3    H233839   6.055   3.985   2.199  0.3982  2.6658 -0.7874
 4142TIP3   OH233840   1.855   4.104   5.185  0.1436 -0.4808  0.0495
 4142TIP3    H133841   1.786   4.170   5.180 -0.2112 -0.6918  1.5998
 4142TIP3    H233842   1.923   4.144   5.239 -0.4481 -1.6314  1.7531
 4143TIP3   OH233843   2.475   0.379   5.676  0.2382  0.2470 -0.6139
 4143TIP3    H133844   2.398   0.322   5.677  0.4502 -0.0404 -0.4436
 4143TIP3    H233845   2.487   0.405   5.767  1.4494 -1.2377 -0.3015
 4144TIP3   OH233846   2.886   6.309  17.284 -0.4785 -0.4279  0.2983
 4144TIP3    H133847   2.911   6.392  17.244 -1.6728  0.2549  0.8925
 4144TIP3    H233848   2.791   6.304  17.272 -0.5969 -1.1086  1.3354
 4145TIP3   OH233849   3.119   6.366  15.252  0.2777  0.0796  0.1575
 4145TIP3    H133850   3.074   6.451  15.247 -0.7679 -0.3611  1.4799
 4145TIP3    H233851   3.051   6.302  15.230  0.9210 -0.4571 -0.3000
 4146TIP3   OH233852   2.396   4.355   3.647  0.4318  0.5521 -0.5680
 4146TIP3    H133853   2.319   4.399   3.613 -1.4408 -1.3613  0.8933
 4146TIP3    H233854   2.417   4.289   3.581  0.1562  0.4098 -0.5169
 4147TIP3   OH233855   3.975   0.396  16.691 -0.4438  0.1470 -0.0561
 4147TIP3    H133856   4.037   0.325  16.674  0.5248  0.9084  0.2115
 4147TIP3    H233857   4.028   0.466  16.729 -1.6144  0.5261  0.9511
 4148TIP3   OH233858   2.421   0.972  10.944 -0.3288 -0.6835 -0.1182
 4148TIP3    H133859   2.447   1.064  10.955  2.1082 -1.2111 -0.9093
 4148TIP3    H233860   2.373   0.971  10.862 -0.6219 -0.0777  0.0362
 4149TIP3   OH233861   6.562   1.843   2.264 -0.3105 -0.4533  0.1824
 4149TIP3    H133862   6.617   1.919   2.283  0.9366 -1.4441  0.6862
 4149TIP3    H233863   6.548   1.802   2.349 -1.7178 -0.3260  0.0376
 4150TIP3   OH233864   0.699   6.006   6.194 -0.5952 -0.4051  0.3768
 4150TIP3    H133865   0.608   6.025   6.216 -0.8885 -1.4994  0.1775
 4150TIP3    H233866   0.728   5.946   6.263 -0.5984 -1.4861 -0.5383
 4151TIP3   OH233867   0.678   0.496  16.185  0.2588 -0.4318  0.2317
 4151TIP3    H133868   0.772   0.488  16.174  0.3030 -2.2285  1.5115
 4151TIP3    H233869   0.644   0.407  16.176 -1.2641  0.1149  0.1946
 4152TIP3   OH233870   5.636   3.571   5.064 -0.1089 -0.7838  0.2776
 4152TIP3    H133871   5.656   3.535   4.977 -0.5019  0.6972 -0.4500
 4152TIP3    H233872   5.563   3.630   5.049  1.3309  1.3204  1.1932
 4153TIP3   OH233873   3.866   0.442   1.363  0.2368  0.7476 -0.6229
 4153TIP3    H133874   3.857   0.401   1.277 -0.0929  2.1803 -1.2941
 4153TIP3    H233875   3.795   0.506   1.367 -0.6610 -0.2808  1.3207
 4154TIP3   OH233876   4.508   1.750  17.042  0.1209 -0.3407  0.1013
 4154TIP3    H133877   4.545   1.673  17.085 -0.6163 -0.3667  0.6976
 4154TIP3    H233878   4.441   1.782  17.102  0.3389  0.7075 -0.1828
 4155TIP3   OH233879   1.209   6.130   4.908 -0.2309  0.1347 -0.7939
 4155TIP3    H133880   1.151   6.191   4.863 -1.5066 -0.1113  0.4373
 4155TIP3    H233881   1.156   6.095   4.979  1.0451 -1.0691 -0.3889
 4156TIP3   OH233882   4.782   1.958   3.026 -0.1516  0.9150 -0.3506
 4156TIP3    H133883   4.706   1.904   3.006 -0.5657  1.4229 -0.1847
 4156TIP3    H233884   4.795   1.947   3.121 -1.8074  3.0309  0.2140
 4157TIP3   OH233885   2.413   5.557   0.629 -0.4532 -0.0324 -0.2342
 4157TIP3    H133886   2.354   5.632   0.627 -0.1180  0.2347 -0.2247
 4157TIP3    H233887   2.441   5.547   0.538 -0.0047  0.2501 -0.1285
 4158TIP3   OH233888   1.189   3.840  14.336  0.2635  0.5588 -0.1087
 4158TIP3    H133889   1.206   3.837  14.242 -0.7986  0.7160 -0.3232
 4158TIP3    H233890   1.108   3.890  14.344 -0.7588 -1.1209  0.7029
 4159TIP3   OH233891   1.244   6.174  16.161  0.1091  0.0211  0.9743
 4159TIP3    H133892   1.300   6.209  16.092 -0.8664 -0.3317 -0.0258
 4159TIP3    H233893   1.305   6.146  16.229  1.5285 -3.4894 -1.4491
 4160TIP3   OH233894   3.181   3.217   2.367  0.3597  0.4748  0.2494
 4160TIP3    H133895   3.190   3.198   2.274 -0.3540 -0.7783  0.4163
 4160TIP3    H233896   3.220   3.304   2.378 -2.4271  2.1105 -1.7750
 4161TIP3   OH233897   5.959   1.293  12.441 -0.0510 -0.2700 -0.2300
 4161TIP3    H133898   6.002   1.378  12.442  0.0762 -0.3314  0.8078
 4161TIP3    H233899   6.022   1.233  12.481 -1.5711 -0.0639  2.7911
 4162TIP3   OH233900   5.387   5.822  17.072  0.4075 -0.6699 -0.5670
 4162TIP3    H133901   5.294   5.825  17.052  0.4232  1.1082 -0.5993
 4162TIP3    H233902   5.393   5.845  17.165  0.7692 -1.4779 -0.3861
 4163TIP3   OH233903   1.404   4.865   3.388  0.4563  0.6822 -0.3369
 4163TIP3    H133904   1.314   4.894   3.403  1.0063  1.9978  0.5229
 4163TIP3    H233905   1.444   4.935   3.337  0.9088 -0.0496 -1.0017
 4164TIP3   OH233906   6.278   4.900   1.180 -0.6876 -0.4511  0.7182
 4164TIP3    H133907   6.237   4.816   1.157 -0.8243 -0.8712  2.3772
 4164TIP3    H233908   6.208   4.951   1.220 -0.4920  0.3110  0.1140
 4165TIP3   OH233909   5.713   2.506   5.134  0.0089 -0.3335 -0.2001
 4165TIP3    H133910   5.795   2.530   5.178 -1.6664  0.7077  2.6404
 4165TIP3    H233911   5.701   2.414   5.156  0.5936 -0.6148 -1.0033
 4166TIP3   OH233912   1.001   1.544   1.261 -0.4827 -0.7913  0.6040
 4166TIP3    H133913   0.966   1.468   1.309 -2.7842  0.8978  1.7809
 4166TIP3    H233914   0.936   1.562   1.194 -0.1886  0.3958  0.6198
 4167TIP3   OH233915   3.479   2.230   4.580  0.3582  0.7506  0.6451
 4167TIP3    H133916   3.560   2.180   4.592 -0.4578 -0.2021  2.6198
 4167TIP3    H233917   3.502   2.318   4.611  0.9197  0.7741  0.1817
 4168TIP3   OH233918   4.528   1.104  16.573 -0.0794 -0.0118  0.3699
 4168TIP3    H133919   4.450   1.069  16.615 -0.9517  0.3377 -0.8856
 4168TIP3    H233920   4.559   1.033  16.517 -0.8446  0.5748 -0.8552
 4169TIP3   OH233921   1.677   1.980   2.331  0.6285 -0.3659  0.1489
 4169TIP3    H133922   1.650   1.906   2.385  0.1863  0.7310  1.4742
 4169TIP3    H233923   1.669   2.056   2.388  0.0213  0.8714 -1.4975
 4170TIP3   OH233924   4.924   1.736  14.409 -0.1208  0.1317 -0.4468
 4170TIP3    H133925   4.951   1.648  14.434  0.2984  0.2003 -0.6456
 4170TIP3    H233926   4.875   1.724  14.328  0.1966  0.1143 -0.6353
 4171TIP3   OH233927   0.837   3.034   0.187 -0.3000  0.0419  0.1350
 4171TIP3    H133928   0.792   3.056   0.268 -1.0569  0.0896 -0.2769
 4171TIP3    H233929   0.783   3.074   0.119  0.4759  0.2449 -0.3747
 4172TIP3   OH233930   4.514   2.098   1.510  0.0640  0.2118  0.1294
 4172TIP3    H133931   4.525   2.054   1.426  2.9102  0.0064  0.5167
 4172TIP3    H233932   4.575   2.172   1.507 -1.9447  2.0025  0.9110
 4173TIP3   OH233933   2.082   4.831   5.050  0.3398 -0.0091  0.3180
 4173TIP3    H133934   2.052   4.912   5.091 -1.9614  0.0543 -1.3027
 4173TIP3    H233935   2.033   4.762   5.093 -1.6579  0.0085 -1.7152
 4174TIP3   OH233936   0.928   3.079  13.556  0.6049 -0.4053  0.0719
 4174TIP3    H133937   0.873   3.139  13.506  1.4808 -1.1915 -1.9768
 4174TIP3    H233938   1.010   3.075  13.506  0.9024 -2.6013  0.6274
 4175TIP3   OH233939   0.285   0.682  16.440  0.4321  0.5399 -0.2737
 4175TIP3    H133940   0.344   0.618  16.401  1.2872  1.1055  0.0417
 4175TIP3    H233941   0.338   0.762  16.445 -0.3479  1.0416  0.0817
 4176TIP3   OH233942   4.248   2.624   1.157 -1.0684  0.4091  0.5938
 4176TIP3    H133943   4.174   2.580   1.198 -1.9128  0.6061 -0.6508
 4176TIP3    H233944   4.317   2.558   1.154 -1.0338  0.3409  2.1347
 4177TIP3   OH233945   1.074   5.770   5.753 -0.2300  0.0190 -0.2974
 4177TIP3    H133946   0.983   5.744   5.737  0.1955 -0.6826 -1.6412
 4177TIP3    H233947   1.081   5.859   5.717  0.0713 -0.6067 -1.8150
 4178TIP3   OH233948   4.346   2.493  15.220  0.8681 -0.1592 -0.1691
 4178TIP3    H133949   4.431   2.487  15.175  0.6576 -0.1325 -0.5734
 4178TIP3    H233950   4.323   2.402  15.241 -0.3549 -0.4857 -2.6149
 4179TIP3   OH233951   5.095   6.472  15.202 -0.3085  0.0716 -0.9584
 4179TIP3    H133952   5.073   6.390  15.157  1.6034 -1.1603  0.2244
 4179TIP3    H233953   5.177   6.454  15.248 -1.2516  1.7987  1.6522
 4180TIP3   OH233954   4.985   6.039  13.585  0.7341  0.5020 -0.2929
 4180TIP3    H133955   4.891   6.040  13.602  0.6426 -0.4519 -0.6703
 4180TIP3    H233956   5.025   6.067  13.667  0.1337  0.5422 -0.0126
 4181TIP3   OH233957   4.553   5.286  14.099 -0.1568 -0.1816  0.2098
 4181TIP3    H133958   4.544   5.220  14.167 -3.4528  0.7465  0.8575
 4181TIP3    H233959   4.520   5.366  14.139  1.7575  1.4286 -1.2218
 4182TIP3   OH233960   4.154   6.339  10.733  0.0329 -0.3808 -0.3033
 4182TIP3    H133961   4.103   6.301  10.662  0.3826  0.8689 -1.2545
 4182TIP3    H233962   4.090   6.359  10.801 -0.8153  1.2340 -1.4990
 4183TIP3   OH233963   4.913   0.754   0.614  0.2188 -0.2520 -0.2300
 4183TIP3    H133964   4.845   0.814   0.644  1.6850  0.2824  2.4271
 4183TIP3    H233965   4.884   0.668   0.643  1.0021  0.0952  1.7747
 4184TIP3   OH233966   0.508   5.156  16.916 -0.0537 -0.3514  0.7297
 4184TIP3    H133967   0.426   5.126  16.956 -1.2156  0.4825 -0.9451
 4184TIP3    H233968   0.550   5.075  16.885 -1.0814 -0.6345  0.0509
 4185TIP3   OH233969   2.234   3.140   0.029  0.1376 -0.4905  0.3333
 4185TIP3    H133970   2.185   3.075   0.079 -0.9060  0.0330  0.0101
 4185TIP3    H233971   2.301   3.171   0.090  0.5244 -1.7131  0.5518
 4186TIP3   OH233972   6.049   5.683   3.766  0.2443  0.8658 -0.3335
 4186TIP3    H133973   6.025   5.600   3.807  0.4895  1.5039  1.1373
 4186TIP3    H233974   5.976   5.742   3.785 -0.3248  0.7845 -2.0963
 4187TIP3   OH233975   3.244   6.747  14.394  0.0283 -0.0083 -0.2706
 4187TIP3    H133976   3.258   6.676  14.331  4.1439 -1.6918  2.1584
 4187TIP3    H233977   3.307   6.814  14.368  0.2350  0.2078  0.7578
 4188TIP3   OH233978   1.925   5.332  13.949  0.5642 -0.7747 -0.0330
 4188TIP3    H133979   1.986   5.299  14.014 -0.4773 -0.4011  1.1734
 4188TIP3    H233980   1.934   5.272  13.874  2.2609 -0.8115  0.1691
 4189TIP3   OH233981   2.583   6.425  11.607 -0.7238 -0.5510 -0.1019
 4189TIP3    H133982   2.640   6.388  11.541 -1.6226 -0.2261 -1.0912
 4189TIP3    H233983   2.518   6.475  11.558 -2.9551 -2.3542  0.8013
 4190TIP3   OH233984   2.830   2.701   3.182  0.3073 -0.1466  0.1517
 4190TIP3    H133985   2.853   2.609   3.187 -2.5320 -0.9466  0.0895
 4190TIP3    H233986   2.763   2.713   3.250  0.0685  1.6863 -0.3484
 4191TIP3   OH233987   3.876   0.658  15.941 -0.7017  0.0277  0.7346
 4191TIP3    H133988   3.933   0.649  16.016  0.4584  1.0018  0.0120
 4191TIP3    H233989   3.820   0.581  15.943 -0.2206 -0.3053  2.1804
 4192TIP3   OH233990   3.533   6.099   3.761 -0.1492 -0.2869  0.0445
 4192TIP3    H133991   3.542   6.193   3.750 -0.8943 -0.3262 -1.0367
 4192TIP3    H233992   3.449   6.088   3.807 -0.5822 -0.4579 -0.7707
 4193TIP3   OH233993   3.887   3.517   3.314 -0.0726 -0.0841 -0.0007
 4193TIP3    H133994   3.830   3.525   3.391  0.7706  0.2861  0.5928
 4193TIP3    H233995   3.936   3.436   3.327  0.4520  0.2475  0.1112
 4194TIP3   OH233996   0.353   5.962   0.253  0.3784  0.5091  0.2403
 4194TIP3    H133997   0.314   5.875   0.246  2.0512 -0.2789  0.1308
 4194TIP3    H233998   0.311   6.001   0.329  0.3902 -0.8230  0.9676
 4195TIP3   OH233999   5.663   1.591  12.182  0.3414 -0.3207  0.7361
 4195TIP3    H134000   5.586   1.550  12.222  0.2876 -0.1965  0.7625
 4195TIP3    H234001   5.655   1.684  12.205 -0.2000 -0.0725 -0.3496
 4196TIP3   OH234002   1.537   0.550  13.331  0.1947  0.5349 -0.3016
 4196TIP3    H134003   1.626   0.535  13.363  0.4475 -1.2549 -1.6680
 4196TIP3    H234004   1.531   0.645  13.320  2.2940  0.6398 -1.0774
 4197TIP3   OH234005   6.732   6.271  17.323  0.7007 -0.0075 -0.0832
 4197TIP3    H134006   6.813   6.232  17.357  1.6584  1.1755 -0.9097
 4197TIP3    H234007   6.742   6.365  17.341 -0.7660  0.0859  0.3216
 4198TIP3   OH234008   4.753   2.373  16.341 -0.8601  0.1171  0.8109
 4198TIP3    H134009   4.731   2.422  16.262 -0.2314 -2.1457 -0.8830
 4198TIP3    H234010   4.837   2.410  16.369 -0.8651  0.6456  0.1569
 4199TIP3   OH234011   2.822   5.618   3.483 -0.3093 -0.8646 -0.3055
 4199TIP3    H134012   2.735   5.621   3.524 -0.4358  1.0135 -0.6020
 4199TIP3    H234013   2.863   5.540   3.520 -1.8482 -1.3875  0.4051
 4200TIP3   OH234014   1.225   1.781  16.764 -0.1331  0.5997 -0.2848
 4200TIP3    H134015   1.151   1.835  16.794 -0.2793  0.8508 -1.0615
 4200TIP3    H234016   1.188   1.727  16.694 -0.3004 -1.4346  1.2824
 4201TIP3   OH234017   0.161   2.580   0.872  0.0286  0.0928  0.0800
 4201TIP3    H134018   0.126   2.503   0.917 -2.5777  0.2476 -1.4983
 4201TIP3    H234019   0.245   2.551   0.837  0.6631 -0.9641  2.2700
 4202TIP3   OH234020   0.028   3.905   2.635 -0.1860  0.0256 -0.6990
 4202TIP3    H134021   0.025   3.813   2.608 -0.9140 -0.0116 -0.4976
 4202TIP3    H234022   0.090   3.946   2.574  2.1419 -1.1011  0.7591
 4203TIP3   OH234023   1.276   4.587   5.648  0.1351 -0.0542  0.3967
 4203TIP3    H134024   1.206   4.626   5.595  0.4554 -0.9706 -0.7666
 4203TIP3    H234025   1.333   4.545   5.583  1.6426  0.4680  1.3332
 4204TIP3   OH234026   3.461   0.503   0.972 -0.0679  0.2017 -0.2325
 4204TIP3    H134027   3.393   0.532   1.032 -0.5477  0.4158 -0.8744
 4204TIP3    H234028   3.541   0.502   1.025 -0.0691  2.4212 -0.0775
 4205TIP3   OH234029   1.319   5.094   3.927 -0.4739 -0.0218 -0.1614
 4205TIP3    H134030   1.316   5.025   3.861 -0.5125  0.9972 -1.2403
 4205TIP3    H234031   1.405   5.083   3.968 -0.5386 -0.7963 -0.2070
 4206TIP3   OH234032   2.523   3.608  15.546 -0.5525  0.7633 -0.3066
 4206TIP3    H134033   2.503   3.700  15.558  0.8407  1.0848 -0.2640
 4206TIP3    H234034   2.612   3.598  15.580 -0.8962 -0.7206  0.2415
 4207TIP3   OH234035   0.562   0.083  16.763  0.0023 -0.2862 -0.1217
 4207TIP3    H134036   0.644   0.123  16.736  0.3591 -0.8077  0.1827
 4207TIP3    H234037   0.576  -0.011  16.752 -0.9919 -0.3185 -1.2997
 4208TIP3   OH234038   5.497   1.750   4.432 -0.0970 -0.5965 -0.0487
 4208TIP3    H134039   5.429   1.799   4.385  1.4762  0.6280 -1.1499
 4208TIP3    H234040   5.528   1.685   4.369  1.8292  0.8694 -0.7247
 4209TIP3   OH234041   0.843   2.184  15.434 -0.1118  0.3445  0.3096
 4209TIP3    H134042   0.837   2.201  15.340 -1.3386  2.6573  0.7247
 4209TIP3    H234043   0.924   2.228  15.460 -0.7557  1.3939  0.6041
 4210TIP3   OH234044   3.220   0.926   2.344  0.0312  0.1006  0.4293
 4210TIP3    H134045   3.293   0.987   2.346 -0.5380  0.7645  1.7666
 4210TIP3    H234046   3.259   0.841   2.364  0.5419  0.3234  0.3945
 4211TIP3   OH234047   0.496   5.340   0.781 -0.1517  1.1703 -0.1550
 4211TIP3    H134048   0.454   5.341   0.696  0.2114  0.1015 -0.3721
 4211TIP3    H234049   0.544   5.423   0.787 -0.1063  1.2105 -1.0279
 4212TIP3   OH234050   3.161   4.965  16.862  0.0785  0.5136 -0.1711
 4212TIP3    H134051   3.095   5.016  16.814  1.7871  2.3434 -0.7006
 4212TIP3    H234052   3.175   4.888  16.808 -1.1391  0.4141 -0.3805
 4213TIP3   OH234053   6.511   1.993   6.044 -0.0590 -0.1757  0.0683
 4213TIP3    H134054   6.450   2.023   6.110  0.0768 -0.4780  0.3336
 4213TIP3    H234055   6.557   2.072   6.015 -0.8801  0.1175 -0.4550
 4214TIP3   OH234056   4.527   5.514   3.288 -0.2339  1.0326  0.2999
 4214TIP3    H134057   4.481   5.525   3.205 -0.0461 -0.5568 -0.0595
 4214TIP3    H234058   4.486   5.576   3.347 -3.2475 -0.6235  0.1506
 4215TIP3   OH234059   5.830   4.264   5.655  0.3177 -0.0718  0.4050
 4215TIP3    H134060   5.905   4.259   5.715  2.0498  0.8153 -1.5772
 4215TIP3    H234061   5.785   4.180   5.666  0.2222  0.2311  3.2723
 4216TIP3   OH234062   2.007   4.109   0.754  0.4051  0.2559 -0.1607
 4216TIP3    H134063   2.052   4.114   0.838 -0.2573 -1.1871  0.3160
 4216TIP3    H234064   1.936   4.173   0.760  0.4241  0.2314  0.3382
 4217TIP3   OH234065   4.820   4.948  12.807  0.2527 -0.0660  0.2897
 4217TIP3    H134066   4.915   4.950  12.817  0.3133  0.7773 -0.4009
 4217TIP3    H234067   4.796   5.036  12.780 -0.5630 -0.6446 -0.9689
 4218TIP3   OH234068   5.305   2.298  16.446 -0.3767  0.0697 -0.2429
 4218TIP3    H134069   5.277   2.379  16.403  0.4102  0.7791  0.5280
 4218TIP3    H234070   5.276   2.309  16.537  0.5210 -0.1115  0.0729
 4219TIP3   OH234071   3.444   5.359  15.906  0.0189  0.3334 -0.0609
 4219TIP3    H134072   3.348   5.353  15.904 -0.2904  2.8891  2.2384
 4219TIP3    H234073   3.466   5.413  15.830 -0.3947  0.2511 -0.2460
 4220TIP3   OH234074   3.126   6.447   5.517 -0.2920  0.2100  0.7357
 4220TIP3    H134075   3.181   6.369   5.513 -0.0029  0.4625 -0.2466
 4220TIP3    H234076   3.185   6.520   5.503 -0.7520  0.5393  0.4829
 4221TIP3   OH234077   0.067   6.389  14.346 -0.2057 -0.2256  0.2642
 4221TIP3    H134078   0.010   6.312  14.345  0.0430 -0.4047 -0.1175
 4221TIP3    H234079   0.012   6.460  14.314 -0.4506 -0.2335  0.6633
 4222TIP3   OH234080   5.703   1.501  11.910  0.2737 -0.2798  0.0631
 4222TIP3    H134081   5.767   1.490  11.981  0.3075 -0.9597 -0.0669
 4222TIP3    H234082   5.625   1.536  11.953  1.0464  1.5634  0.0709
 4223TIP3   OH234083   5.766   3.303   2.544 -0.7783 -0.4707 -0.4180
 4223TIP3    H134084   5.729   3.247   2.612  2.2862 -0.1367  1.7462
 4223TIP3    H234085   5.850   3.263   2.522 -0.7293  0.6178 -2.4918
 4224TIP3   OH234086   2.318   0.499   6.211 -0.5743 -0.1423  0.2112
 4224TIP3    H134087   2.399   0.502   6.262  1.6555 -0.7020 -2.9670
 4224TIP3    H234088   2.280   0.413   6.232  0.5303 -0.5621  0.5382
 4225TIP3   OH234089   5.983   3.573   0.195  0.0154 -0.2189  0.0427
 4225TIP3    H134090   6.037   3.516   0.250 -1.2151 -1.0301  0.4336
 4225TIP3    H234091   6.046   3.617   0.138  1.1530 -0.6435  0.9330
 4226TIP3   OH234092   4.432   2.573  17.174 -0.0632 -0.2664 -0.5298
 4226TIP3    H134093   4.417   2.635  17.102 -0.0702 -1.2270 -1.3711
 4226TIP3    H234094   4.457   2.491  17.131 -3.0625 -1.7932  0.3800
 4227TIP3   OH234095   2.806   0.037  17.039 -0.3175  0.5629 -0.5167
 4227TIP3    H134096   2.837  -0.048  17.072 -1.2496 -0.1444 -1.4177
 4227TIP3    H234097   2.880   0.070  16.987  0.1736  0.4647  0.1059
 4228TIP3   OH234098   1.099   2.194  15.946 -0.1595  0.1941 -0.2379
 4228TIP3    H134099   1.061   2.218  16.030 -0.4142 -0.0419 -0.2821
 4228TIP3    H234100   1.025   2.195  15.885  0.0132  0.3069 -0.4461
 4229TIP3   OH234101   0.655   4.205   4.401  0.1967 -0.1446  0.5214
 4229TIP3    H134102   0.699   4.144   4.343  3.3765  1.2802  1.2441
 4229TIP3    H234103   0.662   4.290   4.356 -0.2688  0.4112  1.4700
 4230TIP3   OH234104   4.255   3.609   3.534  1.1086 -0.0584 -0.1136
 4230TIP3    H134105   4.327   3.652   3.579  0.5494  1.0045 -0.1923
 4230TIP3    H234106   4.180   3.668   3.546 -0.1191 -1.7831  1.1416
 4231TIP3   OH234107   3.059   2.961  17.147 -0.4140 -0.4813  0.2188
 4231TIP3    H134108   2.987   2.996  17.200 -1.5516 -0.5467 -1.2128
 4231TIP3    H234109   3.091   3.037  17.098  1.1349 -0.2581  1.4930
 4232TIP3   OH234110   0.435   0.459   4.123 -0.6208  0.1650 -0.2249
 4232TIP3    H134111   0.386   0.540   4.108 -0.4661  0.4593  0.8019
 4232TIP3    H234112   0.417   0.406   4.046 -1.4298  0.8295 -0.5094
 4233TIP3   OH234113   5.575   1.468   1.962 -0.1180 -0.5930  0.6059
 4233TIP3    H134114   5.537   1.503   1.882 -1.3190 -1.1229  0.9274
 4233TIP3    H234115   5.612   1.545   2.006 -2.4709  0.3138  1.1586
 4234TIP3   OH234116   6.409   2.767  12.728  0.0891  0.6418 -0.2533
 4234TIP3    H134117   6.453   2.841  12.770  0.4233  0.5992 -0.5243
 4234TIP3    H234118   6.354   2.807  12.661  0.1526  0.6543 -0.2980
 4235TIP3   OH234119   2.804   3.620   1.849  0.0654  0.4450 -1.1904
 4235TIP3    H134120   2.852   3.538   1.857 -1.1506 -0.3119 -1.4610
 4235TIP3    H234121   2.870   3.684   1.821  1.3336 -0.0963  0.3878
 4236TIP3   OH234122   6.236   2.426   1.945  0.1685  0.0594 -0.2762
 4236TIP3    H134123   6.175   2.353   1.952  0.8435 -0.4191  0.7526
 4236TIP3    H234124   6.220   2.479   2.023  0.4199  0.4438 -0.4781
 4237TIP3   OH234125   2.155   0.490  11.399  0.0920 -0.0370  0.5014
 4237TIP3    H134126   2.092   0.449  11.340  0.2603  0.5549 -0.0996
 4237TIP3    H234127   2.235   0.439  11.388  0.1355  0.1005  0.1870
 4238TIP3   OH234128   6.087   2.338  15.597 -0.1673  0.3154  0.6791
 4238TIP3    H134129   6.182   2.347  15.598 -0.2827  1.8170  0.2263
 4238TIP3    H234130   6.064   2.324  15.505 -0.3231 -1.2118  0.9153
 4239TIP3   OH234131   3.388   5.196  10.677 -0.0388 -0.4527 -0.1010
 4239TIP3    H134132   3.330   5.156  10.612  0.7050 -1.1270 -0.3570
 4239TIP3    H234133   3.392   5.288  10.651  0.1361 -0.6839 -0.9354
 4240TIP3   OH234134   5.953   6.406  14.380 -0.1280  0.0835 -0.3348
 4240TIP3    H134135   5.880   6.369  14.430  0.3266 -0.5314 -0.1107
 4240TIP3    H234136   5.944   6.501  14.391  0.0019 -0.0358  0.9886
 4241TIP3   OH234137   1.878   3.072   1.977  0.0469 -0.5285 -0.0379
 4241TIP3    H134138   1.884   3.047   1.884  0.4505 -2.9468  0.5672
 4241TIP3    H234139   1.887   2.989   2.024 -0.1296  0.6558  2.1835
 4242TIP3   OH234140   0.328   1.560   1.264  0.4297 -0.3425  0.0198
 4242TIP3    H134141   0.254   1.538   1.208 -0.1251  0.0205  0.5947
 4242TIP3    H234142   0.371   1.476   1.281 -1.5145 -1.0351  1.9883
 4243TIP3   OH234143   1.049   1.440  17.389 -0.7385 -0.6758 -0.0426
 4243TIP3    H134144   0.972   1.493  17.372  0.7385  1.4432 -0.6065
 4243TIP3    H234145   1.121   1.503  17.393  1.0045 -2.5612  0.2841
 4244TIP3   OH234146   1.221   3.596  11.437 -0.4530  0.5419 -0.7610
 4244TIP3    H134147   1.307   3.623  11.470 -1.3825  2.4239  0.2576
 4244TIP3    H234148   1.212   3.642  11.353 -1.2030  1.8508  0.0143
 4245TIP3   OH234149   4.502   1.422  16.890  0.6161  0.9016 -1.0939
 4245TIP3    H134150   4.501   1.463  16.976  0.5313  2.8863 -1.9928
 4245TIP3    H234151   4.574   1.359  16.894  1.4993  1.9412 -0.0175
 4246TIP3   OH234152   3.448   5.017  15.496 -0.4809  0.2179  0.0216
 4246TIP3    H134153   3.497   5.093  15.525  0.0739  0.5055 -1.5663
 4246TIP3    H234154   3.364   5.052  15.465  0.9805  0.7903 -3.8782
 4247TIP3   OH234155   1.849   1.817   0.239 -0.6169  0.6047 -0.4627
 4247TIP3    H134156   1.926   1.853   0.283 -1.1217  1.3493 -0.1845
 4247TIP3    H234157   1.837   1.872   0.162  0.2651 -0.6968 -1.5812
 4248TIP3   OH234158   0.505   1.253  15.598 -0.3118  0.4901 -0.1044
 4248TIP3    H134159   0.515   1.289  15.686  1.4787 -1.4442  0.5616
 4248TIP3    H234160   0.414   1.224  15.594 -0.8250  1.9000  0.5416
 4249TIP3   OH234161   1.879   5.234  15.322 -0.1003 -0.3081  0.1077
 4249TIP3    H134162   1.813   5.261  15.386  0.1299 -2.9771  1.6334
 4249TIP3    H234163   1.939   5.178  15.372  1.1588 -1.0079 -2.0598
 4250TIP3   OH234164   1.559   4.258   5.623  0.2170  0.5177  0.1082
 4250TIP3    H134165   1.528   4.324   5.686  0.6869 -0.1480  1.0631
 4250TIP3    H234166   1.577   4.307   5.543  2.0798  1.8382  1.2609
 4251TIP3   OH234167   4.753   0.874  16.896  0.5366  0.8054  0.3303
 4251TIP3    H134168   4.806   0.939  16.851 -0.2828  0.3895 -1.2904
 4251TIP3    H234169   4.667   0.879  16.854 -0.1256  0.0384  1.5195
 4252TIP3   OH234170   1.967   5.833   6.670  0.1408  1.6529 -0.4637
 4252TIP3    H134171   1.955   5.778   6.592 -0.1190  2.1355 -0.7729
 4252TIP3    H234172   1.928   5.917   6.646 -1.2332  1.3920  0.6765
 4253TIP3   OH234173   6.733   4.709   4.868 -0.3020 -0.3497 -0.1214
 4253TIP3    H134174   6.794   4.710   4.794  0.8186 -0.6164  0.7709
 4253TIP3    H234175   6.735   4.618   4.899  1.0944  0.2251  1.6786
 4254TIP3   OH234176   1.958   4.167  13.363  0.3332 -0.3918  0.2431
 4254TIP3    H134177   2.004   4.210  13.435  0.0149  1.2665 -0.5104
 4254TIP3    H234178   2.024   4.157  13.295  0.0681  0.1599 -0.0949
 4255TIP3   OH234179   4.031   1.392  11.586  0.8911 -0.2000  0.3636
 4255TIP3    H134180   4.031   1.297  11.593 -0.9376 -0.1779  1.2979
 4255TIP3    H234181   4.068   1.422  11.669 -1.0572 -0.1274  1.2744
 4256TIP3   OH234182   2.024   1.969  14.573  0.0724  0.2478  0.0319
 4256TIP3    H134183   1.941   2.013  14.590  0.8595  1.7636  0.1725
 4256TIP3    H234184   2.071   1.975  14.657  1.6026  2.4039 -0.8759
 4257TIP3   OH234185   0.549   2.571  15.265  0.4660 -0.4210 -0.4752
 4257TIP3    H134186   0.565   2.564  15.171  0.2809 -0.0241 -0.5381
 4257TIP3    H234187   0.454   2.575  15.273  0.4788 -0.5057 -0.2650
 4258TIP3   OH234188   1.021   3.373   3.078  0.0873  0.1613  0.1193
 4258TIP3    H134189   0.963   3.310   3.034  0.5172  1.0324 -1.8028
 4258TIP3    H234190   0.965   3.420   3.138 -0.4305 -1.4138  0.9340
 4259TIP3   OH234191   5.895   0.928  11.745  0.4777 -0.2970 -0.6643
 4259TIP3    H134192   5.816   0.879  11.767  0.1894  0.5822  0.2883
 4259TIP3    H234193   5.882   1.014  11.783  1.2496  0.3453 -1.7966
 4260TIP3   OH234194   5.722   4.651   3.566  0.1914  0.4744 -0.1164
 4260TIP3    H134195   5.780   4.593   3.517  0.6701  1.6609 -1.0314
 4260TIP3    H234196   5.774   4.680   3.641  0.0593 -0.0418  0.1733
 4261TIP3   OH234197   2.799   5.556  14.520 -0.0042 -0.1851  0.0788
 4261TIP3    H134198   2.775   5.647  14.542  0.2063 -0.2497  0.5886
 4261TIP3    H234199   2.716   5.509  14.521 -0.2643  0.2062 -1.2477
 4262TIP3   OH234200   5.738   5.557   5.475 -0.3153  0.7708  0.1318
 4262TIP3    H134201   5.759   5.476   5.521  1.2181  0.9376 -0.1992
 4262TIP3    H234202   5.786   5.551   5.392 -1.4069  1.3544 -0.5717
 4263TIP3   OH234203   0.389   3.180   4.154 -0.9994  0.2910 -0.4948
 4263TIP3    H134204   0.347   3.107   4.200 -0.9567  0.8001  0.3783
 4263TIP3    H234205   0.397   3.249   4.220 -2.0302  1.4920 -1.5537
 4264TIP3   OH234206   4.237   3.896   2.027  0.1591  0.0699  0.1921
 4264TIP3    H134207   4.150   3.905   1.987 -0.5073 -1.5383  1.1692
 4264TIP3    H234208   4.267   3.809   1.999  0.0476 -0.7424  2.3647
 4265TIP3   OH234209   3.652   4.335   6.227  0.2193  0.1316 -0.0576
 4265TIP3    H134210   3.611   4.293   6.303 -0.6941 -0.3626 -0.7939
 4265TIP3    H234211   3.743   4.305   6.229 -0.6389 -3.0855 -1.2659
 4266TIP3   OH234212   1.655   4.456  14.439 -0.2331  0.4277  0.4197
 4266TIP3    H134213   1.691   4.425  14.356  0.4700  0.9863  0.5089
 4266TIP3    H234214   1.709   4.415  14.505 -0.0811  0.8539  0.5672
 4267TIP3   OH234215   2.981   1.462  17.096 -0.1866  0.6883  0.6288
 4267TIP3    H134216   3.057   1.489  17.148  0.3543 -0.6907  0.6019
 4267TIP3    H234217   2.954   1.541  17.050  1.0946  1.2671  0.8249
 4268TIP3   OH234218   0.641   5.359  11.062 -0.0699  0.2970  0.6340
 4268TIP3    H134219   0.659   5.366  11.156 -0.8451 -0.9434  0.8966
 4268TIP3    H234220   0.558   5.312  11.057  0.1769 -0.0341 -0.6903
 4269TIP3   OH234221   1.892   4.122  11.741 -0.1582 -0.3081  0.2872
 4269TIP3    H134222   1.865   4.122  11.833 -1.4347  1.1413 -0.0423
 4269TIP3    H234223   1.860   4.039  11.706 -0.4503 -0.4778  0.9418
 4270TIP3   OH234224   6.738   5.993  13.767 -0.3381 -0.6111  0.0622
 4270TIP3    H134225   6.699   5.907  13.783 -1.3733 -0.0938  0.4170
 4270TIP3    H234226   6.800   6.005  13.839 -1.0215 -0.5904  0.6603
 4271TIP3   OH234227   0.156   2.100  13.951  0.0797 -0.0038  0.5383
 4271TIP3    H134228   0.206   2.068  13.876 -0.9093 -0.2646 -0.0369
 4271TIP3    H234229   0.218   2.152  14.002  0.4522  1.3305 -1.1745
 4272TIP3   OH234230   2.165   5.710  12.570 -0.2432  0.2042  0.2349
 4272TIP3    H134231   2.233   5.748  12.514 -0.2673  0.8754  0.6499
 4272TIP3    H234232   2.212   5.649  12.626 -0.0839  0.1948  0.0934
 4273TIP3   OH234233   1.978   0.391   0.465 -0.6290 -0.0215 -0.4544
 4273TIP3    H134234   1.968   0.317   0.525 -0.3127 -0.4511 -0.9270
 4273TIP3    H234235   1.895   0.393   0.416  0.1681 -1.4256 -1.9492
 4274TIP3   OH234236   6.620   0.840   3.447 -0.2620 -0.1188  0.4766
 4274TIP3    H134237   6.543   0.788   3.467 -0.7951  0.7387  0.7016
 4274TIP3    H234238   6.636   0.892   3.526  0.4298 -0.1482  0.3641
 4275TIP3   OH234239   5.269   3.836  13.525  0.0725 -0.4630  0.5063
 4275TIP3    H134240   5.287   3.763  13.585 -3.1837 -0.4749  1.6438
 4275TIP3    H234241   5.192   3.878  13.561 -0.3315  1.3140 -2.1760
 4276TIP3   OH234242   5.120   6.035  12.805  0.6869 -0.3720  0.1848
 4276TIP3    H134243   5.143   6.127  12.792  1.8774 -0.8585 -1.5519
 4276TIP3    H234244   5.134   6.019  12.898  0.5562  1.1659  0.4888
 4277TIP3   OH234245   3.974   6.462  12.349  0.2094 -0.5620  0.2836
 4277TIP3    H134246   3.939   6.415  12.273  2.5520 -0.6232 -0.8400
 4277TIP3    H234247   3.914   6.536  12.360 -1.9029 -2.1595  0.3086
 4278TIP3   OH234248   3.761   0.888   2.914  0.0988 -0.5987 -0.0440
 4278TIP3    H134249   3.832   0.946   2.885  0.1325 -0.8960 -0.5634
 4278TIP3    H234250   3.803   0.827   2.975  0.2905 -0.7658 -0.3393
 4279TIP3   OH234251   1.944   5.540   1.316  0.4232 -0.0980  0.4249
 4279TIP3    H134252   1.902   5.459   1.289 -1.6322  0.5738  1.3554
 4279TIP3    H234253   1.944   5.595   1.238  1.4374 -0.8279 -0.0984
 4280TIP3   OH234254   1.203   5.687   0.801 -0.4442  0.1845 -0.2916
 4280TIP3    H134255   1.248   5.612   0.841 -0.5071  0.5587  0.4960
 4280TIP3    H234256   1.178   5.742   0.875 -0.5543  0.9002 -0.8547
 4281TIP3   OH234257   5.236   6.743   4.430  0.2362 -0.1708  0.1043
 4281TIP3    H134258   5.273   6.679   4.369  0.7883 -0.0622  0.3169
 4281TIP3    H234259   5.166   6.696   4.474  2.2464 -1.5235  2.1217
 4282TIP3   OH234260   4.742   6.379  14.662 -0.3672 -0.3062 -0.2442
 4282TIP3    H134261   4.675   6.387  14.731 -1.5521 -3.5424 -0.8431
 4282TIP3    H234262   4.824   6.402  14.706 -1.4796  0.9638  1.3151
 4283TIP3   OH234263   4.314   1.037  12.903 -0.9085 -0.9677 -0.6311
 4283TIP3    H134264   4.291   1.118  12.950 -3.1994 -0.6743 -2.0703
 4283TIP3    H234265   4.232   0.988  12.900 -0.3547 -1.8435 -2.5927
 4284TIP3   OH234266   0.104   5.658  17.115 -0.2060  0.1245  0.3985
 4284TIP3    H134267   0.119   5.710  17.036  1.1823  0.1660  0.6572
 4284TIP3    H234268   0.074   5.573  17.082  0.7758 -0.0057 -0.2150
 4285TIP3   OH234269   1.945   5.637   1.068  0.3013  0.9482 -0.3365
 4285TIP3    H134270   1.994   5.688   1.004  1.7779  0.1996  0.1586
 4285TIP3    H234271   1.873   5.599   1.018  0.1785  2.0995 -1.0712
 4286TIP3   OH234272   0.171   2.073   1.212  0.1451 -0.2079  0.0094
 4286TIP3    H134273   0.194   2.035   1.297 -0.3005 -1.0277 -0.2329
 4286TIP3    H234274   0.248   2.056   1.157  1.2609  2.0015  0.7291
 4287TIP3   OH234275   5.115   5.231   3.231  0.1840  0.2074 -0.2967
 4287TIP3    H134276   5.203   5.259   3.205  0.3121  0.5211  0.4380
 4287TIP3    H234277   5.102   5.271   3.317 -0.9534  0.7490 -0.7035
 4288TIP3   OH234278   4.919   5.082   3.119 -0.2147  0.7229 -0.0280
 4288TIP3    H134279   4.864   5.076   3.197 -0.9475  0.0027 -0.5836
 4288TIP3    H234280   4.998   5.127   3.148  0.2154 -0.9217  1.5218
 4289TIP3   OH234281   0.656   4.426   5.060 -0.4994 -0.3568 -0.3753
 4289TIP3    H134282   0.711   4.348   5.063  1.6414  1.0776  2.4575
 4289TIP3    H234283   0.599   4.419   5.136 -0.5384  0.6307 -0.2968
 4290TIP3   OH234284   4.969   5.389  17.079 -0.1416 -0.3652 -0.1989
 4290TIP3    H134285   4.947   5.418  16.990 -2.3022 -0.6195  0.2034
 4290TIP3    H234286   5.044   5.442  17.103  2.2248 -2.0816 -3.1127
 4291TIP3   OH234287   0.805   2.229   0.403 -0.4533 -0.3792 -0.2425
 4291TIP3    H134288   0.808   2.134   0.394  1.6250 -0.2167 -2.1235
 4291TIP3    H234289   0.715   2.253   0.383 -0.8645 -1.9090 -0.3047
 4292TIP3   OH234290   2.129   1.937   4.924 -0.2016  0.4300  0.1954
 4292TIP3    H134291   2.056   1.959   4.865  0.0070 -1.6533 -0.9605
 4292TIP3    H234292   2.188   1.884   4.870  1.2791  0.5560  1.6206
 4293TIP3   OH234293   0.707   3.819  13.144 -0.6663  0.3140 -0.0691
 4293TIP3    H134294   0.789   3.821  13.192 -0.3254 -0.6607 -0.5781
 4293TIP3    H234295   0.648   3.767  13.200  0.0093 -1.6313 -1.0577
 4294TIP3   OH234296   3.170   1.499  13.894 -0.0932  0.4179 -0.0363
 4294TIP3    H134297   3.195   1.579  13.940 -1.0178  0.0731  1.1143
 4294TIP3    H234298   3.075   1.503  13.888 -0.0193  0.3451 -1.7800
 4295TIP3   OH234299   0.703   1.661   1.902  0.1444  0.1559  0.1266
 4295TIP3    H134300   0.619   1.664   1.857  1.0657  0.6240 -1.6901
 4295TIP3    H234301   0.697   1.729   1.969 -1.6348 -1.2527  1.4870
 4296TIP3   OH234302   6.451   2.633   0.797 -0.0331  0.5297  0.0974
 4296TIP3    H134303   6.432   2.633   0.703 -0.6061 -0.3325  0.1935
 4296TIP3    H234304   6.411   2.551   0.828  1.7282 -0.1224  0.7660
 4297TIP3   OH234305   5.871   4.956   0.467  0.3223  0.0124 -0.1744
 4297TIP3    H134306   5.849   4.948   0.374 -0.8200 -1.2945  0.1805
 4297TIP3    H234307   5.965   4.937   0.471  0.2705 -0.4750 -0.9974
 4298TIP3   OH234308   0.575   6.300  13.611  0.3050  0.0705 -0.3069
 4298TIP3    H134309   0.501   6.254  13.652  0.8648 -1.5967 -1.0792
 4298TIP3    H234310   0.648   6.237  13.616  1.7150  1.7021  0.5030
 4299TIP3   OH234311   1.325   3.086  11.925 -0.0558  0.4170 -0.6158
 4299TIP3    H134312   1.283   3.022  11.984  0.6633  0.3933 -0.1213
 4299TIP3    H234313   1.403   3.041  11.893  1.3003  1.5638  0.9213
 4300TIP3   OH234314   6.456   0.279  17.125 -0.0855 -0.4623  0.4972
 4300TIP3    H134315   6.503   0.271  17.208  0.0598 -0.0095  0.4597
 4300TIP3    H234316   6.363   0.272  17.149 -0.0263 -0.7412  0.6451
 4301TIP3   OH234317   3.403   0.951   3.897  0.6952  0.0108  0.2687
 4301TIP3    H134318   3.360   0.866   3.903  1.5116 -0.4778 -0.5326
 4301TIP3    H234319   3.492   0.936   3.929  1.4773  0.0563 -1.7411
 4302TIP3   OH234320   0.823   6.082  17.276 -0.0309 -0.0320  0.4493
 4302TIP3    H134321   0.849   6.122  17.359  0.1800  1.7185 -0.4143
 4302TIP3    H234322   0.763   6.145  17.236 -0.6860 -1.1617 -0.4226
 4303TIP3   OH234323   0.847   3.009  10.823 -0.1050 -0.5314  0.4609
 4303TIP3    H134324   0.853   2.915  10.807 -1.0413 -0.2141 -2.2693
 4303TIP3    H234325   0.801   3.044  10.747  2.5830  2.4842 -0.0445
 4304TIP3   OH234326   3.214   3.532  13.651 -0.0902  0.0537  0.0458
 4304TIP3    H134327   3.156   3.459  13.629 -0.8201  1.4046 -3.1150
 4304TIP3    H234328   3.293   3.517  13.599  0.0810  1.0491 -0.0043
 4305TIP3   OH234329   2.799   4.027  14.406  0.0861  0.3847  0.1629
 4305TIP3    H134330   2.705   4.032  14.427  0.6356  2.1173  2.6678
 4305TIP3    H234331   2.831   3.954  14.459  0.1233 -0.6308 -1.1823
 4306TIP3   OH234332   6.401   0.389  10.935  0.3663 -0.4065 -0.2403
 4306TIP3    H134333   6.423   0.309  10.887  0.7616 -0.5006  0.0850
 4306TIP3    H234334   6.408   0.459  10.871 -1.3431 -0.7719 -0.8806
 4307TIP3   OH234335   2.809   1.401   3.766 -0.3464 -0.0409  0.0786
 4307TIP3    H134336   2.748   1.462   3.806 -0.2107  0.7176 -0.8171
 4307TIP3    H234337   2.855   1.360   3.839  0.3780  1.7855  0.6907
 4308TIP3   OH234338   3.069   1.868   2.724 -0.2140  0.0006 -0.2254
 4308TIP3    H134339   3.149   1.905   2.685  0.2133 -1.0883 -0.3999
 4308TIP3    H234340   3.014   1.845   2.650 -0.6421  0.5909 -0.1074
 4309TIP3   OH234341   4.225   3.459  13.098 -0.4182  0.8366 -0.4169
 4309TIP3    H134342   4.304   3.437  13.148 -0.0985 -0.2029 -1.3175
 4309TIP3    H234343   4.203   3.547  13.126  0.7147  0.9217  0.3091
 4310TIP3   OH234344   0.323   2.245   5.749  0.0640  0.0890 -0.1463
 4310TIP3    H134345   0.250   2.233   5.809 -0.8018  0.7743 -1.0224
 4310TIP3    H234346   0.386   2.297   5.797  0.1653 -0.8359  0.7571
 4311TIP3   OH234347   3.496   6.390   0.012 -0.0840  0.3093 -0.3732
 4311TIP3    H134348   3.524   6.474  -0.024  3.7501 -0.9267 -0.8202
 4311TIP3    H234349   3.440   6.352  -0.056  0.4884  1.3510 -1.4735
 4312TIP3   OH234350   1.734   1.992  12.196  0.0166 -0.0927  0.2302
 4312TIP3    H134351   1.687   1.948  12.267 -1.9234  2.3357  0.6030
 4312TIP3    H234352   1.776   2.067  12.237  0.8595  0.0326 -0.8131
 4313TIP3   OH234353   2.943   3.532  16.884 -0.2755  0.0667 -0.1009
 4313TIP3    H134354   2.852   3.525  16.854  0.2381 -0.2313 -1.7000
 4313TIP3    H234355   2.979   3.604  16.832  0.0820  1.0283  1.4343
 4314TIP3   OH234356   0.070   2.520   3.829 -0.3389 -0.1191  0.1121
 4314TIP3    H134357  -0.007   2.473   3.860 -0.6262  0.3997  0.1953
 4314TIP3    H234358   0.080   2.493   3.738 -2.0444  1.6246 -0.6557
 4315TIP3   OH234359   1.025   6.520  10.963  0.6773  0.0532 -0.4663
 4315TIP3    H134360   0.941   6.536  10.919  1.0351  1.3616 -0.7198
 4315TIP3    H234361   1.089   6.519  10.893  0.9465 -0.5114 -0.2236
 4316TIP3   OH234362   6.089   1.058  12.230 -0.2043 -0.0896  0.2092
 4316TIP3    H134363   6.134   1.140  12.209  0.6076 -0.3875  0.7304
 4316TIP3    H234364   6.005   1.065  12.186  0.2467  0.6043 -0.5857
 4317TIP3   OH234365   3.506   0.979   0.562 -0.1481  0.1110  0.0782
 4317TIP3    H134366   3.524   1.057   0.510 -1.8515  1.4590  1.3824
 4317TIP3    H234367   3.512   0.906   0.501 -0.0322  1.4232 -1.5191
 4318TIP3   OH234368   6.466   0.389  11.937  0.0831 -0.2693 -0.0340
 4318TIP3    H134369   6.382   0.436  11.932  0.5010  0.3848 -2.2065
 4318TIP3    H234370   6.498   0.406  12.025 -0.1443  3.0020 -0.4493
 4319TIP3   OH234371   3.522   3.637   5.864 -0.4459  0.1323 -1.0558
 4319TIP3    H134372   3.449   3.576   5.857 -0.5208  0.0006  0.4694
 4319TIP3    H234373   3.541   3.641   5.958  0.9806  0.7853 -1.3408
 4320TIP3   OH234374   2.970   5.089  15.078  0.1576 -0.4095  0.4785
 4320TIP3    H134375   2.993   5.001  15.050 -0.7293 -0.7897  0.9244
 4320TIP3    H234376   2.972   5.141  14.997 -0.5773 -1.1085 -0.0058
 4321TIP3   OH234377   2.581   1.135  12.804 -0.0658  0.1702  0.0954
 4321TIP3    H134378   2.619   1.052  12.776 -0.4704 -0.4402  1.2734
 4321TIP3    H234379   2.655   1.187  12.836 -0.0725 -0.6367  1.4774
 4322TIP3   OH234380   2.231   6.025   3.379 -1.5320  0.2326  0.6559
 4322TIP3    H134381   2.317   6.002   3.341 -0.9728 -0.0903  2.0670
 4322TIP3    H234382   2.171   6.022   3.304 -0.3197  0.5014 -0.3782
 4323TIP3   OH234383   4.336   0.996   3.055 -0.6197 -0.1990  0.0573
 4323TIP3    H134384   4.378   1.071   3.098 -1.6350  0.4351 -0.0078
 4323TIP3    H234385   4.382   0.987   2.972  1.4717 -1.5259  1.2769
 4324TIP3   OH234386   6.164   1.011  14.147  0.3628  0.7098 -0.7834
 4324TIP3    H134387   6.075   1.044  14.160  0.4401  0.6719 -0.1567
 4324TIP3    H234388   6.214   1.087  14.117  0.4425  1.0670  0.2392
 4325TIP3   OH234389   3.557   4.782   5.376  0.5641 -0.2927 -0.7236
 4325TIP3    H134390   3.645   4.773   5.339 -0.5629 -0.1084 -3.7651
 4325TIP3    H234391   3.568   4.840   5.451  3.0365 -0.4059 -0.9177
 4326TIP3   OH234392   2.579   4.524  16.730 -1.3119 -0.0449  0.5464
 4326TIP3    H134393   2.570   4.585  16.657 -1.0234 -1.1309 -0.4283
 4326TIP3    H234394   2.506   4.463  16.719 -1.7552  0.2523  1.6637
 4327TIP3   OH234395   2.934   3.059  11.878 -0.4619  0.0391 -0.0544
 4327TIP3    H134396   2.890   3.129  11.926 -1.3378 -0.2587 -0.3894
 4327TIP3    H234397   2.867   2.990  11.872  1.0651 -1.8173  2.2926
 4328TIP3   OH234398   1.861   6.489  14.769  0.6448  0.0609  0.4686
 4328TIP3    H134399   1.897   6.466  14.683 -0.9250 -1.7655  0.2531
 4328TIP3    H234400   1.922   6.451  14.832  1.4205  0.7984  0.1841
 4329TIP3   OH234401   0.352   4.328  12.128 -0.4567 -0.0723 -0.2507
 4329TIP3    H134402   0.356   4.297  12.038 -3.0604 -0.2025 -0.4067
 4329TIP3    H234403   0.426   4.286  12.172 -0.4545 -1.8159 -1.8151
 4330TIP3   OH234404   5.754   6.496  11.380  0.0104 -0.6752  0.3035
 4330TIP3    H134405   5.665   6.523  11.360 -0.4695 -1.9313  0.6575
 4330TIP3    H234406   5.779   6.438  11.308  0.6542 -0.0934  0.0483
 4331TIP3   OH234407   2.466   4.672   5.664 -0.8020 -0.1542  0.3970
 4331TIP3    H134408   2.475   4.649   5.756 -1.0081  1.2440  0.7929
 4331TIP3    H234409   2.555   4.688   5.634 -0.8248  0.5034  0.6692
 4332TIP3   OH234410   3.871   0.162   5.083 -0.3907  0.1078 -0.2603
 4332TIP3    H134411   3.939   0.104   5.048 -0.8289 -1.7837  1.8413
 4332TIP3    H234412   3.906   0.192   5.167 -1.2220  0.9470 -0.1926
 4333TIP3   OH234413   0.692   2.642   4.813 -0.2135  0.0078  0.3110
 4333TIP3    H134414   0.650   2.721   4.848  1.1501  1.2558 -0.7091
 4333TIP3    H234415   0.745   2.674   4.740  2.2481 -1.4917  1.3252
 4334TIP3   OH234416   5.304   2.848   3.423  0.3802  0.2478  0.0468
 4334TIP3    H134417   5.367   2.841   3.352  0.5493 -0.1493  0.2331
 4334TIP3    H234418   5.350   2.894   3.493  1.5998 -2.7500  1.4116
 4335TIP3   OH234419   5.787   1.075   2.386 -0.0974 -0.6605 -0.4309
 4335TIP3    H134420   5.835   1.008   2.336  0.7071 -0.8050  0.5074
 4335TIP3    H234421   5.718   1.026   2.430  0.3695 -0.8614  0.0979
 4336TIP3   OH234422   5.510   4.091   1.832  0.0647  0.6042 -0.2988
 4336TIP3    H134423   5.530   4.125   1.745 -0.5393  1.0309 -0.2757
 4336TIP3    H234424   5.594   4.090   1.877  0.6532 -1.0181 -1.3559
 4337TIP3   OH234425   3.057   4.541   0.384 -0.1515 -0.1412 -0.2234
 4337TIP3    H134426   3.115   4.562   0.457 -1.3781 -0.2809  0.8313
 4337TIP3    H234427   2.980   4.501   0.426 -2.2353  2.5017 -1.2669
 4338TIP3   OH234428   0.374   0.297  16.795  0.4799  0.2651 -0.1344
 4338TIP3    H134429   0.348   0.322  16.883  1.1302  3.6233 -0.7795
 4338TIP3    H234430   0.445   0.233  16.808  0.4498  0.5750  1.7452
 4339TIP3   OH234431   0.422   2.863  17.129  0.3536  0.2910 -0.3519
 4339TIP3    H134432   0.346   2.913  17.160  0.6975  0.4840  0.1853
 4339TIP3    H234433   0.456   2.819  17.207 -0.1388 -1.0625 -0.8671
 4340TIP3   OH234434   2.869   6.674   2.690 -0.1965  0.0049  0.2638
 4340TIP3    H134435   2.835   6.732   2.622 -1.0633 -0.5921  0.1759
 4340TIP3    H234436   2.918   6.607   2.642 -2.6892 -1.7543 -0.0551
 4341TIP3   OH234437   2.898   0.566  13.308  0.5064 -0.1405 -0.2023
 4341TIP3    H134438   2.918   0.616  13.387 -1.7705 -1.1114  1.1008
 4341TIP3    H234439   2.806   0.586  13.291  0.8018 -0.4039 -2.3034
 4342TIP3   OH234440   4.361   3.457   2.687 -0.1002 -0.0749 -0.8559
 4342TIP3    H134441   4.431   3.504   2.643 -0.1812 -0.4625 -1.4152
 4342TIP3    H234442   4.312   3.524   2.735  1.8420 -0.0535  1.2465
 4343TIP3   OH234443   5.221   3.472   5.067  0.2316 -0.3333 -0.1980
 4343TIP3    H134444   5.279   3.396   5.066  0.8913  0.1402 -1.9260
 4343TIP3    H234445   5.135   3.437   5.090  0.7359 -1.4288  0.0601
 4344TIP3   OH234446   1.980   1.565   0.997 -0.0209 -0.0484 -0.4985
 4344TIP3    H134447   2.058   1.619   1.009  0.2543 -0.6231  0.4120
 4344TIP3    H234448   1.995   1.489   1.054 -1.5558  0.1705  0.2451
 4345TIP3   OH234449   2.876   5.743   1.413 -0.4880 -0.1876 -0.2982
 4345TIP3    H134450   2.939   5.697   1.357  1.2066 -1.4058  2.3838
 4345TIP3    H234451   2.867   5.686   1.490 -1.6837  1.9728  1.2705
 4346TIP3   OH234452   1.999   1.333  12.538  0.0354 -0.7022 -0.1201
 4346TIP3    H134453   2.064   1.385  12.491  0.1782 -0.5043  0.2924
 4346TIP3    H234454   1.919   1.342  12.486  0.2510 -0.6854 -0.4575
 4347TIP3   OH234455   4.615   1.285   3.407  0.8088  0.2025  0.5660
 4347TIP3    H134456   4.594   1.354   3.470 -2.1186  1.0045 -1.1154
 4347TIP3    H234457   4.553   1.215   3.427  1.3113 -0.4433 -0.0715
 4348TIP3   OH234458   2.278   6.381   2.459  0.7608 -0.2351  0.0722
 4348TIP3    H134459   2.332   6.447   2.502  0.6031 -0.1826  0.1892
 4348TIP3    H234460   2.258   6.318   2.528  1.7928 -0.9715 -0.2781
 4349TIP3   OH234461   0.793   5.465   4.345 -0.0987  0.1259  0.4182
 4349TIP3    H134462   0.872   5.464   4.292  0.1211  0.4269  0.7302
 4349TIP3    H234463   0.725   5.427   4.289 -0.4263  2.5319 -0.9691
 4350TIP3   OH234464   4.655   6.143   0.381 -0.6065 -0.0472  0.0709
 4350TIP3    H134465   4.565   6.166   0.402 -1.1653 -2.0508  0.0868
 4350TIP3    H234466   4.708   6.202   0.434 -1.9154  0.4306  0.8997
 4351TIP3   OH234467   5.828   0.564   5.657 -0.0854  0.7767  0.8442
 4351TIP3    H134468   5.920   0.563   5.629  0.1232  0.0186  1.5097
 4351TIP3    H234469   5.830   0.600   5.745 -0.6231  2.1972  0.3025
 4352TIP3   OH234470   2.098   3.526  16.056  0.6526  0.0914 -0.2753
 4352TIP3    H134471   2.035   3.539  15.985 -1.0387  0.5696  1.2457
 4352TIP3    H234472   2.151   3.451  16.027  0.5020  0.7051 -2.3298
 4353TIP3   OH234473   3.817   6.206   3.862 -0.1743 -0.2215  0.7312
 4353TIP3    H134474   3.779   6.150   3.930  1.1950  0.2110  1.9196
 4353TIP3    H234475   3.782   6.293   3.880 -0.5401 -0.2742  0.2866
 4354TIP3   OH234476   3.146   2.684  15.642  0.3730  0.4074 -0.1338
 4354TIP3    H134477   3.087   2.759  15.652  0.1740  0.4727 -1.6115
 4354TIP3    H234478   3.225   2.721  15.601  0.7571  0.0085  0.2261
 4355TIP3   OH234479   2.733   3.722  15.170 -0.1567 -0.0867  0.3588
 4355TIP3    H134480   2.650   3.756  15.203 -0.0421 -0.2930  0.8735
 4355TIP3    H234481   2.793   3.732  15.244  0.0269 -0.8606  0.3170
 4356TIP3   OH234482   6.331   6.561  16.751 -0.2927  0.0565 -0.0717
 4356TIP3    H134483   6.283   6.479  16.740 -0.5405 -0.0367  1.5437
 4356TIP3    H234484   6.265   6.630  16.741 -1.6286 -0.0880  5.0147
 4357TIP3   OH234485   4.875   3.439  13.940  0.4228  0.0578  0.0556
 4357TIP3    H134486   4.796   3.420  13.890 -0.5702  0.0227  1.5588
 4357TIP3    H234487   4.933   3.364  13.925 -0.4111 -0.5922  0.0385
 4358TIP3   OH234488   3.785   3.339  10.865 -0.1271  0.1841 -0.1526
 4358TIP3    H134489   3.721   3.293  10.919 -1.3453  0.1163 -1.5962
 4358TIP3    H234490   3.829   3.269  10.816  0.9494  0.2472  0.6684
 4359TIP3   OH234491   3.784   2.774   6.135 -0.3311  0.5705 -0.2317
 4359TIP3    H134492   3.700   2.788   6.178 -0.2431  0.3589  0.0092
 4359TIP3    H234493   3.791   2.845   6.071 -0.7193  0.5521 -0.2919
 4360TIP3   OH234494   6.736   5.670  14.377 -0.1017  0.4376 -0.4605
 4360TIP3    H134495   6.676   5.717  14.319 -2.2124 -0.8869  0.5188
 4360TIP3    H234496   6.698   5.682  14.464  1.1397 -0.3777  0.2178
 4361TIP3   OH234497   1.833   6.643  11.147 -0.5147  0.1874 -0.3457
 4361TIP3    H134498   1.811   6.694  11.069  2.7725  3.5279  0.6624
 4361TIP3    H234499   1.890   6.573  11.114  0.7921  1.5244 -1.0399
 4362TIP3   OH234500   1.073   3.286   0.351 -0.6410  0.5204 -0.3985
 4362TIP3    H134501   1.022   3.282   0.270 -0.8095 -0.0857 -0.2715
 4362TIP3    H234502   1.154   3.329   0.327 -0.4463 -0.1678 -1.0262
 4363TIP3   OH234503   6.682   6.655   1.018  0.3756 -0.3074  0.2676
 4363TIP3    H134504   6.588   6.651   1.005  0.1921  2.9925 -0.4088
 4363TIP3    H234505   6.716   6.694   0.937  1.9891  0.7841  1.3959
 4364TIP3   OH234506   2.509   2.879   6.548  0.4277 -0.1825 -0.0685
 4364TIP3    H134507   2.489   2.954   6.492  0.0490 -0.4877 -0.3428
 4364TIP3    H234508   2.437   2.876   6.610  1.0054  0.3516  0.6605
 4365TIP3   OH234509   0.160   5.712   3.901  0.9557  0.1567  0.4368
 4365TIP3    H134510   0.112   5.782   3.857 -0.9975 -0.7660  0.9907
 4365TIP3    H234511   0.252   5.730   3.882  0.3328  0.8406 -2.4452
 4366TIP3   OH234512   2.728   4.471   5.588  0.5431  0.0693  0.3885
 4366TIP3    H134513   2.814   4.479   5.631 -0.6808 -0.4433  3.1290
 4366TIP3    H234514   2.667   4.453   5.659 -1.6474 -1.1576 -1.6487
 4367TIP3   OH234515   5.161   3.324   1.002 -0.6297 -0.7100 -0.2207
 4367TIP3    H134516   5.201   3.245   0.965  0.2417 -0.9574  1.1949
 4367TIP3    H234517   5.184   3.393   0.940 -1.1176 -1.4858 -1.3007
 4368TIP3   OH234518   6.230   0.537  11.122 -0.2486 -0.6736  0.0845
 4368TIP3    H134519   6.146   0.546  11.077 -0.5396 -2.3140  0.2467
 4368TIP3    H234520   6.259   0.448  11.102  1.6270 -0.0501 -0.2421
 4369TIP3   OH234521   1.566   1.096   4.880 -0.0332  0.3277 -0.7955
 4369TIP3    H134522   1.509   1.037   4.831 -1.8595  0.4287  1.0589
 4369TIP3    H234523   1.523   1.182   4.873 -0.4341  0.3165  1.0044
 4370TIP3   OH234524   4.303   0.503  11.973 -0.2055  0.3516 -0.1554
 4370TIP3    H134525   4.315   0.429  11.914  2.4208  2.1085 -2.0492
 4370TIP3    H234526   4.351   0.478  12.053 -1.3591 -0.8842  0.1880
 4371TIP3   OH234527   5.030   5.272  10.469 -0.3875  0.6047  0.6225
 4371TIP3    H134528   4.939   5.296  10.457 -0.7554 -1.3726 -1.1746
 4371TIP3    H234529   5.028   5.179  10.490  1.2120  0.2492 -0.5358
 4372TIP3   OH234530   6.399   1.929  15.008 -0.1654  0.0336  0.2550
 4372TIP3    H134531   6.335   1.954  14.941 -0.6687  0.2608  0.8053
 4372TIP3    H234532   6.446   2.010  15.028 -1.1759  0.3845  1.3794
 4373TIP3   OH234533   5.806   2.641   3.777 -0.0594 -0.2058  0.3519
 4373TIP3    H134534   5.844   2.699   3.712 -0.5040 -0.5464 -0.2203
 4373TIP3    H234535   5.797   2.557   3.732  0.5628 -0.7238  1.1655
 4374TIP3   OH234536   3.266   0.135   4.588 -0.1358  0.3623  0.4506
 4374TIP3    H134537   3.348   0.085   4.589 -0.1872  0.2865  1.1892
 4374TIP3    H234538   3.201   0.077   4.627 -0.7588  0.0865 -0.9396
 4375TIP3   OH234539   5.472   0.519   3.341 -0.2023  0.3093  0.3118
 4375TIP3    H134540   5.561   0.487   3.361  0.2626  0.3072 -1.6100
 4375TIP3    H234541   5.476   0.613   3.361  0.4226  0.4281 -0.3489
 4376TIP3   OH234542   2.373   1.435  14.368 -0.0211  0.3753 -0.4593
 4376TIP3    H134543   2.389   1.428  14.462  2.0450 -0.8245 -0.8234
 4376TIP3    H234544   2.397   1.525  14.346  0.6173  0.3214 -0.0078
 4377TIP3   OH234545   3.629   5.508  11.109 -0.1202 -0.8705 -0.3394
 4377TIP3    H134546   3.680   5.505  11.028  1.8429  1.6078  0.6786
 4377TIP3    H234547   3.666   5.438  11.163 -0.6813 -1.7970 -1.1227
 4378TIP3   OH234548   4.754   1.090  14.716  0.2472  1.0318 -0.6126
 4378TIP3    H134549   4.840   1.114  14.682  1.3532 -0.0677  1.2373
 4378TIP3    H234550   4.752   1.129  14.804 -0.8434  0.4346 -0.3555
 4379TIP3   OH234551   4.572   6.441  16.842  0.1433 -0.5269 -0.1176
 4379TIP3    H134552   4.584   6.494  16.921  0.3127 -1.2318  0.3391
 4379TIP3    H234553   4.630   6.366  16.854 -1.2483 -1.6352 -0.0130
 4380TIP3   OH234554   6.010   0.177  12.281 -0.5309 -0.2622 -0.1963
 4380TIP3    H134555   6.097   0.215  12.295 -0.2170 -1.0600  0.1059
 4380TIP3    H234556   6.023   0.116  12.209 -0.1386 -2.4679  1.5978
 4381TIP3   OH234557   2.524   3.843  14.063  0.9220 -0.5436  0.2270
 4381TIP3    H134558   2.442   3.811  14.025  1.2980  0.5612 -1.6168
 4381TIP3    H234559   2.509   3.935  14.081  1.7437 -0.3274 -0.1254
 4382TIP3   OH234560   5.840   4.511  15.489  0.0720 -0.0440  0.3138
 4382TIP3    H134561   5.862   4.461  15.568 -0.3667 -0.3504  0.2476
 4382TIP3    H234562   5.745   4.520  15.493  0.2884  2.5129  1.3620
 4383TIP3   OH234563   3.385   2.162  15.121 -0.1710  0.4759 -0.0091
 4383TIP3    H134564   3.363   2.240  15.070  0.5726  0.0894 -0.9551
 4383TIP3    H234565   3.433   2.106  15.060  1.4768  0.3365  1.3389
 4384TIP3   OH234566   2.955   4.249  16.618  0.1535 -0.2864  0.3994
 4384TIP3    H134567   3.050   4.252  16.630  0.3619 -2.1025 -0.3133
 4384TIP3    H234568   2.943   4.244  16.523 -0.5488 -1.5602  0.5300
 4385TIP3   OH234569   5.047   0.162   1.083 -1.0894 -0.1146  0.1594
 4385TIP3    H134570   5.033   0.211   1.164 -2.0784 -0.9692  0.5426
 4385TIP3    H234571   5.139   0.139   1.083 -0.6633  1.4750  0.1024
 4386TIP3   OH234572   5.636   1.395   1.438  0.0290 -0.1958 -0.6801
 4386TIP3    H134573   5.702   1.351   1.492  0.8299 -0.3501 -1.7519
 4386TIP3    H234574   5.575   1.326   1.412 -0.3566 -0.1217  0.0015
 4387TIP3   OH234575   0.729   6.390  12.354  0.0284  0.1254  0.4867
 4387TIP3    H134576   0.742   6.344  12.271 -1.3512  0.9085 -0.1998
 4387TIP3    H234577   0.817   6.401  12.390  0.4696 -2.1663  0.2128
 4388TIP3   OH234578   2.236   0.927  14.254  0.3532  0.2879  0.1157
 4388TIP3    H134579   2.223   1.006  14.307  1.1282  0.3570  0.2222
 4388TIP3    H234580   2.150   0.886  14.250 -0.4027  1.8762 -1.1460
 4389TIP3   OH234581   6.379   4.975   4.995 -0.1223 -0.2784  0.2950
 4389TIP3    H134582   6.453   5.036   4.987  0.9991 -1.6327 -0.1715
 4389TIP3    H234583   6.346   4.967   4.905 -1.2967  0.8125  0.5955
 4390TIP3   OH234584   0.334   2.710  16.508  0.2836  0.1134 -0.3092
 4390TIP3    H134585   0.412   2.764  16.506  0.3902 -0.0461 -0.4838
 4390TIP3    H234586   0.282   2.741  16.434 -0.1504  0.7097  0.2323
 4391TIP3   OH234587   3.084   2.769   6.623 -0.2984  0.0477  0.2991
 4391TIP3    H134588   3.038   2.841   6.666 -1.7764 -1.7337  1.8869
 4391TIP3    H234589   3.051   2.769   6.533  0.5529  1.9684 -0.0673
 4392TIP3   OH234590   1.500   4.497  15.923 -0.0343 -0.2783 -0.6433
 4392TIP3    H134591   1.574   4.474  15.980 -1.3357 -0.2341  1.1597
 4392TIP3    H234592   1.526   4.467  15.836  2.6216  0.8726 -0.3269
 4393TIP3   OH234593   1.266   4.114   3.282 -0.1650  0.2349  0.2108
 4393TIP3    H134594   1.324   4.187   3.307  0.7875 -1.0166  1.8208
 4393TIP3    H234595   1.248   4.069   3.364  0.0200 -1.8878 -0.8578
 4394TIP3   OH234596   1.203   2.818  16.780 -0.0411  0.4344 -0.2191
 4394TIP3    H134597   1.199   2.820  16.876 -0.4847 -0.4030 -0.2153
 4394TIP3    H234598   1.240   2.732  16.759  0.9875  0.9939 -0.7851
 4395TIP3   OH234599   6.718   1.997  12.852 -0.4375 -0.1935  0.0727
 4395TIP3    H134600   6.723   1.978  12.758 -0.3440  0.3289 -0.0335
 4395TIP3    H234601   6.713   1.911  12.894  0.5274 -0.4739 -0.3469
 4396TIP3   OH234602   1.397   3.251  12.240 -0.1833  0.1368 -0.0976
 4396TIP3    H134603   1.472   3.196  12.218  0.3967  1.6831 -2.4001
 4396TIP3    H234604   1.321   3.201  12.211  0.1049 -0.5897  0.3755
 4397TIP3   OH234605   3.372   0.032   0.072  0.1592  0.3684  0.1067
 4397TIP3    H134606   3.340  -0.056   0.054 -1.4483  1.0999 -0.9944
 4397TIP3    H234607   3.356   0.045   0.166  0.7858 -0.6397  0.3594
 4398TIP3   OH234608   1.814   1.439  15.583 -0.5363  0.3925  0.2444
 4398TIP3    H134609   1.734   1.432  15.634 -0.2435  1.3656  0.8643
 4398TIP3    H234610   1.823   1.533  15.565  0.9058  0.4083  0.9228
 4399TIP3   OH234611   0.615   2.548   6.478 -0.1480  0.4619 -0.1989
 4399TIP3    H134612   0.569   2.565   6.560 -0.4267 -1.0097 -0.0344
 4399TIP3    H234613   0.554   2.578   6.410 -0.6730  0.0160  0.0729
 4400TIP3   OH234614   6.432   1.196  11.327  0.5177  0.1924 -0.1397
 4400TIP3    H134615   6.357   1.204  11.386  0.2830  0.1783 -0.4342
 4400TIP3    H234616   6.402   1.238  11.246  0.6222 -0.3391 -0.4510
 4401TIP3   OH234617   3.426   0.233   3.429 -0.1267 -0.2179  0.6614
 4401TIP3    H134618   3.359   0.205   3.367 -0.7875  2.3456  0.1085
 4401TIP3    H234619   3.488   0.283   3.376  0.1461  0.6752  1.7864
 4402TIP3   OH234620   3.066   2.618   2.755 -0.3495  0.2077 -0.0066
 4402TIP3    H134621   3.043   2.672   2.831 -3.2709 -0.2651 -0.4479
 4402TIP3    H234622   3.026   2.663   2.681 -0.0009 -0.8437 -0.8510
 4403TIP3   OH234623   4.737   0.689   4.332 -0.5116 -0.0218  0.1113
 4403TIP3    H134624   4.682   0.768   4.334 -0.7475 -0.1919  0.5230
 4403TIP3    H234625   4.810   0.709   4.390 -1.2632 -0.5887  1.3128
 4404TIP3   OH234626   5.623   1.938   2.676 -0.3164 -0.3615 -0.5242
 4404TIP3    H134627   5.561   2.007   2.651 -0.9707 -0.9134 -0.4474
 4404TIP3    H234628   5.600   1.864   2.620 -0.2572 -0.8372  0.0792
 4405TIP3   OH234629   6.274   0.669  12.134 -0.3441 -0.1615  0.0463
 4405TIP3    H134630   6.201   0.608  12.119 -0.3039 -0.1313 -0.2868
 4405TIP3    H234631   6.261   0.738  12.068  0.7965 -0.8993 -0.9749
 4406TIP3   OH234632   0.733   2.262   3.609 -0.2508 -0.1710  0.7424
 4406TIP3    H134633   0.648   2.219   3.599  0.3906 -1.3214  0.0146
 4406TIP3    H234634   0.773   2.257   3.522  0.5154  0.4675  1.0397
 4407TIP3   OH234635   0.177   2.029   5.153 -0.6111  0.2934  0.0643
 4407TIP3    H134636   0.187   2.016   5.059  0.9594 -0.2424  0.2841
 4407TIP3    H234637   0.103   1.973   5.177 -1.3015  0.7638 -0.9040
 4408TIP3   OH234638   2.014   3.578  13.349 -0.1674 -0.6654 -0.4934
 4408TIP3    H134639   2.100   3.566  13.309 -0.4875  0.2908 -1.5408
 4408TIP3    H234640   1.952   3.557  13.279 -0.8816 -3.1936  0.7592
 4409TIP3   OH234641   0.138   1.912   2.195  0.0238  0.0594 -0.1129
 4409TIP3    H134642   0.134   1.867   2.279  1.4499 -0.7404 -0.4330
 4409TIP3    H234643   0.216   1.968   2.202  0.1425  0.0016 -0.8717
 4410TIP3   OH234644   1.992   1.410  16.097 -0.5436 -0.2522 -0.1795
 4410TIP3    H134645   1.928   1.346  16.129 -2.2957  1.5912  0.2361
 4410TIP3    H234646   1.948   1.454  16.024  0.0440  1.3596  0.3872
 4411TIP3   OH234647   1.396   2.191   3.595 -0.7464 -0.0367 -0.8361
 4411TIP3    H134648   1.434   2.118   3.546 -1.0020 -0.4612 -0.4055
 4411TIP3    H234649   1.364   2.152   3.676 -0.7422  0.5826 -0.5316
 4412TIP3   OH234650   0.288   0.602  15.150 -0.7947 -0.3060 -0.0253
 4412TIP3    H134651   0.348   0.557  15.090 -2.9603 -3.2929 -0.2085
 4412TIP3    H234652   0.235   0.658  15.093  0.2681  0.5491 -0.1879
 4413TIP3   OH234653   6.199   0.072   6.910 -0.3164  0.2789 -0.6943
 4413TIP3    H134654   6.261   0.091   6.839 -0.1527  1.6211 -0.2121
 4413TIP3    H234655   6.198  -0.024   6.915 -0.1665  0.1488 -2.3526
 4414TIP3   OH234656   3.930   1.609   1.185 -0.3157 -0.0308  0.0871
 4414TIP3    H134657   3.882   1.655   1.254  1.5546 -0.7926  2.0451
 4414TIP3    H234658   4.001   1.565   1.232  1.1285 -0.5059 -2.3834
 4415TIP3   OH234659   6.469   2.630   0.210 -0.0184 -0.4301  0.4576
 4415TIP3    H134660   6.499   2.720   0.194  0.8522 -0.4168  2.0252
 4415TIP3    H234661   6.399   2.639   0.275 -1.4744 -0.7332 -0.9932
 4416TIP3   OH234662   5.103   4.209   4.273  0.4034  0.5786 -0.7990
 4416TIP3    H134663   5.098   4.279   4.338 -1.4547 -1.0394  0.9799
 4416TIP3    H234664   5.022   4.218   4.222  1.1552  0.9513 -1.9639
 4417TIP3   OH234665   4.936   0.841   4.445 -0.0699  0.0947  0.4506
 4417TIP3    H134666   4.949   0.843   4.540 -1.5994  0.8679  0.6767
 4417TIP3    H234667   4.964   0.927   4.415 -1.9850  0.8126  0.5932
 4418TIP3   OH234668   5.677   2.307   0.119 -0.0276  0.4417  0.5210
 4418TIP3    H134669   5.644   2.230   0.072  0.2582  0.4652  0.2825
 4418TIP3    H234670   5.667   2.284   0.212  1.0415 -0.3244  0.4715
 4419TIP3   OH234671   0.134   0.005   5.486  0.1566  0.5751 -0.9195
 4419TIP3    H134672   0.103   0.043   5.569  0.4529  0.4037 -0.7277
 4419TIP3    H234673   0.223   0.040   5.476  0.4414 -0.0881 -0.7272
 4420TIP3   OH234674   5.676   6.727   3.703  0.0617  0.6723  0.1054
 4420TIP3    H134675   5.610   6.667   3.668  0.4002  0.5933 -0.3988
 4420TIP3    H234676   5.756   6.707   3.655  0.4900  0.7001  0.7800
 4421TIP3   OH234677   0.079   3.495   2.331 -0.3695  0.3075  0.1066
 4421TIP3    H134678   0.099   3.442   2.408  0.2778  0.4026  0.0041
 4421TIP3    H234679   0.018   3.440   2.280  1.8316 -1.2477 -1.0005
 4422TIP3   OH234680   1.712   4.003  12.980  0.6051 -0.1464 -0.0972
 4422TIP3    H134681   1.667   4.070  13.030  2.4295  0.2824  1.0723
 4422TIP3    H234682   1.714   3.927  13.039  0.4435 -0.5303 -0.5767
 4423TIP3   OH234683   2.607   0.221   6.158 -0.5911 -0.2465 -0.7745
 4423TIP3    H134684   2.594   0.128   6.139 -0.3946 -0.6133  0.6871
 4423TIP3    H234685   2.695   0.225   6.196 -0.6177  0.5317 -0.7806
 4424TIP3   OH234686   5.442   4.353  17.301 -0.0787 -0.2097 -0.0695
 4424TIP3    H134687   5.462   4.269  17.261  0.1585  0.3917 -1.2492
 4424TIP3    H234688   5.520   4.406  17.287  0.0637 -0.0079  1.3144
 4425TIP3   OH234689   4.514   3.868  11.427 -0.4389 -0.2929  0.4960
 4425TIP3    H134690   4.453   3.827  11.366 -0.5702  0.9665 -0.2666
 4425TIP3    H234691   4.489   3.833  11.513 -0.6558 -1.6193 -0.0865
 4426TIP3   OH234692   3.598   2.044   2.309  0.2534 -0.1173 -0.1965
 4426TIP3    H134693   3.640   1.972   2.356  0.9015 -1.2673 -2.4290
 4426TIP3    H234694   3.590   2.013   2.219 -1.0670  1.9433 -0.8565
 4427TIP3   OH234695   0.473   2.685   3.953  0.1765 -0.6793 -0.1284
 4427TIP3    H134696   0.504   2.672   4.043 -3.5347  0.0100  1.4613
 4427TIP3    H234697   0.473   2.780   3.941  0.8536 -0.7793 -0.9752
 4428TIP3   OH234698   1.821   1.554  13.856 -0.3096 -0.7269  0.4107
 4428TIP3    H134699   1.856   1.518  13.774 -0.5009 -0.7228  0.3291
 4428TIP3    H234700   1.844   1.646  13.854 -2.5785 -0.1278 -0.8460
 4429TIP3   OH234701   1.304   1.086   5.228 -1.0492  0.8392 -0.7748
 4429TIP3    H134702   1.388   1.039   5.227 -1.5482 -0.1087 -3.0484
 4429TIP3    H234703   1.325   1.171   5.267  0.2240 -0.5715  1.9101
 4430TIP3   OH234704   3.530   4.072  13.131  0.2204  0.2166 -0.0184
 4430TIP3    H134705   3.506   4.019  13.055  0.0884  0.1402  0.0772
 4430TIP3    H234706   3.584   4.142  13.094  0.4902 -0.0507 -0.1262
 4431TIP3   OH234707   4.790   4.896  15.920 -0.3847  0.1178 -0.0125
 4431TIP3    H134708   4.874   4.850  15.931 -0.8702 -1.2853 -1.8160
 4431TIP3    H234709   4.750   4.892  16.007  0.7536 -0.5435  0.5072
 4432TIP3   OH234710   3.204   5.912   1.321 -0.1720 -0.2485 -0.0878
 4432TIP3    H134711   3.146   5.907   1.397 -1.1335 -0.3166 -0.8057
 4432TIP3    H234712   3.287   5.944   1.356 -0.9417  0.8688  0.8103
 4433TIP3   OH234713   4.497   4.496  12.931 -0.2449  0.4436  0.4230
 4433TIP3    H134714   4.451   4.416  12.957  1.8776 -0.9043  0.2770
 4433TIP3    H234715   4.474   4.561  12.998  0.3447 -1.1907  2.3017
 4434TIP3   OH234716   4.136   2.154   6.020  0.0378  0.3567  0.1068
 4434TIP3    H134717   4.135   2.114   6.106 -1.4272  1.6881  0.7563
 4434TIP3    H234718   4.152   2.247   6.037 -0.3177  0.6531 -1.0474
 4435TIP3   OH234719   4.616   2.534   5.485  0.4490  0.0730 -0.0002
 4435TIP3    H134720   4.537   2.486   5.511  0.7645 -1.8982 -2.3145
 4435TIP3    H234721   4.684   2.466   5.477  1.5623  1.2688 -1.0554
 4436TIP3   OH234722   0.869   6.044   1.564  0.4563 -0.5314 -0.2612
 4436TIP3    H134723   0.794   6.083   1.519 -0.5135 -0.1229  1.5947
 4436TIP3    H234724   0.945   6.092   1.531 -0.0875 -0.8787 -2.0899
 4437TIP3   OH234725   4.655   4.657   3.064 -0.1954 -0.0187  0.0447
 4437TIP3    H134726   4.680   4.571   3.029 -0.2893 -0.5726  1.2749
 4437TIP3    H234727   4.560   4.658   3.063 -0.1967  0.6881 -1.3561
 4438TIP3   OH234728   6.514   1.168  12.125 -0.5984 -0.3224  0.4051
 4438TIP3    H134729   6.564   1.105  12.176 -2.5101 -0.2672  2.5445
 4438TIP3    H234730   6.555   1.168  12.038  1.3132 -2.2304  1.2249
 4439TIP3   OH234731   2.798   3.723   1.397  0.2865  0.4082 -0.4690
 4439TIP3    H134732   2.828   3.643   1.353  0.5484 -0.2965  0.9318
 4439TIP3    H234733   2.830   3.794   1.342  0.7292 -0.4314 -1.3342
 4440TIP3   OH234734   1.169   6.490  11.401 -0.6453 -0.2863  0.3523
 4440TIP3    H134735   1.199   6.407  11.365  1.7089  0.5402  0.2113
 4440TIP3    H234736   1.106   6.524  11.337 -0.3546 -1.1721 -0.4178
 4441TIP3   OH234737   4.876   0.326  15.382 -0.0844 -0.8250 -0.5136
 4441TIP3    H134738   4.824   0.290  15.310  1.1769  0.1410 -1.9750
 4441TIP3    H234739   4.966   0.325  15.350  0.5131 -0.2348  1.0117
 4442TIP3   OH234740   5.456   0.957   4.611  0.2521  0.5013 -0.1940
 4442TIP3    H134741   5.461   1.027   4.676 -1.0612 -0.2887  0.7867
 4442TIP3    H234742   5.368   0.922   4.619 -0.1411  0.7182 -2.7968
 4443TIP3   OH234743   4.783   1.306  13.073  0.5399  0.0017  0.2729
 4443TIP3    H134744   4.871   1.308  13.112  0.6417 -0.5928  0.0781
 4443TIP3    H234745   4.798   1.323  12.980  0.5149 -0.7057  0.1344
 4444TIP3   OH234746   2.090   6.394  12.622  0.4289  0.4000 -0.2165
 4444TIP3    H134747   1.996   6.404  12.607  0.0287  0.9969  2.2385
 4444TIP3    H234748   2.131   6.446  12.553 -1.0451  0.6840 -0.9191
 4445TIP3   OH234749   2.452   1.847  13.985  0.4981  0.2245  0.0800
 4445TIP3    H134750   2.538   1.863  14.026  0.2819 -1.0046  1.0783
 4445TIP3    H234751   2.389   1.869  14.054  0.0200  0.6683 -0.4932
 4446TIP3   OH234752   5.486   6.436   2.435 -0.1261 -0.1939  0.3806
 4446TIP3    H134753   5.510   6.474   2.520 -0.6302  1.7065 -0.2810
 4446TIP3    H234754   5.569   6.406   2.399  0.4329  0.9253  0.6615
 4447TIP3   OH234755   2.895   4.184   2.349  0.0784  0.1594 -0.7592
 4447TIP3    H134756   2.915   4.266   2.303  1.6985  1.5011  2.0494
 4447TIP3    H234757   2.922   4.201   2.439 -2.0992 -2.5759  0.5344
 4448TIP3   OH234758   0.474   5.741   5.486  0.8436 -0.0132  0.2926
 4448TIP3    H134759   0.501   5.815   5.542  1.2348  0.5161 -0.5702
 4448TIP3    H234760   0.385   5.762   5.460  1.2033  0.5279 -0.5334
 4449TIP3   OH234761   5.708   3.118  15.086 -0.0347 -0.0509 -0.3281
 4449TIP3    H134762   5.695   3.028  15.118 -0.5757 -0.5006 -1.7230
 4449TIP3    H234763   5.781   3.112  15.024  0.8529  0.7586  0.6062
 4450TIP3   OH234764   2.146   4.087   3.778  0.5573  0.5159 -0.4419
 4450TIP3    H134765   2.215   4.070   3.842  0.4942  2.1897  0.1222
 4450TIP3    H234766   2.156   4.019   3.712  2.3342  0.3513 -0.0400
 4451TIP3   OH234767   2.432   6.056  12.515  0.2340  0.5753  0.0659
 4451TIP3    H134768   2.429   6.092  12.604 -1.6714  0.3184  0.1517
 4451TIP3    H234769   2.368   6.109  12.466 -1.9661 -1.9510 -0.0342
 4452TIP3   OH234770   2.129   4.693  14.465  0.2538 -0.0975 -0.4028
 4452TIP3    H134771   2.035   4.711  14.471  0.3398  0.0416  0.9854
 4452TIP3    H234772   2.158   4.738  14.386 -0.4009  1.9853  0.4865
 4453TIP3   OH234773   0.416   4.710  15.808  0.2066  0.5140 -0.2944
 4453TIP3    H134774   0.436   4.766  15.733 -1.2231  0.1113 -1.0296
 4453TIP3    H234775   0.490   4.649  15.814  1.3682  1.9010 -0.0083
 4454TIP3   OH234776   4.118   4.949  12.762  0.2583 -0.3696  0.0103
 4454TIP3    H134777   4.203   4.988  12.746 -0.4381  0.4731 -1.9460
 4454TIP3    H234778   4.136   4.855  12.772  1.3641 -0.3050 -1.1210
 4455TIP3   OH234779   5.483   6.026  12.550 -1.0122  0.2814 -0.0749
 4455TIP3    H134780   5.559   6.081  12.529  0.7185 -2.3234 -1.2387
 4455TIP3    H234781   5.415   6.055  12.490 -0.6402  2.0356  0.3083
 4456TIP3   OH234782   6.067   2.076  13.207 -0.0031  0.0002 -0.5294
 4456TIP3    H134783   5.978   2.109  13.192  0.2602  1.9510  1.6046
 4456TIP3    H234784   6.055   2.003  13.269 -0.1093  0.7890  0.4093
 4457TIP3   OH234785   0.957   2.606  15.383  0.2579 -0.5539  0.4722
 4457TIP3    H134786   0.951   2.666  15.458  0.4614  0.2085 -0.1053
 4457TIP3    H234787   0.886   2.634  15.325  1.7096  0.6141 -0.8322
 4458TIP3   OH234788   2.769   3.526   2.334 -0.4606 -0.2866  0.1783
 4458TIP3    H134789   2.819   3.571   2.267 -2.3661 -1.2143 -1.9906
 4458TIP3    H234790   2.757   3.592   2.403  1.0752  0.8709 -0.5963
 4459TIP3   OH234791   4.778   0.509   1.350  0.3351 -0.0745  0.0126
 4459TIP3    H134792   4.850   0.447   1.360  0.4354  0.2315  1.3833
 4459TIP3    H234793   4.760   0.510   1.256  1.8718 -0.4202 -0.3069
 4460TIP3   OH234794   6.387   0.782   0.621 -0.4907 -0.3490  0.1653
 4460TIP3    H134795   6.360   0.739   0.540  2.4635 -1.4739 -0.3476
 4460TIP3    H234796   6.343   0.867   0.619 -2.6092 -1.3980 -1.2355
 4461TIP3   OH234797   5.174   5.702  10.925 -0.3618 -0.2612 -0.6229
 4461TIP3    H134798   5.215   5.701  11.011 -0.7961  0.5234 -0.3943
 4461TIP3    H234799   5.156   5.795  10.909  3.5209  0.2922 -3.3584
 4462TIP3   OH234800   5.258   6.259   1.529 -0.1717  0.5572  1.0314
 4462TIP3    H134801   5.341   6.211   1.529  0.7882  1.9874 -1.5088
 4462TIP3    H234802   5.209   6.222   1.602  2.8036 -0.1390  2.8893
 4463TIP3   OH234803   2.251   2.779  13.029  0.4298 -0.1193  0.3142
 4463TIP3    H134804   2.226   2.844  12.963 -1.0301  0.6875  1.5837
 4463TIP3    H234805   2.234   2.695  12.987 -0.7437  0.3808 -0.2794
 4464TIP3   OH234806   6.285   5.527   5.075  0.1808 -0.3549  0.3132
 4464TIP3    H134807   6.269   5.612   5.117 -0.7144 -1.0851  1.5595
 4464TIP3    H234808   6.363   5.540   5.022  0.1966  1.1813  0.6631
 4465TIP3   OH234809   2.343   1.008   4.539 -0.5299 -0.3196  0.4688
 4465TIP3    H134810   2.376   0.919   4.550  0.4399  0.1476  1.4264
 4465TIP3    H234811   2.336   1.043   4.627  0.7447  1.1339  0.0360
 4466TIP3   OH234812   4.867   2.155  15.341 -0.1401 -0.4241 -0.1721
 4466TIP3    H134813   4.838   2.072  15.379  1.3046 -2.0004 -2.2817
 4466TIP3    H234814   4.835   2.222  15.401 -0.6659 -2.5446  2.0339
 4467TIP3   OH234815   6.671   4.573   0.323 -0.1636  0.0033  0.2261
 4467TIP3    H134816   6.733   4.615   0.383  0.9310 -0.0961 -0.7883
 4467TIP3    H234817   6.680   4.480   0.340 -1.6885  0.0643  1.6122
 4468TIP3   OH234818   2.679   5.466  15.267  0.4372  0.3497 -0.0418
 4468TIP3    H134819   2.723   5.382  15.273  1.2432  0.8304  1.2093
 4468TIP3    H234820   2.646   5.470  15.177  1.9665 -0.5175 -0.6760
 4469TIP3   OH234821   0.841   0.417   3.546  0.1258 -0.2096 -0.1717
 4469TIP3    H134822   0.907   0.349   3.539  0.5411  0.2710 -1.1508
 4469TIP3    H234823   0.765   0.373   3.585  0.4403 -1.1856 -0.6207
 4470TIP3   OH234824   4.089   1.931  12.801 -0.1176 -0.1942 -0.5050
 4470TIP3    H134825   4.113   1.872  12.873  0.2594  2.0824  1.3448
 4470TIP3    H234826   4.009   1.974  12.831 -0.4735  0.1537 -1.8912
 4471TIP3   OH234827   3.354   2.175  14.429 -0.3185  0.3532  0.4850
 4471TIP3    H134828   3.394   2.189  14.515 -1.9337  1.7956  1.0548
 4471TIP3    H234829   3.272   2.224  14.432 -1.3614 -1.1435 -1.2060
 4472TIP3   OH234830   3.083   4.216  12.227  0.1664  0.0473 -0.1338
 4472TIP3    H134831   3.015   4.272  12.189 -1.0073 -0.8853  0.5375
 4472TIP3    H234832   3.071   4.224  12.321 -0.2731 -1.5900 -0.0231
 4473TIP3   OH234833   5.055   2.147   3.776  0.0645 -0.0463 -0.2097
 4473TIP3    H134834   4.976   2.165   3.724 -0.3648  0.9979  0.7561
 4473TIP3    H234835   5.117   2.215   3.749 -0.3621  0.8656  1.0123
 4474TIP3   OH234836   3.742   4.801   3.709 -0.0415  0.4521 -0.4795
 4474TIP3    H134837   3.831   4.831   3.688  0.2382 -0.7034 -1.0088
 4474TIP3    H234838   3.743   4.792   3.805  1.3092 -2.1181 -0.6508
 4475TIP3   OH234839   3.506   3.468  14.401 -0.3279  0.3206 -0.1386
 4475TIP3    H134840   3.541   3.520  14.474 -0.1444 -0.3405  0.2587
 4475TIP3    H234841   3.577   3.465  14.337 -0.1577  0.1393  0.0580
 4476TIP3   OH234842   6.018   5.191   4.427 -0.6715 -0.2918  0.0164
 4476TIP3    H134843   6.036   5.278   4.462 -1.7258 -0.2987  0.5839
 4476TIP3    H234844   6.105   5.151   4.419 -0.0417  1.1980 -1.3422
 4477TIP3   OH234845   5.194   2.392   1.811 -0.1969 -0.3204 -0.3263
 4477TIP3    H134846   5.232   2.371   1.725 -0.5742 -0.9915 -0.3379
 4477TIP3    H234847   5.106   2.354   1.808 -0.6271  0.6047 -0.0452
 4478TIP3   OH234848   1.045   5.431   0.830 -0.3357  0.2841 -0.2295
 4478TIP3    H134849   0.994   5.440   0.750 -1.2015 -1.4555  0.0751
 4478TIP3    H234850   1.055   5.521   0.863 -0.2431  0.9947 -2.0752
 4479TIP3   OH234851   5.030   5.778  12.929 -0.0142  0.2806  0.3115
 4479TIP3    H134852   4.978   5.856  12.906  0.9466  1.4226  1.8163
 4479TIP3    H234853   5.083   5.761  12.851  0.2449  1.5657  0.1766
 4480TIP3   OH234854   1.743   6.371  17.089  0.0146  0.3507  0.3591
 4480TIP3    H134855   1.696   6.295  17.053 -1.5763  1.2326  0.4724
 4480TIP3    H234856   1.714   6.375  17.180 -0.1991  1.3054  0.2539
 4481TIP3   OH234857   4.210   0.153  16.369 -0.4495  0.5845  0.0629
 4481TIP3    H134858   4.198   0.159  16.274  1.8136 -0.5582 -0.3872
 4481TIP3    H234859   4.296   0.110  16.379 -1.9536 -2.2123  2.6218
 4482TIP3   OH234860   0.558   6.274   2.217  0.1200  0.0318  0.2303
 4482TIP3    H134861   0.619   6.269   2.291 -0.5812 -0.4217  0.8001
 4482TIP3    H234862   0.540   6.182   2.196  1.4209  0.1319 -1.4629
 4483TIP3   OH234863   6.358   3.137  15.579 -0.5874  0.0884  1.1138
 4483TIP3    H134864   6.310   3.148  15.497 -0.3998 -0.2855  0.9555
 4483TIP3    H234865   6.304   3.184  15.644 -1.3445 -0.6111  1.0040
 4484TIP3   OH234866   6.687   6.270  16.890  0.3021  0.6600 -0.4443
 4484TIP3    H134867   6.620   6.293  16.954  0.0355  1.5934 -1.0460
 4484TIP3    H234868   6.654   6.190  16.849 -0.8345  1.5209 -1.2639
 4485TIP3   OH234869   4.667   4.065  16.794  0.2199  0.3743 -0.2651
 4485TIP3    H134870   4.694   3.999  16.730  1.3570  2.1883 -1.7773
 4485TIP3    H234871   4.746   4.081  16.847  0.3300  1.3407 -0.6992
 4486TIP3   OH234872   1.132   3.345  11.270  0.1567  0.0225  0.0472
 4486TIP3    H134873   1.155   3.437  11.262 -0.3775  0.5334  2.9675
 4486TIP3    H234874   1.046   3.337  11.228  0.8403  0.4826 -1.4984
 4487TIP3   OH234875   4.833   5.806   4.253  0.5988  0.0183 -0.7551
 4487TIP3    H134876   4.813   5.716   4.279  0.9152 -0.0980 -0.9054
 4487TIP3    H234877   4.831   5.856   4.334  1.2974 -0.2860 -0.5476
 4488TIP3   OH234878   5.702   2.234   0.388 -0.6398 -0.0836  0.0541
 4488TIP3    H134879   5.676   2.154   0.434  0.4474 -0.7923 -0.5133
 4488TIP3    H234880   5.791   2.251   0.420 -0.4926  0.3382 -0.5733
 4489TIP3   OH234881   2.878   2.218   4.308 -0.2928 -0.8687 -0.3251
 4489TIP3    H134882   2.867   2.291   4.248  1.4358 -0.8995 -0.7376
 4489TIP3    H234883   2.858   2.254   4.395  1.8229  0.5160 -0.3316
 4490TIP3   OH234884   3.785   1.811  13.388  0.0922  0.1273  0.1986
 4490TIP3    H134885   3.807   1.742  13.325  1.7681  0.1897  0.6693
 4490TIP3    H234886   3.775   1.890  13.335 -0.4152 -0.1900 -0.1855
 4491TIP3   OH234887   4.021   1.974  14.810 -0.3561  0.4962 -0.2639
 4491TIP3    H134888   4.069   1.923  14.875 -0.8736  1.2499  0.7339
 4491TIP3    H234889   4.089   2.015  14.757  0.0814 -1.2863 -1.1840
 4492TIP3   OH234890   1.813   2.123   5.633 -0.4235 -0.0853  0.4368
 4492TIP3    H134891   1.864   2.148   5.710 -0.5315 -0.6315  0.6890
 4492TIP3    H234892   1.814   2.201   5.577 -1.1125  0.6439  1.3937
 4493TIP3   OH234893   4.443   4.954   3.856  0.7813 -0.2741  0.2802
 4493TIP3    H134894   4.471   4.989   3.771  0.4211  0.6503  0.5296
 4493TIP3    H234895   4.351   4.979   3.863  0.7177 -0.6357  0.7982
 4494TIP3   OH234896   3.168   4.885   2.535 -0.2649 -0.1420  0.0907
 4494TIP3    H134897   3.216   4.803   2.525  1.0838  0.6656 -0.3784
 4494TIP3    H234898   3.150   4.892   2.629  0.8367 -0.3160  0.3196
 4495TIP3   OH234899   1.525   6.255  12.126 -0.1533 -0.3841 -0.1793
 4495TIP3    H134900   1.441   6.227  12.090 -0.9880 -0.4184  1.6739
 4495TIP3    H234901   1.536   6.202  12.205  0.6515  1.0232  0.6893
 4496TIP3   OH234902   0.731   5.710   0.178  0.0243 -0.8435 -0.0109
 4496TIP3    H134903   0.657   5.685   0.233  0.3908 -0.2781  0.7583
 4496TIP3    H234904   0.728   5.650   0.104 -1.8322 -0.1634 -0.5314
 4497TIP3   OH234905   0.377   1.281   3.363 -0.0333 -0.0066  0.0447
 4497TIP3    H134906   0.305   1.218   3.355  1.6518 -1.8841 -1.2499
 4497TIP3    H234907   0.453   1.227   3.385  0.9153  1.9970  2.0923
 4498TIP3   OH234908   0.179   1.724   0.483 -1.1113  0.1232 -0.5204
 4498TIP3    H134909   0.115   1.661   0.450 -0.1747 -0.2512 -1.6709
 4498TIP3    H234910   0.252   1.720   0.421 -0.8264  2.0097 -0.3637
 4499TIP3   OH234911   2.724   6.236   5.276 -0.3332  0.7701 -0.3192
 4499TIP3    H134912   2.749   6.317   5.320 -0.6556  1.1379 -0.8029
 4499TIP3    H234913   2.767   6.167   5.326 -1.7181  1.0652  1.3803
 4500TIP3   OH234914   5.656   1.220   4.649  0.2537  0.0471  0.3569
 4500TIP3    H134915   5.665   1.275   4.571  0.4574  1.5861  1.4131
 4500TIP3    H234916   5.746   1.209   4.681  0.2629 -1.2763 -0.0508
 4501TIP3   OH234917   6.098   2.591  11.909  0.4178 -0.3836  0.1697
 4501TIP3    H134918   6.104   2.617  11.817  0.9107  1.3461  0.6570
 4501TIP3    H234919   6.059   2.666  11.954  0.0810 -1.2371  1.3730
 4502TIP3   OH234920   3.437   2.556  13.975 -0.4342  0.6021 -0.1897
 4502TIP3    H134921   3.409   2.645  13.996 -1.2607  0.2349  0.2959
 4502TIP3    H234922   3.512   2.568  13.917 -0.2464  1.6145  0.2409
 4503TIP3   OH234923   2.458   2.274   2.291  0.2625 -0.0521  0.0517
 4503TIP3    H134924   2.517   2.257   2.217  0.6879 -0.9298  0.5706
 4503TIP3    H234925   2.377   2.229   2.269  0.2783 -0.0419 -0.0257
 4504TIP3   OH234926   2.309   3.495   0.802  0.2709  0.6962  0.0458
 4504TIP3    H134927   2.370   3.498   0.876 -0.5752  0.4251  0.7820
 4504TIP3    H234928   2.346   3.555   0.737  1.3676  0.4550  0.4245
 4505TIP3   OH234929   0.895   2.115  11.918 -0.3367 -0.2845 -0.9359
 4505TIP3    H134930   0.848   2.055  11.976 -1.3167  2.7208  1.7106
 4505TIP3    H234931   0.848   2.110  11.835 -2.9704 -0.2384  0.4526
 4506TIP3   OH234932   2.730   6.133   3.551 -0.2050  0.2049  0.5918
 4506TIP3    H134933   2.803   6.072   3.546 -0.3059  0.0040  1.4342
 4506TIP3    H234934   2.697   6.139   3.461  1.1286  0.6592  0.1128
 4507TIP3   OH234935   1.572   3.151  16.172  0.2285 -0.1423  0.8243
 4507TIP3    H134936   1.591   3.238  16.207 -0.9472 -0.5999  2.7448
 4507TIP3    H234937   1.481   3.157  16.140  0.9059 -0.0533 -1.2301
 4508TIP3   OH234938   3.143   1.601  11.311  0.3245 -0.4173  0.1353
 4508TIP3    H134939   3.190   1.577  11.230  1.3016 -0.9078  0.8292
 4508TIP3    H234940   3.146   1.522  11.364  0.8310  0.2863  1.1791
 4509TIP3   OH234941   5.265   1.335   0.528  0.0881 -0.0283  0.3675
 4509TIP3    H134942   5.246   1.385   0.608  1.0881  0.2580  0.4436
 4509TIP3    H234943   5.221   1.384   0.459 -2.9682 -1.6336  0.9867
 4510TIP3   OH234944   3.031   2.486   2.137 -0.2468  0.2909  0.7712
 4510TIP3    H134945   3.044   2.580   2.129  0.3352  0.3686  2.2478
 4510TIP3    H234946   3.119   2.449   2.138 -0.4897 -0.3660 -0.5912
 4511TIP3   OH234947   2.228   1.003  16.721 -0.4152 -0.4617 -0.2691
 4511TIP3    H134948   2.317   1.027  16.696 -0.9860  3.4514  0.7210
 4511TIP3    H234949   2.222   1.028  16.814 -2.5129 -0.6306 -0.3122
 4512TIP3   OH234950   0.157   2.875  15.813 -0.0520  0.4848  0.0775
 4512TIP3    H134951   0.087   2.893  15.750  2.9199  2.2937 -3.0477
 4512TIP3    H234952   0.157   2.780  15.822 -1.8419  0.3209 -1.0776
 4513TIP3   OH234953   4.970   2.141   2.012  0.0283 -0.4101  0.0985
 4513TIP3    H134954   5.034   2.111   2.076  0.1774 -1.2019 -0.3958
 4513TIP3    H234955   4.890   2.154   2.063  0.1336 -1.0665  0.4478
 4514TIP3   OH234956   6.032   5.660  11.344 -0.0553 -0.3438  0.1422
 4514TIP3    H134957   6.031   5.596  11.416 -1.9592 -0.9001 -0.3197
 4514TIP3    H234958   5.975   5.622  11.278  0.8882  0.6300 -1.2823
 4515TIP3   OH234959   1.544   5.436   2.264 -0.4112  0.2563  0.6766
 4515TIP3    H134960   1.533   5.433   2.359 -1.6109  0.1763  0.5564
 4515TIP3    H234961   1.477   5.376   2.231  1.1022 -1.0413 -0.1653
 4516TIP3   OH234962   5.557   6.753  16.604 -0.7652  0.2000  0.1671
 4516TIP3    H134963   5.516   6.708  16.678 -1.8380 -0.6772 -0.9166
 4516TIP3    H234964   5.488   6.759  16.538  0.6969 -0.9299 -1.5744
 4517TIP3   OH234965   6.466   4.199   1.004  0.1011  0.4470  0.4051
 4517TIP3    H134966   6.422   4.273   1.045 -1.1157 -0.6684  1.1917
 4517TIP3    H234967   6.451   4.210   0.910  1.2633  1.9925  0.3703
 4518TIP3   OH234968   0.598   3.906   5.080 -0.5137 -0.5240 -0.1619
 4518TIP3    H134969   0.620   3.881   4.990  0.6842 -0.8818  0.2132
 4518TIP3    H234970   0.508   3.875   5.092  0.2530 -3.0660 -0.3347
 4519TIP3   OH234971   3.631   2.850  13.945  0.2244 -0.1931  0.1908
 4519TIP3    H134972   3.644   2.838  13.851  1.4361  2.0252  0.0001
 4519TIP3    H234973   3.536   2.845  13.957 -0.1340  1.4016 -1.5064
 4520TIP3   OH234974   4.140   3.378   1.471  0.0707  0.2851 -0.2796
 4520TIP3    H134975   4.059   3.408   1.430 -0.9773 -1.4623  0.3985
 4520TIP3    H234976   4.138   3.416   1.559 -0.0333  0.2276 -0.2569
 4521TIP3   OH234977   2.817   3.351   3.618  0.5196  0.2818 -0.6259
 4521TIP3    H134978   2.828   3.256   3.630  2.8999  0.7120  1.2159
 4521TIP3    H234979   2.755   3.376   3.686  2.3163  0.4467  1.0283
 4522TIP3   OH234980   2.096   4.826  13.065  0.3308  0.2484  0.3644
 4522TIP3    H134981   2.085   4.848  13.158  1.2754  0.8283  0.3429
 4522TIP3    H234982   2.089   4.731  13.063 -2.4649  0.3675  0.6372
 4523TIP3   OH234983   4.574   5.470  11.769 -0.3238  0.4079  0.4494
 4523TIP3    H134984   4.581   5.565  11.773  4.4472  0.2373  2.1398
 4523TIP3    H234985   4.605   5.447  11.681 -0.3568  0.3841  0.4444
 4524TIP3   OH234986   4.098   1.443  13.902 -0.1490  0.2297  0.1651
 4524TIP3    H134987   4.123   1.535  13.908 -0.6000  0.3253  0.8130
 4524TIP3    H234988   4.180   1.395  13.896  0.0766  0.6960 -0.4891
 4525TIP3   OH234989   4.909   5.351  12.465 -0.0429  0.2629 -0.3207
 4525TIP3    H134990   4.949   5.381  12.546  0.7337  1.9698 -1.2906
 4525TIP3    H234991   4.872   5.430  12.426 -2.8834 -0.9676 -0.3211
 4526TIP3   OH234992   5.915   5.275  12.206  0.1934 -0.3996 -0.2368
 4526TIP3    H134993   5.853   5.272  12.279  0.4487  3.3951  0.3633
 4526TIP3    H234994   5.860   5.273  12.127 -0.6913  1.7973  0.2649
 4527TIP3   OH234995   1.213   6.496  12.753  0.1735 -0.4105  0.3656
 4527TIP3    H134996   1.280   6.516  12.819  0.4566 -0.2568  0.0384
 4527TIP3    H234997   1.130   6.505  12.800  0.2689  1.6571  0.2391
 4528TIP3   OH234998   3.989   0.035   2.209 -0.1429 -0.3101  0.6284
 4528TIP3    H134999   3.920  -0.028   2.230  1.7118 -2.5854  0.2579
 4528TIP3    H235000   4.025   0.060   2.294 -2.5241  2.3939  0.9967
 4529TIP3   OH235001   2.084   5.938  17.057 -0.0963 -0.0788  0.0352
 4529TIP3    H135002   2.179   5.931  17.071  0.0790  0.9645 -0.5103
 4529TIP3    H235003   2.064   6.029  17.078 -1.0402 -0.3865  0.4763
 4530TIP3   OH235004   1.033   2.418  12.602 -0.0587 -0.1843  0.0264
 4530TIP3    H135005   1.029   2.346  12.538  1.0012 -0.2377  0.0082
 4530TIP3    H235006   0.970   2.392  12.670 -1.5184  0.0673 -1.1638
 4531TIP3   OH235007   2.243   5.079  13.879 -0.6175 -0.0692  0.2512
 4531TIP3    H135008   2.332   5.114  13.892 -1.2310  3.3480 -2.9052
 4531TIP3    H235009   2.195   5.104  13.958  0.7354 -0.2184  1.1501
 4532TIP3   OH235010   3.589   5.058  17.270  0.6120 -0.4304 -0.2453
 4532TIP3    H135011   3.685   5.058  17.266  0.6689 -0.8916  0.8882
 4532TIP3    H235012   3.567   4.973  17.307 -0.2041 -0.0261  0.2131
 4533TIP3   OH235013   4.043   4.513  17.105 -0.1548 -0.2548  0.0906
 4533TIP3    H135014   4.135   4.487  17.099  0.3968  1.7985 -1.7347
 4533TIP3    H235015   4.029   4.531  17.198  0.9101 -1.7739  0.5794
 4534TIP3   OH235016   0.663   3.379  12.305 -0.2480  0.3791  0.1101
 4534TIP3    H135017   0.627   3.291  12.317 -1.4739  1.1030  2.2752
 4534TIP3    H235018   0.746   3.377  12.354  0.9851 -0.2166 -1.8714
 4535TIP3   OH235019   1.174   0.336  16.673  0.2274 -0.1309  0.4608
 4535TIP3    H135020   1.112   0.353  16.744  1.0586  2.2089  0.7190
 4535TIP3    H235021   1.140   0.387  16.599  0.7491 -0.4927 -0.0341
 4536TIP3   OH235022   0.804   1.484   1.556 -0.3422 -0.3301 -0.1521
 4536TIP3    H135023   0.794   1.415   1.621 -2.8241  0.4255  0.3823
 4536TIP3    H235024   0.823   1.438   1.474  0.7261 -1.4234  0.6812
 4537TIP3   OH235025   0.537   5.801   1.351 -0.0636  0.0518  0.3496
 4537TIP3    H135026   0.564   5.803   1.442  1.6237 -0.1933 -0.1093
 4537TIP3    H235027   0.515   5.892   1.330  1.5731  0.4919  0.4464
 4538TIP3   OH235028   6.731   0.152  12.376 -0.6919 -0.5041  0.6130
 4538TIP3    H135029   6.640   0.133  12.354 -1.0994 -0.0876  1.8648
 4538TIP3    H235030   6.764   0.202  12.300 -1.7021 -0.0963  0.4288
 4539TIP3   OH235031   2.769   2.506   0.143 -0.0858  0.6346 -0.0549
 4539TIP3    H135032   2.799   2.439   0.081 -0.5999 -0.5356  0.9275
 4539TIP3    H235033   2.689   2.541   0.104 -0.3087  0.0348 -0.1436
 4540TIP3   OH235034   5.152   4.045  14.707  0.1615 -0.4247 -0.3487
 4540TIP3    H135035   5.103   3.988  14.767 -0.2159  0.3614  0.1055
 4540TIP3    H235036   5.230   4.071  14.756  1.0195 -1.5864 -1.0340
 4541TIP3   OH235037   4.097   3.867   0.352 -0.0944  0.0790 -0.6793
 4541TIP3    H135038   4.044   3.795   0.317  0.8120 -0.2800 -1.3321
 4541TIP3    H235039   4.094   3.854   0.447 -0.7312 -0.2525 -0.7343
 4542TIP3   OH235040   3.753   3.464   4.849 -0.4701 -0.6233  0.4008
 4542TIP3    H135041   3.723   3.506   4.768 -0.9103 -0.4992  0.6241
 4542TIP3    H235042   3.845   3.488   4.855  0.2635 -2.7008 -1.3557
 4543TIP3   OH235043   3.910   6.636  12.644 -0.0633  0.8984 -0.0018
 4543TIP3    H135044   3.828   6.591  12.662 -0.4485  1.8437  0.7183
 4543TIP3    H235045   3.975   6.592  12.700  0.2035 -0.5968 -1.4073
 4544TIP3   OH235046   1.946   2.576  16.135  0.3233 -0.1629  0.2275
 4544TIP3    H135047   1.991   2.496  16.109  1.2144  0.3564  0.1429
 4544TIP3    H235048   1.972   2.641  16.070  0.4648  0.4679  0.8975
 4545TIP3   OH235049   4.479   5.593  13.288  0.4668 -0.3368  0.4017
 4545TIP3    H135050   4.480   5.545  13.205 -0.5910  0.2215  0.0481
 4545TIP3    H235051   4.468   5.525  13.354  1.5710 -0.8121  0.1206
 4546TIP3   OH235052   3.580   0.566  14.592  0.4462 -0.3462 -0.5035
 4546TIP3    H135053   3.570   0.652  14.632  1.6351 -0.4199  0.0022
 4546TIP3    H235054   3.527   0.570  14.512  1.4302  1.2746 -1.1176
 4547TIP3   OH235055   6.310   4.804   5.522 -0.0225 -0.0956  0.2883
 4547TIP3    H135056   6.350   4.890   5.513  0.7501 -0.4296  0.5012
 4547TIP3    H235057   6.220   4.823   5.548  0.4212  0.6305  1.3733
 4548TIP3   OH235058   5.830   4.239   2.391 -0.1377  0.3234 -0.7239
 4548TIP3    H135059   5.793   4.327   2.393  0.4804  0.5769  0.3693
 4548TIP3    H235060   5.859   4.227   2.300 -1.6847  0.6045 -1.2848
 4549TIP3   OH235061   6.554   6.432   1.518  0.6274  0.1609  0.0503
 4549TIP3    H135062   6.543   6.337   1.513  0.0813  0.1932  0.6046
 4549TIP3    H235063   6.582   6.457   1.429  0.4495 -0.4701 -0.1885
 4550TIP3   OH235064   3.095   5.941  14.202  0.3589 -0.1525 -0.6964
 4550TIP3    H135065   3.130   5.988  14.277  1.3148 -1.9074  0.0082
 4550TIP3    H235066   3.025   5.998  14.169  0.4076  1.0011  1.0472
 4551TIP3   OH235067   2.542   1.308   1.262 -1.0183 -0.0825  0.2011
 4551TIP3    H135068   2.516   1.399   1.269 -0.3676  0.0115  1.8431
 4551TIP3    H235069   2.595   1.304   1.182 -0.4943  1.1292  0.4698
 4552TIP3   OH235070   4.167   6.074   2.271  0.4224  0.0839 -0.2259
 4552TIP3    H135071   4.251   6.119   2.268  0.3133  0.2695 -0.5291
 4552TIP3    H235072   4.117   6.111   2.198 -0.1386  0.3997  0.3049
 4553TIP3   OH235073   3.541   1.967  15.002 -0.8751  0.6056  0.1293
 4553TIP3    H135074   3.627   1.930  14.981 -0.8345  1.7643 -1.9485
 4553TIP3    H235075   3.484   1.936  14.932 -1.5335  2.0446  0.0076
 4554TIP3   OH235076   5.196   4.970  16.090  0.1796 -0.0812  0.3682
 4554TIP3    H135077   5.289   4.988  16.102  0.2383 -0.5539  0.6443
 4554TIP3    H235078   5.182   4.977  15.995  1.0080 -2.3172  0.0059
 4555TIP3   OH235079   5.366   3.257   2.256  0.5483  0.5357  0.1203
 4555TIP3    H135080   5.396   3.172   2.224  0.8250  0.4586  0.5870
 4555TIP3    H235081   5.384   3.317   2.184  1.5442  0.4406  0.2844
 4556TIP3   OH235082   3.221   2.783   3.768  0.2735 -0.3949 -0.6912
 4556TIP3    H135083   3.224   2.855   3.704  2.4277  0.6490  0.4608
 4556TIP3    H235084   3.135   2.791   3.809  0.1953  1.1169 -1.0701
 4557TIP3   OH235085   3.529   0.477   4.830 -0.4327 -0.1108  0.3175
 4557TIP3    H135086   3.542   0.404   4.769  0.0625  0.0147  0.2704
 4557TIP3    H235087   3.579   0.451   4.908  1.5323  1.1163 -0.4619
 4558TIP3   OH235088   1.118   2.506   0.984 -0.1784  0.0518  0.0437
 4558TIP3    H135089   1.197   2.509   1.037 -1.0492 -0.4977  1.4164
 4558TIP3    H235090   1.130   2.432   0.925  0.7285  0.5711 -0.4446
 4559TIP3   OH235091   4.810   4.547   3.885  0.0202  0.6803 -0.0016
 4559TIP3    H135092   4.864   4.574   3.811 -0.2956  0.5432 -0.2820
 4559TIP3    H235093   4.787   4.456   3.866  2.9445 -0.6672  1.9892
 4560TIP3   OH235094   6.394   0.147   3.040  0.3008 -0.3599  0.7589
 4560TIP3    H135095   6.404   0.195   3.122  2.9266  0.3579  0.1041
 4560TIP3    H235096   6.345   0.069   3.065 -2.1908  1.5070  2.2659
 4561TIP3   OH235097   6.370   6.510   5.710  0.3192  0.5023 -0.4408
 4561TIP3    H135098   6.327   6.440   5.661  0.1784  1.0531 -1.1370
 4561TIP3    H235099   6.413   6.466   5.782 -1.4794 -0.0761  0.3502
 4562TIP3   OH235100   1.164   2.334  14.670  0.0960  0.2171  0.0102
 4562TIP3    H135101   1.220   2.301  14.740 -0.7506  2.0901  1.6508
 4562TIP3    H235102   1.076   2.335  14.708 -0.5559  0.3412 -1.4332
 4563TIP3   OH235103   3.591   1.928  15.940 -0.1712  0.2489 -0.7961
 4563TIP3    H135104   3.542   1.845  15.937  0.9524 -0.5628  1.2242
 4563TIP3    H235105   3.524   1.994  15.957 -1.0319 -0.2749 -1.9604
 4564TIP3   OH235106   2.968   3.654   0.428 -0.4390 -0.2341  0.1302
 4564TIP3    H135107   3.026   3.680   0.500 -1.6377  0.8433  0.7394
 4564TIP3    H235108   3.007   3.694   0.351 -0.0310 -0.0334  0.4351
 4565TIP3   OH235109   0.278   3.532   0.657 -0.1505 -0.4413 -0.3219
 4565TIP3    H135110   0.263   3.503   0.567 -1.8615  0.7376 -0.4514
 4565TIP3    H235111   0.225   3.474   0.710 -1.0195  0.3506 -0.3028
 4566TIP3   OH235112   5.206   3.940   0.381  0.3430  0.0035 -0.0375
 4566TIP3    H135113   5.284   3.951   0.434  0.6253  0.2014 -0.4874
 4566TIP3    H235114   5.226   3.868   0.322 -0.2147 -0.6566  0.5532
 4567TIP3   OH235115   4.426   1.196   0.374 -0.3393  0.0348 -0.0564
 4567TIP3    H135116   4.372   1.269   0.405 -1.0841 -0.1736 -0.8184
 4567TIP3    H235117   4.443   1.216   0.282  1.5350  0.4683  0.3426
 4568TIP3   OH235118   3.513   3.305   5.752 -0.4409  0.4390 -0.0786
 4568TIP3    H135119   3.564   3.365   5.699 -1.1947 -0.1050 -1.4605
 4568TIP3    H235120   3.572   3.278   5.822  0.2163  2.0015 -0.0166
 4569TIP3   OH235121   5.950   2.753  14.582  0.0551 -0.3473  0.5709
 4569TIP3    H135122   5.978   2.752  14.674 -0.9209 -1.1179  0.8778
 4569TIP3    H235123   6.028   2.781  14.534  0.6081 -0.0203  1.6228
 4570TIP3   OH235124   0.215   2.749  13.693 -0.1090  0.1463 -0.1196
 4570TIP3    H135125   0.153   2.783  13.628  0.5255  0.7011 -0.4524
 4570TIP3    H235126   0.301   2.773  13.658  0.2882 -0.5364  0.3766
 4571TIP3   OH235127   2.496   1.785   3.070 -0.1476  0.0907  0.0261
 4571TIP3    H135128   2.431   1.855   3.062  1.1821  1.3219 -0.6414
 4571TIP3    H235129   2.466   1.732   3.144 -3.1203 -0.7695 -1.6428
 4572TIP3   OH235130   2.175   4.220   0.975 -0.3995 -0.5178 -0.0563
 4572TIP3    H135131   2.106   4.266   1.023  0.5146 -0.9239  1.7460
 4572TIP3    H235132   2.206   4.283   0.910 -1.1553  0.3508  0.4084
 4573TIP3   OH235133   6.274   1.975   5.268  0.3333 -0.2866  0.0684
 4573TIP3    H135134   6.241   2.064   5.276 -0.4993 -0.6310  0.5427
 4573TIP3    H235135   6.278   1.943   5.358 -0.3674 -1.0786 -0.1729
 4574TIP3   OH235136   5.797   3.592  15.004 -0.3915 -0.4028 -0.3657
 4574TIP3    H135137   5.790   3.532  15.078  0.3736  1.9961  1.8381
 4574TIP3    H235138   5.866   3.555  14.949 -0.1810 -1.6974  0.7252
 4575TIP3   OH235139   5.346   0.547   6.061  0.5345  0.2713 -0.0031
 4575TIP3    H135140   5.283   0.544   6.133  0.7145 -0.1884  0.1392
 4575TIP3    H235141   5.410   0.613   6.088  0.8929 -0.2668  0.5107
 4576TIP3   OH235142   4.272   1.244  17.097 -0.3729 -0.5011 -0.3068
 4576TIP3    H135143   4.329   1.239  17.174 -0.2522 -1.8057 -0.4540
 4576TIP3    H235144   4.230   1.330  17.103  0.8841  0.0980  0.3178
 4577TIP3   OH235145   5.151   3.966  16.120  0.6969  0.0334  0.4803
 4577TIP3    H135146   5.170   4.041  16.064 -1.2402  1.6767  1.8664
 4577TIP3    H235147   5.057   3.949  16.106  0.5393 -0.5257  2.0154
 4578TIP3   OH235148   3.905   6.378   2.951  0.4801 -0.3527  0.0821
 4578TIP3    H135149   3.887   6.297   2.903 -1.2978 -0.2260  0.4917
 4578TIP3    H235150   3.988   6.408   2.914  0.2398 -1.3708 -1.4207
 4579TIP3   OH235151   6.679   0.305  13.190  0.4142  0.2070 -0.0597
 4579TIP3    H135152   6.665   0.329  13.098  0.4724  0.0598 -0.1070
 4579TIP3    H235153   6.698   0.211  13.188  0.0027  0.1152  0.1444
 4580TIP3   OH235154   1.005   2.757  11.602 -0.2132  0.4014 -0.1816
 4580TIP3    H135155   1.072   2.824  11.619  1.0218 -1.2247  1.6893
 4580TIP3    H235156   1.054   2.676  11.589 -1.7951 -0.6934  0.3823
 4581TIP3   OH235157   6.650   3.980  17.164 -0.5803 -0.1465 -0.1412
 4581TIP3    H135158   6.587   3.957  17.095 -1.9762 -0.2550  1.1090
 4581TIP3    H235159   6.713   3.908  17.164 -1.4396 -0.9164 -0.3012
 4582TIP3   OH235160   3.495   2.845  17.248 -0.6590 -0.5383 -0.4386
 4582TIP3    H135161   3.463   2.780  17.311 -0.0973  0.1816  0.6098
 4582TIP3    H235162   3.590   2.845  17.259 -0.5490 -0.4281 -1.3220
 4583TIP3   OH235163   2.941   6.468  15.818  0.8320  0.1616 -0.0667
 4583TIP3    H135164   2.986   6.428  15.893  0.2786  1.2381  0.8725
 4583TIP3    H235165   2.848   6.460  15.839  0.6841  0.9374 -0.3930
 4584TIP3   OH235166   4.827   5.260   2.421  0.1574 -0.5738 -0.1391
 4584TIP3    H135167   4.788   5.343   2.396 -0.9431 -0.5325  1.5781
 4584TIP3    H235168   4.765   5.194   2.390 -0.4061 -0.5986  1.0180
 4585TIP3   OH235169   4.479   0.560   5.324  0.1556  0.0713 -0.9394
 4585TIP3    H135170   4.509   0.512   5.247 -1.3022 -0.3744 -1.2608
 4585TIP3    H235171   4.405   0.612   5.293  1.2622  2.0537 -0.4410
 4586TIP3   OH235172   2.949   2.790  11.773  0.3136  0.1062 -0.4763
 4586TIP3    H135173   2.922   2.712  11.724 -0.7857 -0.2538  0.6560
 4586TIP3    H235174   2.963   2.857  11.706 -0.6754 -0.5019 -1.3245
 4587TIP3   OH235175   1.935   2.084   0.863  0.2555 -0.3978 -0.1084
 4587TIP3    H135176   1.850   2.126   0.850  1.5452  1.7541 -2.3327
 4587TIP3    H235177   1.914   1.996   0.894 -2.7175  0.3612  0.3062
 4588TIP3   OH235178   2.278   3.204  12.686 -0.3236  0.0321 -0.1849
 4588TIP3    H135179   2.361   3.191  12.640  0.6681 -0.5595  1.6657
 4588TIP3    H235180   2.265   3.122  12.734 -1.1680  0.7168  0.7748
 4589TIP3   OH235181   2.982   0.435   0.489 -0.2280  0.1151  0.1784
 4589TIP3    H135182   2.914   0.368   0.488 -0.0216 -0.1130  0.6462
 4589TIP3    H235183   2.934   0.518   0.489 -0.4782 -0.0121 -0.9430
 4590TIP3   OH235184   0.489   0.351   5.180  0.1222  0.0954 -0.0264
 4590TIP3    H135185   0.428   0.379   5.248 -0.6011  2.5742 -1.5599
 4590TIP3    H235186   0.574   0.347   5.224 -0.6608 -0.5188  1.4884
 4591TIP3   OH235187   0.769   3.578  16.460 -0.8928  0.1510 -0.0483
 4591TIP3    H135188   0.844   3.522  16.438 -0.2240  1.4453 -1.2017
 4591TIP3    H235189   0.808   3.656  16.499 -1.7082  0.4176  0.2443
 4592TIP3   OH235190   3.169   6.477  16.432  0.0782  0.1076 -0.1773
 4592TIP3    H135191   3.080   6.441  16.427 -0.0287  0.1674  0.9230
 4592TIP3    H235192   3.213   6.444  16.355  0.3594 -3.4697  1.3239
 4593TIP3   OH235193   2.107   4.228  16.006 -0.4515 -0.1232  0.3439
 4593TIP3    H135194   2.025   4.278  16.009 -0.1050  0.3774  2.4624
 4593TIP3    H235195   2.080   4.138  16.022 -0.4351  0.3645  3.9905
 4594TIP3   OH235196   5.121   1.527  12.817  0.0408  0.2605  0.0513
 4594TIP3    H135197   5.069   1.452  12.787  0.1394  0.1353  0.1908
 4594TIP3    H235198   5.156   1.499  12.902 -0.5179  0.7480  0.4447
 4595TIP3   OH235199   5.737   4.338  16.885 -0.0544  0.2527 -0.1155
 4595TIP3    H135200   5.755   4.431  16.894 -0.0021  0.6394 -3.0893
 4595TIP3    H235201   5.654   4.334  16.837 -0.9126 -1.2923  1.4037
 4596TIP3   OH235202   2.270   4.793   2.278 -1.0255  0.3131 -0.0694
 4596TIP3    H135203   2.224   4.719   2.240  1.0458 -0.6953 -0.7526
 4596TIP3    H235204   2.306   4.759   2.360  0.1217  0.4679 -0.4915
 4597TIP3   OH235205   1.976   0.824  12.445  0.2270 -0.7718  0.4749
 4597TIP3    H135206   1.965   0.766  12.369  0.4007  0.9277 -0.9219
 4597TIP3    H235207   2.009   0.905  12.407  0.2522  0.1519  2.4033
 4598TIP3   OH235208   2.462   3.871   0.175  0.1743 -0.1738  0.2598
 4598TIP3    H135209   2.499   3.854   0.088 -1.1320  1.0537 -0.6020
 4598TIP3    H235210   2.490   3.961   0.195 -0.2096 -0.1546  0.7225
 4599TIP3   OH235211   4.936   0.502   3.252 -0.1196 -0.3967 -0.2085
 4599TIP3    H135212   5.004   0.437   3.232  0.1933  0.0145 -0.4749
 4599TIP3    H235213   4.963   0.581   3.206 -2.1258 -0.9492 -2.5096
 4600TIP3   OH235214   4.184   2.702   0.849 -0.1975  0.2754 -0.6286
 4600TIP3    H135215   4.125   2.758   0.799 -0.4734 -0.0554 -0.6795
 4600TIP3    H235216   4.216   2.758   0.920 -0.4002  0.5221 -0.7296
 4601TIP3   OH235217   2.818   5.218   0.162 -0.0110  0.1696  0.3557
 4601TIP3    H135218   2.900   5.245   0.204 -0.6699  0.8995  1.2077
 4601TIP3    H235219   2.779   5.157   0.225  0.0304 -0.4491 -0.2071
 4602TIP3   OH235220   1.087   0.328  12.090 -0.7156  0.5056  1.0904
 4602TIP3    H135221   1.104   0.254  12.148  0.9477 -0.0292 -0.0241
 4602TIP3    H235222   1.135   0.401  12.128 -1.3342  0.7096  1.5009
 4603TIP3   OH235223   0.618   4.859   4.176  0.3999 -0.4632  0.1670
 4603TIP3    H135224   0.700   4.866   4.225  0.1136 -0.2868  0.6329
 4603TIP3    H235225   0.601   4.765   4.169 -0.4705 -0.4904  1.9947
 4604TIP3   OH235226   1.050   3.794   3.770 -0.1761 -0.1552  0.4643
 4604TIP3    H135227   0.974   3.736   3.773  0.0643 -0.8810 -3.0211
 4604TIP3    H235228   1.125   3.737   3.790 -0.2482 -0.1668  0.7087
 4605TIP3   OH235229   1.596   2.400   4.653  0.4080 -0.0889 -0.0246
 4605TIP3    H135230   1.636   2.487   4.653  0.7229 -0.2154 -0.9017
 4605TIP3    H235231   1.663   2.343   4.690  0.4635 -0.0622 -0.0830
 4606TIP3   OH235232   5.079   6.738  11.799  0.8338 -0.2632 -0.1645
 4606TIP3    H135233   5.003   6.795  11.787  1.5383  0.8410  0.4828
 4606TIP3    H235234   5.079   6.681  11.722  0.3280  0.8737 -1.0224
 4607TIP3   OH235235   3.916   5.728  12.725  0.2277 -0.2382  0.1355
 4607TIP3    H135236   3.920   5.724  12.820 -2.5481 -1.1262  0.2968
 4607TIP3    H235237   3.881   5.643  12.698 -1.3984  0.8636 -1.4632
 4608TIP3   OH235238   6.168   6.568   4.165  0.3066 -0.1846 -0.0664
 4608TIP3    H135239   6.078   6.568   4.131 -0.3879  2.6137  1.5096
 4608TIP3    H235240   6.161   6.527   4.251  0.9050 -1.4900 -0.6112
 4609TIP3   OH235241   3.754   1.445  13.622  0.0867 -0.8200  0.0330
 4609TIP3    H135242   3.840   1.416  13.594 -0.1762 -1.2320 -0.3578
 4609TIP3    H235243   3.771   1.521  13.678  0.7115 -1.0436  0.1497
 4610TIP3   OH235244   1.133   4.382  12.571  0.3769 -0.3479 -0.7063
 4610TIP3    H135245   1.183   4.460  12.547  1.3416 -0.4605  0.8157
 4610TIP3    H235246   1.182   4.310  12.532  1.4718 -0.4571  0.7699
 4611TIP3   OH235247   4.689   6.203  14.472  0.4264  0.4291  0.6050
 4611TIP3    H135248   4.707   6.241  14.558 -0.3264  0.1276  0.9084
 4611TIP3    H235249   4.748   6.249  14.412 -0.3964  2.0419  0.9692
 4612TIP3   OH235250   5.199   2.683   1.705  0.1116 -0.0972 -0.8003
 4612TIP3    H135251   5.172   2.692   1.796 -0.6355  1.7678 -1.1664
 4612TIP3    H235252   5.196   2.588   1.688 -1.1840 -0.3564  0.6756
 4613TIP3   OH235253   5.714   0.855   2.868  0.2767 -0.2890 -0.1376
 4613TIP3    H135254   5.693   0.901   2.787 -1.5061 -0.3012  0.2886
 4613TIP3    H235255   5.798   0.891   2.895  0.1512  0.8272 -1.1749
 4614TIP3   OH235256   0.798   5.704   1.404 -0.3270 -0.2561 -0.3588
 4614TIP3    H135257   0.825   5.614   1.420 -1.3744 -0.9926 -2.4440
 4614TIP3    H235258   0.723   5.697   1.345 -0.6773  1.9749 -0.2731
 4615TIP3   OH235259   5.473   5.484   4.146 -0.5325 -0.5593  0.0506
 4615TIP3    H135260   5.433   5.398   4.161  0.3667 -1.0494 -0.2800
 4615TIP3    H235261   5.431   5.542   4.210 -0.6818 -1.3891  0.7191
 4616TIP3   OH235262   0.509   0.329  14.741 -0.3714  0.1470  0.1418
 4616TIP3    H135263   0.601   0.319  14.716  0.0638 -1.7288  2.1009
 4616TIP3    H235264   0.462   0.266  14.687 -0.5619  1.2321 -0.9854
 4617TIP3   OH235265   1.569   3.262   4.011 -0.0718 -0.1578  0.3949
 4617TIP3    H135266   1.520   3.336   4.049  0.8378  0.7638 -0.1792
 4617TIP3    H235267   1.517   3.235   3.936  0.8016  1.5300 -0.8676
 4618TIP3   OH235268   4.262   1.019  16.069 -0.3925 -0.6056 -0.0854
 4618TIP3    H135269   4.191   1.069  16.028  0.4054  1.7767  1.2278
 4618TIP3    H235270   4.222   0.979  16.147 -0.6139 -0.4322 -0.1099
 4619TIP3   OH235271   6.316   2.117  15.592  0.1728  0.1059 -0.3118
 4619TIP3    H135272   6.222   2.114  15.573  0.3827 -0.3668 -1.3617
 4619TIP3    H235273   6.324   2.081  15.680 -0.5015 -1.1959 -0.7569
 4620TIP3   OH235274   1.412   4.029  14.390  0.4030 -0.3212 -0.2565
 4620TIP3    H135275   1.326   4.029  14.349 -0.3047 -0.4300  1.1546
 4620TIP3    H235276   1.439   4.121  14.388 -0.6603  0.0519  1.0558
 4621TIP3   OH235277   2.145   1.740   0.348 -0.5863  0.2171 -0.0106
 4621TIP3    H135278   2.132   1.818   0.293  1.5904  0.5886 -0.1056
 4621TIP3    H235279   2.165   1.775   0.434 -0.0821 -0.2396  0.0628
 4622TIP3   OH235280   2.980   5.597   6.169 -0.3931 -0.4004 -0.0723
 4622TIP3    H135281   3.018   5.664   6.226 -1.1592  0.1547 -0.1897
 4622TIP3    H235282   2.888   5.623   6.162 -0.7842 -1.6804  0.1757
 4623TIP3   OH235283   1.568   4.628  11.893  0.5469  0.0004 -0.3275
 4623TIP3    H135284   1.629   4.702  11.888  1.0495 -0.1937  1.7184
 4623TIP3    H235285   1.489   4.665  11.932  0.0596 -0.1585 -1.1413
 4624TIP3   OH235286   4.585   0.894   5.208 -0.4048  0.2104 -0.1020
 4624TIP3    H135287   4.533   0.943   5.145  0.2803  0.1677 -0.7084
 4624TIP3    H235288   4.640   0.837   5.155  2.1763  2.0998  0.3564
 4625TIP3   OH235289   6.245   3.978   5.045 -0.2083  0.1170  0.5577
 4625TIP3    H135290   6.227   3.892   5.006 -0.0245 -0.3595  1.5006
 4625TIP3    H235291   6.174   3.992   5.107 -0.1318  0.5536  0.5477
 4626TIP3   OH235292   2.416   2.291  16.693  0.6163  0.2281  0.2244
 4626TIP3    H135293   2.511   2.280  16.684  0.4564 -0.9833 -0.1021
 4626TIP3    H235294   2.380   2.259  16.611 -0.3199 -2.9633  1.7342
 4627TIP3   OH235295   4.504   1.485  17.165  0.0782  0.1662  0.4623
 4627TIP3    H135296   4.574   1.447  17.216 -1.5607 -1.6592  1.4917
 4627TIP3    H235297   4.451   1.535  17.228 -0.7503 -0.3015  0.1609
 4628TIP3   OH235298   3.377   2.298  17.076 -0.3014 -0.0627 -0.0440
 4628TIP3    H135299   3.371   2.315  16.982 -1.7114 -0.6595 -0.0854
 4628TIP3    H235300   3.418   2.378  17.112 -0.7370  0.6233 -1.0268
 4629TIP3   OH235301   3.688   3.579  11.367 -0.7805 -0.1392  0.2306
 4629TIP3    H135302   3.692   3.628  11.286  1.6535 -1.0268 -0.2632
 4629TIP3    H235303   3.710   3.643  11.435 -1.1264  0.2120  0.0207
 4630TIP3   OH235304   2.185   2.502   5.951 -0.1079 -0.2923 -0.4889
 4630TIP3    H135305   2.165   2.424   6.003  1.3442 -0.4934 -0.2054
 4630TIP3    H235306   2.268   2.534   5.985  0.2044  0.3627 -1.7778
 4631TIP3   OH235307   5.292   6.699  11.949 -0.5795  0.5778  0.2321
 4631TIP3    H135308   5.224   6.720  11.885 -0.6796 -0.8865 -0.1954
 4631TIP3    H235309   5.371   6.743  11.915 -1.2143  2.0190  0.5648
 4632TIP3   OH235310   0.532   2.397  15.995 -0.6709  0.4198  0.2325
 4632TIP3    H135311   0.488   2.313  15.983  0.4523 -0.2606  0.7077
 4632TIP3    H235312   0.593   2.403  15.921 -0.9268  0.9429  0.0584
 4633TIP3   OH235313   2.435   5.610   3.100  0.5689 -0.5718 -0.2835
 4633TIP3    H135314   2.479   5.618   3.185 -0.4395  2.3199  0.0775
 4633TIP3    H235315   2.359   5.554   3.118  0.9621 -0.9076  0.4158
 4634TIP3   OH235316   2.462   6.603  16.772  0.3110  0.0898 -0.0396
 4634TIP3    H135317   2.409   6.583  16.848  1.1005  0.4953  0.6324
 4634TIP3    H235318   2.538   6.546  16.780  1.4117  1.5736  0.6089
 4635TIP3   OH235319   4.144   4.067   1.488  0.6401  0.1951  0.0715
 4635TIP3    H135320   4.117   4.158   1.494  0.9636  0.2474  0.7896
 4635TIP3    H235321   4.221   4.069   1.431 -0.2658  0.1636 -1.1957
 4636TIP3   OH235322   2.351   4.568   0.265 -0.2339 -0.3264  0.2223
 4636TIP3    H135323   2.351   4.474   0.282 -0.6425 -0.3380  0.1752
 4636TIP3    H235324   2.298   4.605   0.336 -0.1063 -0.1372  0.2199
 4637TIP3   OH235325   6.324   5.986   2.438  0.4426 -0.0189  0.4215
 4637TIP3    H135326   6.247   6.030   2.473  1.0023  0.9855  0.4378
 4637TIP3    H235327   6.394   6.052   2.442  0.4596  0.3753 -2.9962
 4638TIP3   OH235328   4.129   5.265   1.987  0.0447  0.4677 -0.0349
 4638TIP3    H135329   4.092   5.192   1.937 -0.1410  0.5185  0.0282
 4638TIP3    H235330   4.082   5.263   2.070 -1.5028  1.9927 -0.8197
 4639TIP3   OH235331   4.821   2.370   5.041 -0.3935 -0.7275  0.2640
 4639TIP3    H135332   4.872   2.333   4.969 -0.1697 -0.7596  0.4373
 4639TIP3    H235333   4.828   2.465   5.029  0.4328 -0.7090  0.7795
 4640TIP3   OH235334   1.900   4.103   0.488 -0.1628  0.3121  0.4709
 4640TIP3    H135335   1.861   4.033   0.539 -1.4823 -0.5708 -1.6108
 4640TIP3    H235336   1.993   4.082   0.483 -0.7336 -2.2320 -1.3559
 4641TIP3   OH235337   6.610   5.579  12.765  0.2844 -0.4769  0.5704
 4641TIP3    H135338   6.604   5.513  12.835  0.6002  0.2912  1.3345
 4641TIP3    H235339   6.651   5.654  12.807  1.0679 -0.2252 -0.6133
 4642TIP3   OH235340   4.830   0.584  15.922  0.3430  0.2906  0.5623
 4642TIP3    H135341   4.918   0.616  15.902  0.1491  2.4069  2.6903
 4642TIP3    H235342   4.771   0.650  15.884 -0.3870 -1.1070 -0.8573
 4643TIP3   OH235343   2.961   0.021  13.597 -0.0332 -0.0772 -0.4904
 4643TIP3    H135344   2.921   0.106  13.578 -1.0899 -0.0096  1.7067
 4643TIP3    H235345   2.887  -0.040  13.597  0.4527 -0.6711 -0.2210
 4644TIP3   OH235346   1.359   3.317   3.824 -0.2929  0.0375 -0.0023
 4644TIP3    H135347   1.395   3.326   3.736 -1.0106 -0.4227 -0.3568
 4644TIP3    H235348   1.274   3.274   3.811  0.1901 -1.3174  1.0287
 4645TIP3   OH235349   1.668   2.411  11.125 -0.5033  0.3691  0.1876
 4645TIP3    H135350   1.762   2.390  11.121 -0.9128 -1.7750  0.3229
 4645TIP3    H235351   1.658   2.459  11.207  0.6686  2.0209 -0.5675
 4646TIP3   OH235352   4.994   4.660  12.998  0.2229  0.5502  0.2750
 4646TIP3    H135353   4.983   4.711  13.078 -0.7220  0.2626  0.3433
 4646TIP3    H235354   4.929   4.590  13.004  0.4504  0.2500 -0.5273
 4647TIP3   OH235355   4.975   4.938  12.509 -0.2052 -0.0328  0.2609
 4647TIP3    H135356   4.995   4.868  12.446 -1.2089  0.2680 -0.4178
 4647TIP3    H235357   4.963   4.892  12.592  1.1828 -0.4296  0.2614
 4648TIP3   OH235358   3.831   4.499  11.102 -0.1687  0.3041 -0.1488
 4648TIP3    H135359   3.764   4.505  11.034  0.1179 -0.5214 -0.5148
 4648TIP3    H235360   3.807   4.420  11.151 -0.3511  0.8703  0.6886
 4649TIP3   OH235361   6.226   0.634   3.100  0.2985  0.1609  0.2923
 4649TIP3    H135362   6.233   0.678   3.184 -1.4822  1.8901 -0.3689
 4649TIP3    H235363   6.296   0.671   3.047  0.0411  0.7278  0.3450
 4650TIP3   OH235364   4.693   5.768  13.103 -0.1824  0.0299 -0.1930
 4650TIP3    H135365   4.659   5.686  13.141  0.6152 -0.6229 -0.8284
 4650TIP3    H235366   4.772   5.786  13.155 -0.4406  0.4786  0.0417
 4651TIP3   OH235367   4.818   3.226   3.819 -0.0189 -0.2609  0.8184
 4651TIP3    H135368   4.771   3.205   3.738  0.4218 -1.1905  0.7930
 4651TIP3    H235369   4.878   3.296   3.793  0.4798 -0.9019  0.2105
 4652TIP3   OH235370   5.794   3.892   0.900  0.3592 -0.1811 -0.4078
 4652TIP3    H135371   5.838   3.975   0.919  1.0224 -0.6117  0.0145
 4652TIP3    H235372   5.852   3.849   0.838  1.1176 -1.2142  0.9491
 4653TIP3   OH235373   2.931   6.622   0.343  0.3926  0.9913 -0.4783
 4653TIP3    H135374   2.845   6.661   0.358 -0.3935 -0.1778 -1.6765
 4653TIP3    H235375   2.911   6.537   0.304  2.0966  0.5230 -0.3655
 4654TIP3   OH235376   6.445   3.541   4.988  0.0032  0.2629  0.6082
 4654TIP3    H135377   6.486   3.455   4.976  2.6795  1.1901  2.0877
 4654TIP3    H235378   6.474   3.592   4.912 -0.3781  0.2747  0.4688
 4655TIP3   OH235379   0.731   5.799  11.775 -0.4204  0.0079  0.0727
 4655TIP3    H135380   0.777   5.733  11.826  0.9474 -0.5498 -1.7902
 4655TIP3    H235381   0.796   5.867  11.759 -1.2744  0.9154  0.3699
 4656TIP3   OH235382   3.544   6.524  12.057 -0.2553 -0.7387 -0.2247
 4656TIP3    H135383   3.467   6.479  12.093  0.5806 -0.9140  1.4267
 4656TIP3    H235384   3.514   6.614  12.041 -0.8344 -0.8362  0.2796
 4657TIP3   OH235385   6.624   3.193   5.430 -0.6024 -0.3601  0.4593
 4657TIP3    H135386   6.640   3.161   5.519  3.1454 -0.8181 -0.2227
 4657TIP3    H235387   6.653   3.285   5.433 -1.5036 -0.0524 -0.0494
 4658TIP3   OH235388   5.264   6.115   6.021 -0.1767  0.1025 -0.0146
 4658TIP3    H135389   5.224   6.073   5.945  1.4815  1.0818 -1.5267
 4658TIP3    H235390   5.191   6.145   6.074 -1.3838 -0.9432 -1.0291
 4659TIP3   OH235391   4.162   1.151  15.114  0.2099  0.2300  0.2463
 4659TIP3    H135392   4.225   1.079  15.102 -0.0313  0.2031 -1.0688
 4659TIP3    H235393   4.084   1.122  15.066 -0.0781  1.1511  0.1474
 4660TIP3   OH235394   3.061   5.463  17.349  0.1488  0.0954  0.6120
 4660TIP3    H135395   3.146   5.502  17.327 -1.1241  2.5212 -0.2794
 4660TIP3    H235396   3.073   5.369  17.330  1.0437  0.9874 -5.1522
 4661TIP3   OH235397   1.044   0.050   0.123 -0.1269 -0.0845  0.3997
 4661TIP3    H135398   1.032   0.057   0.028 -0.1632  0.2759  0.4307
 4661TIP3    H235399   0.955   0.058   0.159 -0.2707 -1.4607  0.3980
 4662TIP3   OH235400   1.923   4.212   4.410  0.0714  0.4560  0.0888
 4662TIP3    H135401   1.921   4.118   4.429  1.3151  0.4066  0.0550
 4662TIP3    H235402   1.993   4.246   4.466 -0.7920  1.4726  0.5627
 4663TIP3   OH235403   3.786   2.817   5.846  0.4548  0.1085 -0.0904
 4663TIP3    H135404   3.865   2.770   5.818  0.2119 -0.1862 -0.2822
 4663TIP3    H235405   3.714   2.759   5.823  0.1871  0.3203  0.2044
 4664TIP3   OH235406   6.141   4.766   4.581 -1.1616 -0.5374  0.0985
 4664TIP3    H135407   6.207   4.701   4.560  0.2428 -0.2523  3.1410
 4664TIP3    H235408   6.080   4.721   4.640 -2.4940 -0.1801 -0.9590
 4665TIP3   OH235409   3.333   2.189  13.602  0.4178  0.1903 -0.0417
 4665TIP3    H135410   3.253   2.167  13.651 -0.1367  1.5119 -0.3137
 4665TIP3    H235411   3.386   2.239  13.665  1.3242 -1.1959  0.3331
 4666TIP3   OH235412   1.906   3.792   1.554 -0.2252  0.4263  1.2802
 4666TIP3    H135413   1.954   3.794   1.637  0.7767  0.9437  0.6958
 4666TIP3    H235414   1.961   3.840   1.493 -0.9407  0.0206  0.2938
 4667TIP3   OH235415   1.517   2.806  14.541 -0.1654 -0.7889  0.0306
 4667TIP3    H135416   1.440   2.855  14.514 -0.3876 -0.7302  0.7326
 4667TIP3    H235417   1.488   2.757  14.619 -0.0866 -2.3829 -0.8933
 4668TIP3   OH235418   3.142   1.135   6.416  0.2395 -0.3021 -0.0587
 4668TIP3    H135419   3.141   1.170   6.327  0.6128  0.0227  0.0628
 4668TIP3    H235420   3.224   1.167   6.453  0.7490 -1.5668 -0.0516
 4669TIP3   OH235421   1.943   1.258  13.905 -0.8444 -0.0331 -0.3346
 4669TIP3    H135422   2.001   1.195  13.862 -0.4350 -0.7946  1.2681
 4669TIP3    H235423   1.856   1.238  13.869 -0.2080  1.0067 -2.6284
 4670TIP3   OH235424   0.043   6.248  12.520  0.1660  0.5690 -0.0523
 4670TIP3    H135425   0.118   6.247  12.460 -0.7744  0.6617 -1.2536
 4670TIP3    H235426  -0.018   6.184  12.483 -0.9340  1.4782  0.1444
 4671TIP3   OH235427   6.490   6.086  12.099 -0.2290 -0.7939 -0.3516
 4671TIP3    H135428   6.529   6.133  12.026 -1.9382 -1.3414 -1.6887
 4671TIP3    H235429   6.431   6.022  12.059 -1.2250 -1.1326  1.4912
 4672TIP3   OH235430   2.690   3.171   4.450 -0.0405 -0.3354  0.0902
 4672TIP3    H135431   2.652   3.171   4.538  3.0224 -1.8844  1.5650
 4672TIP3    H235432   2.728   3.084   4.440  2.7427  0.9192 -1.2851
 4673TIP3   OH235433   6.036   1.297   2.355  0.2374 -0.3755 -0.2760
 4673TIP3    H135434   6.090   1.222   2.328  0.2700 -0.7830  0.8525
 4673TIP3    H235435   6.069   1.370   2.302  1.7205 -0.6777  0.1652
 4674TIP3   OH235436   0.084   0.667   4.836  0.2770  0.0307 -0.1414
 4674TIP3    H135437   0.167   0.630   4.868  0.0403 -0.6207 -0.2632
 4674TIP3    H235438   0.110   0.729   4.768  0.7356  0.7637  0.6766
 4675TIP3   OH235439   6.318   6.108   4.670 -0.6264  0.2300 -0.2520
 4675TIP3    H135440   6.321   6.201   4.694 -1.8246  0.3187 -0.3656
 4675TIP3    H235441   6.302   6.062   4.752  3.2327 -0.2392  0.4018
 4676TIP3   OH235442   4.351   0.034  10.942 -0.0106  0.5606  0.4380
 4676TIP3    H135443   4.366   0.126  10.922  0.3161  0.6687  1.1804
 4676TIP3    H235444   4.256   0.027  10.949 -0.0243  0.8857  0.5967
 4677TIP3   OH235445   1.112   3.419  14.058  0.3287  0.2692  0.3553
 4677TIP3    H135446   1.062   3.484  14.106 -0.5776 -0.2282  0.1249
 4677TIP3    H235447   1.085   3.430  13.967  0.7943  0.1262  0.1944
 4678TIP3   OH235448   0.757   2.189  17.085  0.2158 -0.2409  0.7825
 4678TIP3    H135449   0.849   2.169  17.102  0.1164  0.4020  2.2904
 4678TIP3    H235450   0.750   2.283  17.102  0.1265  0.7277 -3.4729
 4679TIP3   OH235451   3.447   4.753   3.283  0.1100 -0.7323  0.1228
 4679TIP3    H135452   3.472   4.790   3.367  1.2914 -1.0493 -0.0728
 4679TIP3    H235453   3.366   4.705   3.300  0.3438 -0.7985  1.0644
 4680TIP3   OH235454   0.016   0.750  13.589 -0.5507  0.4230  0.1376
 4680TIP3    H135455   0.002   0.802  13.510 -0.9210  0.5480  0.2814
 4680TIP3    H235456  -0.013   0.807  13.661 -1.2065 -0.0743  0.2737
 4681TIP3   OH235457   3.820   2.009  12.471  0.2918  0.6573 -0.4125
 4681TIP3    H135458   3.764   1.931  12.477 -0.7027  1.4495  1.4867
 4681TIP3    H235459   3.850   2.009  12.381 -0.4561 -1.4008 -0.7354
 4682TIP3   OH235460   2.771   6.576  13.597  0.1533 -0.2113 -0.1820
 4682TIP3    H135461   2.779   6.481  13.589  0.0286 -0.2504  0.1700
 4682TIP3    H235462   2.751   6.592  13.689  1.4700  0.2442  0.0481
 4683TIP3   OH235463   3.292   1.590   3.749  1.0455 -0.4373 -0.2540
 4683TIP3    H135464   3.334   1.602   3.663  1.8704  0.4249  0.2512
 4683TIP3    H235465   3.364   1.596   3.812  0.1111  1.6700  0.6914
 4684TIP3   OH235466   0.973   3.917   4.832 -0.4857 -0.0171 -0.0817
 4684TIP3    H135467   1.052   3.956   4.796 -0.7713  0.2328 -0.4496
 4684TIP3    H235468   1.000   3.880   4.916  0.3631 -1.2713 -0.8823
 4685TIP3   OH235469   6.392   0.315  13.075 -0.2218 -0.3412 -0.9091
 4685TIP3    H135470   6.469   0.350  13.033 -2.0926  4.3471 -1.0038
 4685TIP3    H235471   6.329   0.301  13.004 -0.4680 -1.1402 -0.5467
 4686TIP3   OH235472   0.162   2.716  16.801  0.1895  0.6046  0.4898
 4686TIP3    H135473   0.161   2.643  16.863  0.7018  0.1780 -0.0006
 4686TIP3    H235474   0.143   2.676  16.717  1.9841  0.7813 -0.0408
 4687TIP3   OH235475   1.586   3.161   5.420  0.4851 -0.0352 -0.8248
 4687TIP3    H135476   1.590   3.226   5.350 -0.2436  0.7116 -0.1888
 4687TIP3    H235477   1.509   3.108   5.400  1.0800 -0.7242 -1.3443
 4688TIP3   OH235478   0.941   3.071   6.596 -0.4596  0.0002 -0.0003
 4688TIP3    H135479   1.029   3.083   6.560 -0.3008  0.1036  0.4196
 4688TIP3    H235480   0.905   2.998   6.546  0.0758 -0.4170  0.2136
 4689TIP3   OH235481   0.683   6.493   4.052  0.8316 -0.4194 -0.2364
 4689TIP3    H135482   0.619   6.511   3.984  0.3117 -0.8251  0.1374
 4689TIP3    H235483   0.760   6.460   4.005  1.1531  1.0046 -0.7796
 4690TIP3   OH235484   2.239   6.004   1.437 -0.4147  0.3041 -0.0291
 4690TIP3    H135485   2.169   5.989   1.500  0.0635  1.0377  0.6991
 4690TIP3    H235486   2.319   5.979   1.483  0.2401  3.3264  0.6769
 4691TIP3   OH235487   0.878   5.428   1.350 -0.0484  0.3535 -0.4202
 4691TIP3    H135488   0.915   5.365   1.412  1.2801  1.2193 -0.2905
 4691TIP3    H235489   0.785   5.406   1.347  0.3217 -1.4488 -0.1967
 4692TIP3   OH235490   5.065   3.850   4.875  0.2136  0.4630  0.1607
 4692TIP3    H135491   4.978   3.874   4.908 -1.5630 -1.7545 -2.4869
 4692TIP3    H235492   5.098   3.931   4.836 -0.6791  1.3182  1.1045
 4693TIP3   OH235493   0.839   5.299   0.261 -0.2037  0.3081 -0.0501
 4693TIP3    H135494   0.922   5.272   0.301 -0.3249 -1.8576 -1.0982
 4693TIP3    H235495   0.775   5.292   0.331  0.5099  2.3762  0.8767
 4694TIP3   OH235496   4.153   6.272   0.284  0.1513 -0.6875  0.2045
 4694TIP3    H135497   4.060   6.265   0.265  0.0360 -0.5930  0.7246
 4694TIP3    H235498   4.157   6.319   0.367  0.6847 -0.1306 -0.1250
 4695TIP3   OH235499   6.324   6.144   1.885 -0.4431  0.1281  0.3950
 4695TIP3    H135500   6.246   6.149   1.829 -1.4938 -0.3201  1.7521
 4695TIP3    H235501   6.322   6.225   1.937 -0.0114  0.1094  0.4463
 4696TIP3   OH235502   5.474   5.753  12.582  0.6531 -0.1354 -0.4072
 4696TIP3    H135503   5.545   5.730  12.643 -0.5524 -0.5261  0.9212
 4696TIP3    H235504   5.483   5.847  12.570  2.2144 -0.3647 -1.3769
 4697TIP3   OH235505   3.336   0.539  13.931 -0.4411 -0.4755 -0.2546
 4697TIP3    H135506   3.323   0.448  13.903 -2.1411  0.0241 -1.2188
 4697TIP3    H235507   3.277   0.550  14.005  1.8603 -0.9240  1.7559
 4698TIP3   OH235508   4.292   4.154  15.964 -0.2909 -0.7932  0.3314
 4698TIP3    H135509   4.375   4.130  15.922 -1.2376 -0.4832 -1.8030
 4698TIP3    H235510   4.317   4.220  16.029  1.1688 -0.9343 -0.0447
 4699TIP3   OH235511   1.839   5.231   0.787  0.4690  0.2809 -0.2878
 4699TIP3    H135512   1.752   5.255   0.755 -0.7200  0.2958  2.6218
 4699TIP3    H235513   1.889   5.313   0.784 -0.1748  0.6792 -0.4017
 4700TIP3   OH235514   2.821   1.551  15.486 -0.4767 -0.7236  0.0245
 4700TIP3    H135515   2.823   1.630  15.432 -1.9832 -0.2860  0.5443
 4700TIP3    H235516   2.910   1.516  15.481  0.6949  1.8313  0.9959
 4701TIP3   OH235517   5.333   1.793  14.568  0.0212 -0.1593  0.4138
 4701TIP3    H135518   5.298   1.788  14.479  0.3627  2.4050  0.0752
 4701TIP3    H235519   5.261   1.762  14.623 -1.4778  1.4991 -0.5334
 4702TIP3   OH235520   6.369   3.685  14.484  0.3347 -0.6933  0.2332
 4702TIP3    H135521   6.297   3.688  14.421 -0.1414 -0.7349  0.7658
 4702TIP3    H235522   6.331   3.718  14.565  1.4547  1.3706  0.0113
 4703TIP3   OH235523   0.957   5.937  11.689  0.1757  0.1631  0.5589
 4703TIP3    H135524   0.921   5.987  11.616  1.9666  0.2331 -0.3294
 4703TIP3    H235525   1.010   6.000  11.738  1.6301 -0.6023  0.0105
 4704TIP3   OH235526   5.748   6.266   2.099  0.0429 -0.5994 -0.1091
 4704TIP3    H135527   5.769   6.174   2.085 -1.3919 -1.3958  2.4025
 4704TIP3    H235528   5.766   6.281   2.191  2.7232  2.4319 -0.9279
 4705TIP3   OH235529   0.764   3.077   4.745 -0.0717  0.3453  0.0193
 4705TIP3    H135530   0.749   3.170   4.764 -1.0440  0.2937 -0.4741
 4705TIP3    H235531   0.852   3.075   4.706 -1.2533  1.5174 -3.0002
 4706TIP3   OH235532   5.868   4.518  15.874  0.3337  1.0687  0.9894
 4706TIP3    H135533   5.947   4.571  15.882  1.7111 -0.6294 -0.4408
 4706TIP3    H235534   5.897   4.437  15.833 -2.2991  0.7444 -0.5082
 4707TIP3   OH235535   1.404   6.116  15.585  0.2344 -0.1123  0.2518
 4707TIP3    H135536   1.327   6.165  15.556  0.6008  1.7506  2.2157
 4707TIP3    H235537   1.371   6.060  15.656  0.6874  0.8477  1.2424
 4708TIP3   OH235538   2.536   6.440   2.167  0.0667 -0.4830  0.5820
 4708TIP3    H135539   2.474   6.512   2.164  0.6555  0.0041 -1.4307
 4708TIP3    H235540   2.554   6.428   2.260 -1.6839  0.5108  1.0945
 4709TIP3   OH235541   1.041   5.917  16.457 -0.0609 -0.6272 -0.2571
 4709TIP3    H135542   1.039   5.996  16.512 -1.4066  0.4667 -1.7575
 4709TIP3    H235543   1.086   5.852  16.510 -0.9794  0.4605  2.0080
 4710TIP3   OH235544   4.120   4.614   3.988  0.2150 -0.0257 -0.5842
 4710TIP3    H135545   4.171   4.630   3.909  1.4207 -0.5505  0.0690
 4710TIP3    H235546   4.151   4.530   4.021 -2.4052 -1.3349 -1.1724
 4711TIP3   OH235547   2.562   5.557  14.361  0.6014  0.4146  0.7352
 4711TIP3    H135548   2.476   5.546  14.319 -1.0717  0.8520  3.7855
 4711TIP3    H235549   2.614   5.484  14.327 -1.6997 -1.2119  0.4543
 4712TIP3   OH235550   0.391   4.576  16.646 -0.1093 -0.3565  0.3175
 4712TIP3    H135551   0.341   4.630  16.585 -1.6229 -1.1301  0.8450
 4712TIP3    H235552   0.351   4.490  16.642  0.9942 -0.9334  0.9944
 4713TIP3   OH235553   6.347   5.262   2.597 -0.3100 -0.1874 -0.5376
 4713TIP3    H135554   6.263   5.302   2.618 -0.5232  0.0084 -1.7107
 4713TIP3    H235555   6.412   5.325   2.629 -0.6249  0.1832 -0.6165
 4714TIP3   OH235556   1.992   3.825   0.685  0.2815 -0.5245  0.8200
 4714TIP3    H135557   1.998   3.916   0.714 -1.0041 -0.3880  0.7402
 4714TIP3    H235558   1.931   3.784   0.747 -0.5354 -0.8617 -0.1714
 4715TIP3   OH235559   3.811   4.899   4.443  0.2469  0.0361 -0.3493
 4715TIP3    H135560   3.751   4.952   4.391  1.5028 -0.2735 -2.2175
 4715TIP3    H235561   3.854   4.961   4.501  0.6149  0.8533 -1.4565
 4716TIP3   OH235562   1.410   1.651   0.176 -1.1543 -0.1601  0.5456
 4716TIP3    H135563   1.429   1.705   0.099  1.8937 -1.1174  0.5004
 4716TIP3    H235564   1.370   1.571   0.139  2.9087 -1.9184 -0.6098
 4717TIP3   OH235565   1.978   2.098  12.663  0.2976  0.0796  0.5443
 4717TIP3    H135566   1.938   2.123  12.747 -0.7165 -1.7218  0.6539
 4717TIP3    H235567   1.953   2.006  12.652 -0.1451  0.4444 -2.0339
 4718TIP3   OH235568   5.228   1.879  14.908 -0.0802 -0.2275 -0.0449
 4718TIP3    H135569   5.250   1.866  14.816 -0.7940  1.6117 -0.5045
 4718TIP3    H235570   5.143   1.922  14.907  0.2992  0.6180  1.4573
 4719TIP3   OH235571   4.497   4.471   5.914 -0.6400  0.1776 -0.5396
 4719TIP3    H135572   4.534   4.407   5.854 -1.0269 -0.3541 -0.2147
 4719TIP3    H235573   4.570   4.497   5.970 -0.2537  0.7438 -1.2827
 4720TIP3   OH235574   0.323   2.585   3.748 -0.1790  0.2943  0.1735
 4720TIP3    H135575   0.385   2.608   3.816 -0.7474 -0.8681  1.1268
 4720TIP3    H235576   0.241   2.570   3.794 -0.5628 -0.5649 -0.7524
 4721TIP3   OH235577   4.112   0.527  15.608 -0.3586 -0.0162  0.3340
 4721TIP3    H135578   4.198   0.570  15.612 -0.4425  0.4216 -1.5083
 4721TIP3    H235579   4.050   0.600  15.600 -0.7004 -0.3971 -0.5534
 4722TIP3   OH235580   3.473   3.387   3.242 -0.5653 -0.2820 -0.8287
 4722TIP3    H135581   3.489   3.421   3.154 -1.4287 -0.8559 -1.2179
 4722TIP3    H235582   3.553   3.340   3.264  0.1457  0.8951 -0.7913
 4723TIP3   OH235583   0.052   2.894   2.386  0.4441  0.2147 -0.3489
 4723TIP3    H135584   0.057   2.977   2.339  1.5216  0.9854  1.0420
 4723TIP3    H235585   0.105   2.833   2.334  0.8328  0.7855 -0.6330
 4724TIP3   OH235586   0.799   0.910   0.211  0.3870  0.6537 -0.0578
 4724TIP3    H135587   0.826   1.001   0.198 -0.8618  1.1771  0.8456
 4724TIP3    H235588   0.805   0.897   0.306 -0.2768  0.0706 -0.0897
 4725TIP3   OH235589   0.764   0.031  12.293  0.4585  0.1460  0.1178
 4725TIP3    H135590   0.671   0.015  12.312  0.2837  0.5278 -0.3866
 4725TIP3    H235591   0.769   0.028  12.197  1.1667 -0.9508  0.1706
 4726TIP3   OH235592   1.578   4.346   6.213 -0.1077 -0.2625  0.0500
 4726TIP3    H135593   1.654   4.399   6.190 -0.6413  0.0782 -1.0089
 4726TIP3    H235594   1.614   4.260   6.234  0.7045  0.3062  1.0721
 4727TIP3   OH235595   4.335   3.182   2.791 -0.1159 -0.6461 -0.0897
 4727TIP3    H135596   4.319   3.271   2.762 -1.1174 -0.1298  1.8790
 4727TIP3    H235597   4.430   3.177   2.805  0.0791 -0.2374 -1.1938
 4728TIP3   OH235598   5.302   0.205   3.360 -0.5927  0.3652  0.1576
 4728TIP3    H135599   5.346   0.180   3.441 -1.7582 -2.0684  0.0993
 4728TIP3    H235600   5.256   0.286   3.382 -0.6125 -0.0647  1.8149
 4729TIP3   OH235601   5.274   5.698   3.706 -0.1843  0.1627 -0.0651
 4729TIP3    H135602   5.363   5.727   3.729 -0.3485  0.5546  0.0864
 4729TIP3    H235603   5.228   5.697   3.790 -1.4045  3.6813 -0.5731
 4730TIP3   OH235604   0.225   1.189   5.752 -0.0031  0.6368 -0.8494
 4730TIP3    H135605   0.200   1.224   5.837  1.8973  0.9757 -0.3755
 4730TIP3    H235606   0.286   1.118   5.771 -1.5598 -1.0789 -1.9002
 4731TIP3   OH235607   5.736   1.532  14.991  0.0076 -0.6062 -0.5569
 4731TIP3    H135608   5.750   1.465  15.058 -0.4332  0.1566  0.3206
 4731TIP3    H235609   5.812   1.590  14.998 -0.0005 -0.5684 -0.7669
 4732TIP3   OH235610   5.015   3.168   3.112  0.4652 -0.4516 -0.3154
 4732TIP3    H135611   4.995   3.245   3.166 -0.2352 -1.0987  0.3866
 4732TIP3    H235612   4.930   3.141   3.078  0.6562 -1.1453 -0.2434
 4733TIP3   OH235613   5.357   1.230  14.428 -0.0604  0.0964  0.1104
 4733TIP3    H135614   5.307   1.260  14.352 -2.2819 -1.7909  0.7225
 4733TIP3    H235615   5.432   1.183  14.391 -1.8412 -2.0150 -1.0241
 4734TIP3   OH235616   3.762   5.977   3.007  0.3142  0.3301  0.5427
 4734TIP3    H135617   3.843   5.969   2.958  0.7763  1.3092  1.1115
 4734TIP3    H235618   3.724   5.889   3.007  0.6727  0.1623 -0.9027
 4735TIP3   OH235619   4.291   1.381  15.292 -0.0121 -0.0533  0.1919
 4735TIP3    H135620   4.335   1.306  15.332 -0.0388 -0.3067 -0.2388
 4735TIP3    H235621   4.357   1.417  15.232 -0.4395 -0.5450 -0.5948
 4736TIP3   OH235622   1.458   5.958   0.412 -0.3064 -0.1584  0.1559
 4736TIP3    H135623   1.459   5.867   0.443  0.9132 -0.1456  0.1932
 4736TIP3    H235624   1.533   5.999   0.454 -2.1018  1.5236  1.9613
 4737TIP3   OH235625   3.106   5.798  13.055 -0.4373  0.2281  0.3946
 4737TIP3    H135626   3.110   5.887  13.091 -1.8168  1.4005 -2.0772
 4737TIP3    H235627   3.197   5.778  13.032 -0.1459  1.1067  0.7215
 4738TIP3   OH235628   6.334   3.138   1.194 -0.1765 -0.4897  0.1272
 4738TIP3    H135629   6.381   3.220   1.179 -0.8728 -0.0164  0.4623
 4738TIP3    H235630   6.403   3.072   1.206  0.3845 -0.0708 -0.7388
 4739TIP3   OH235631   2.520   6.442   0.660 -0.3456  0.1639  0.4541
 4739TIP3    H135632   2.605   6.462   0.621 -0.6427  2.2104  0.7823
 4739TIP3    H235633   2.484   6.527   0.687 -2.2576 -0.7029  0.8280
 4740TIP3   OH235634   1.447   6.303  12.968  0.4709 -0.2859 -0.2594
 4740TIP3    H135635   1.453   6.248  13.046  0.1727  0.6429  0.4398
 4740TIP3    H235636   1.450   6.393  13.002  1.4993  0.1344 -1.4165
 4741TIP3   OH235637   1.574   2.449  13.761 -0.0756 -0.0393  0.5982
 4741TIP3    H135638   1.602   2.538  13.740  0.3679 -0.4541 -0.6958
 4741TIP3    H235639   1.487   2.441  13.720 -0.5979  0.1398  1.6491
 4742TIP3   OH235640   0.051   3.333  15.567  0.5949 -0.2234  0.2784
 4742TIP3    H135641   0.080   3.320  15.477  2.1269 -0.3341  0.7477
 4742TIP3    H235642   0.131   3.354  15.615 -0.4233  1.5446  1.3122
 4743TIP3   OH235643   5.005   0.296   6.028  0.0055  0.3418 -0.1796
 4743TIP3    H135644   5.009   0.331   5.939  0.8635 -0.2736 -0.3963
 4743TIP3    H235645   4.923   0.247   6.031  0.9241 -1.3407 -1.2947
 4744TIP3   OH235646   6.631   3.034  10.314  0.1950 -0.1661 -0.3755
 4744TIP3    H135647   6.703   3.053  10.374  0.2998  0.7710 -0.7941
 4744TIP3    H235648   6.654   3.078  10.233 -0.5313 -0.4206 -0.7316
 4745TIP3   OH235649   0.019   0.298  11.085 -0.1330 -0.2610 -1.0888
 4745TIP3    H135650   0.095   0.242  11.102  0.1227  0.0556 -1.1514
 4745TIP3    H235651   0.048   0.355  11.014  0.2404  1.0854  0.0875
 4746TIP3   OH235652   3.672   6.073  12.943  0.5222 -0.0452 -0.2607
 4746TIP3    H135653   3.748   6.019  12.918  0.0900  0.5980 -3.3951
 4746TIP3    H235654   3.597   6.015  12.933  0.4537 -0.4662  2.1354
 4747TIP3   OH235655   2.350   0.591   2.171  0.1406 -0.1728 -0.2761
 4747TIP3    H135656   2.293   0.625   2.102 -3.2123 -1.9281  1.3475
 4747TIP3    H235657   2.340   0.652   2.244  2.4055  0.8077 -0.6879
 4748TIP3   OH235658   4.112   2.803   2.080 -0.3658 -0.1740 -0.0915
 4748TIP3    H135659   4.178   2.758   2.026 -0.4711  0.9990 -1.2253
 4748TIP3    H235660   4.031   2.754   2.064 -0.1136 -0.6610  0.0846
 4749TIP3   OH235661   3.149   5.897  14.840 -0.2180  0.0218  0.0331
 4749TIP3    H135662   3.126   5.925  14.751 -0.6475 -1.3006 -0.2886
 4749TIP3    H235663   3.109   5.963  14.897 -2.3791 -0.6271 -0.6393
 4750TIP3   OH235664   5.851   6.195  13.437  1.0494  0.2671 -0.5607
 4750TIP3    H135665   5.904   6.265  13.475 -0.6238  1.3515 -0.1435
 4750TIP3    H235666   5.841   6.220  13.345 -0.9750  1.5561 -0.0463
 4751TIP3   OH235667   4.609   4.969  16.619 -0.0384  0.2563 -0.0433
 4751TIP3    H135668   4.522   5.007  16.633  0.7621  1.5797  1.6754
 4751TIP3    H235669   4.668   5.045  16.616  1.2510 -0.6912  0.4117
 4752TIP3   OH235670   6.310   5.765   0.373  0.6191 -0.2357 -0.1940
 4752TIP3    H135671   6.298   5.698   0.441  0.8522  0.4049  0.4901
 4752TIP3    H235672   6.237   5.825   0.385  0.9916  0.2054 -0.1202
 4753TIP3   OH235673   4.135   2.980  13.761 -0.4601  0.1378 -0.8910
 4753TIP3    H135674   4.143   2.921  13.836  0.9371  0.9518 -0.3451
 4753TIP3    H235675   4.145   2.924  13.684  0.7867 -0.3767 -0.3854
 4754TIP3   OH235676   4.422   1.553  16.674  0.3685  0.1974 -0.2512
 4754TIP3    H135677   4.428   1.492  16.747 -2.2314 -0.0032 -0.1374
 4754TIP3    H235678   4.483   1.623  16.696  1.7205 -1.2177  0.7045
 4755TIP3   OH235679   3.857   3.714   4.713  0.3180 -0.3312 -0.1494
 4755TIP3    H135680   3.919   3.642   4.704 -1.6203 -2.0852 -0.2869
 4755TIP3    H235681   3.848   3.749   4.624 -0.2941 -1.3485 -0.5074
 4756TIP3   OH235682   2.290   5.234   2.255 -0.4282 -0.4114 -0.5003
 4756TIP3    H135683   2.232   5.158   2.244  0.8702 -1.3851 -0.9857
 4756TIP3    H235684   2.271   5.289   2.179  0.6289 -1.6808 -1.7345
 4757TIP3   OH235685   4.777   5.665  16.373 -0.2544 -0.0033  0.4517
 4757TIP3    H135686   4.848   5.723  16.400 -0.3837  1.0115 -1.2579
 4757TIP3    H235687   4.719   5.661  16.450  0.4108  1.0968  1.0354
 4758TIP3   OH235688   6.257   5.662  15.532  0.0069 -1.1385 -0.6497
 4758TIP3    H135689   6.298   5.582  15.567 -0.1107  0.2338  3.1625
 4758TIP3    H235690   6.331   5.715  15.501  0.8468 -0.4961  2.1323
 4759TIP3   OH235691   3.287   4.706   3.954  0.5554  0.0264  0.6167
 4759TIP3    H135692   3.264   4.769   4.023  1.3957  0.0107  0.9217
 4759TIP3    H235693   3.370   4.668   3.983 -0.8041 -2.5889  1.3532
 4760TIP3   OH235694   5.509   5.344  11.845  0.3404 -0.3691  0.3519
 4760TIP3    H135695   5.429   5.394  11.829  1.1849  0.8806 -0.1166
 4760TIP3    H235696   5.484   5.253  11.826 -0.6279  0.1507 -1.0797
 4761TIP3   OH235697   5.178   2.474  15.379  0.2165 -0.4557 -0.0249
 4761TIP3    H135698   5.215   2.520  15.304  0.0491 -0.5955 -0.1936
 4761TIP3    H235699   5.166   2.384  15.348  0.0323 -0.4838  0.1292
 4762TIP3   OH235700   2.276   6.673  13.664 -0.0774 -0.0300 -0.5910
 4762TIP3    H135701   2.352   6.627  13.699  1.6570 -0.3617 -4.2623
 4762TIP3    H235702   2.226   6.606  13.618 -1.4798  0.5562  0.0441
 4763TIP3   OH235703   3.962   3.465  15.098 -0.0957 -0.2444 -0.0495
 4763TIP3    H135704   3.942   3.392  15.040  2.6566 -0.8199 -0.3691
 4763TIP3    H235705   3.990   3.423  15.180 -0.8965  0.5181  0.6363
 4764TIP3   OH235706   1.836   4.781  16.845  0.1712  0.5492  0.3876
 4764TIP3    H135707   1.774   4.804  16.775 -0.1127  1.7279  0.9961
 4764TIP3    H235708   1.922   4.786  16.804 -0.0549  0.1269 -0.1508
 4765TIP3   OH235709   0.309   3.964  14.279  0.3460  0.6478 -0.3481
 4765TIP3    H135710   0.264   4.006  14.353 -1.0268 -1.0421 -0.1584
 4765TIP3    H235711   0.389   3.929  14.318 -1.2073 -1.8361  0.9013
 4766TIP3   OH235712   2.298   1.439  11.464 -0.0932 -0.0062 -0.6223
 4766TIP3    H135713   2.340   1.522  11.486  0.5804 -0.5570  0.2831
 4766TIP3    H235714   2.347   1.406  11.389  0.4277 -0.1429 -0.2291
 4767TIP3   OH235715   0.475   3.934   2.482  0.4081  0.4023  0.5926
 4767TIP3    H135716   0.415   3.873   2.525  1.0630  0.5192  1.7108
 4767TIP3    H235717   0.556   3.883   2.471  0.2108  0.3136 -0.7045
 4768TIP3   OH235718   6.104   3.423   2.686  0.3067  0.0389 -0.3016
 4768TIP3    H135719   6.080   3.433   2.778  0.1520  1.0922 -0.4519
 4768TIP3    H235720   6.097   3.328   2.670 -1.6163  0.0412  0.2436
 4769TIP3   OH235721   2.155   5.127   3.451 -0.2306 -0.8455 -0.0133
 4769TIP3    H135722   2.112   5.172   3.524 -0.6832  2.0297 -1.8616
 4769TIP3    H235723   2.083   5.101   3.393  0.2508  0.7335 -1.3973
 4770TIP3   OH235724   6.136   4.978   2.746 -0.1412 -0.0611 -0.2848
 4770TIP3    H135725   6.066   5.043   2.740 -0.8334 -0.7238  0.3089
 4770TIP3    H235726   6.092   4.894   2.731  1.1170 -0.2844 -3.4020
 4771TIP3   OH235727   1.417   3.368  14.046  0.4141  0.0743  0.2952
 4771TIP3    H135728   1.322   3.361  14.051  0.5012 -3.5637 -0.4918
 4771TIP3    H235729   1.438   3.350  13.954  1.9180 -1.2028  0.8372
 4772TIP3   OH235730   0.443   5.420  14.213 -0.9662  0.3292 -0.5259
 4772TIP3    H135731   0.477   5.344  14.166  1.1000 -0.2338  1.6628
 4772TIP3    H235732   0.348   5.407  14.215 -0.5862 -3.0175  1.0056
 4773TIP3   OH235733   4.157   4.863  10.987 -0.5009 -0.1051 -0.1537
 4773TIP3    H135734   4.106   4.784  10.969 -0.4608 -0.0288 -0.6135
 4773TIP3    H235735   4.217   4.870  10.913 -0.5267  0.3768 -0.1316
 4774TIP3   OH235736   0.165   1.643  14.180 -0.0671 -0.0232 -0.4242
 4774TIP3    H135737   0.210   1.591  14.246 -1.2184  0.5172  0.8462
 4774TIP3    H235738   0.218   1.722  14.170  0.4773 -0.4171 -0.6662
 4775TIP3   OH235739   0.895   4.542   4.950 -0.1530  0.0166  0.1528
 4775TIP3    H135740   0.882   4.598   4.874 -0.0755 -0.1982 -0.0207
 4775TIP3    H235741   0.806   4.526   4.984 -0.0764  1.6991  1.2831
 4776TIP3   OH235742   4.690   4.537   4.256  0.0748 -0.5069  0.2392
 4776TIP3    H135743   4.596   4.547   4.245  0.1889 -0.3566 -0.7819
 4776TIP3    H235744   4.728   4.588   4.184  0.9252 -0.6943  0.5368
 4777TIP3   OH235745   0.007   0.569   4.099 -0.6463 -0.3244  0.6013
 4777TIP3    H135746  -0.043   0.630   4.153 -0.2603 -0.0995  0.7151
 4777TIP3    H235747  -0.052   0.544   4.028 -0.5348  0.8682  0.0612
 4778TIP3   OH235748   1.718   2.278  13.914  0.7028  0.2785  0.3165
 4778TIP3    H135749   1.633   2.255  13.877 -0.6239  1.2636  2.5888
 4778TIP3    H235750   1.729   2.371  13.893  0.9689  0.2922  0.5229
 4779TIP3   OH235751   4.383   6.669   3.972  0.1482  0.1217  0.9190
 4779TIP3    H135752   4.319   6.723   4.019 -1.2402 -0.6910  0.0180
 4779TIP3    H235753   4.394   6.713   3.888  0.6886  0.1795  1.0147
 4780TIP3   OH235754   6.401   1.792  11.761 -0.5189 -0.0752  0.2927
 4780TIP3    H135755   6.466   1.737  11.805 -1.1664 -0.6950  0.4873
 4780TIP3    H235756   6.358   1.841  11.831  0.7642  1.5001  0.0364
 4781TIP3   OH235757   0.708   3.584  10.566  0.5234  0.0921  0.0028
 4781TIP3    H135758   0.734   3.540  10.647 -1.0883  0.5698  0.8199
 4781TIP3    H235759   0.627   3.541  10.540  0.6125  0.4708 -0.9414
 4782TIP3   OH235760   4.588   4.668  15.511  0.2443 -0.4935  0.2888
 4782TIP3    H135761   4.682   4.658  15.525  0.5651 -1.0308 -1.8216
 4782TIP3    H235762   4.577   4.758  15.481  0.0832 -0.4476  0.4825
 4783TIP3   OH235763   3.545   6.003  15.348  0.0677  0.3152 -0.2707
 4783TIP3    H135764   3.618   5.956  15.308 -0.4896 -1.0362  0.2217
 4783TIP3    H235765   3.477   5.936  15.359 -0.4440  1.0378  1.2782
 4784TIP3   OH235766   0.294   6.080   1.788  0.4102  0.1386 -1.3103
 4784TIP3    H135767   0.221   6.100   1.729 -1.8993  0.0514  1.3062
 4784TIP3    H235768   0.312   6.163   1.832 -0.2440 -0.4747  0.1987
 4785TIP3   OH235769   5.778   5.390   4.971 -0.1718 -0.1933 -0.0365
 4785TIP3    H135770   5.807   5.300   4.953 -1.3408 -0.5836 -0.0967
 4785TIP3    H235771   5.856   5.443   4.959  0.4612 -1.1618 -0.3763
 4786TIP3   OH235772   1.759   3.033  12.752 -0.3114  0.4377 -0.0618
 4786TIP3    H135773   1.687   3.041  12.815  0.3316  0.5428  0.6747
 4786TIP3    H235774   1.739   2.955  12.702 -0.6385  0.1306  0.5387
 4787TIP3   OH235775   4.888   1.993  15.555 -0.0783  0.6483 -0.1563
 4787TIP3    H135776   4.840   2.057  15.607 -0.4542  1.1898 -1.1556
 4787TIP3    H235777   4.980   2.014  15.570 -0.1543  0.2812  0.9176
 4788TIP3   OH235778   1.654   3.809   2.955 -0.2224 -0.1796  0.2896
 4788TIP3    H135779   1.725   3.761   2.910 -1.6431 -2.2249  0.0795
 4788TIP3    H235780   1.617   3.865   2.887 -1.2308 -1.9659 -0.7259
 4789TIP3   OH235781   5.555   2.130  11.942  0.2613  0.0021 -0.0346
 4789TIP3    H135782   5.577   2.145  12.034  0.0384 -1.0588  0.1972
 4789TIP3    H235783   5.628   2.079  11.908 -0.3410 -0.8467 -0.0713
 4790TIP3   OH235784   5.784   1.386   2.264 -0.1944 -0.4264  0.2989
 4790TIP3    H135785   5.854   1.350   2.209 -3.1315 -1.6853 -2.9386
 4790TIP3    H235786   5.766   1.472   2.226 -0.0723  0.1469  1.4877
 4791TIP3   OH235787   1.070   5.670   6.088 -0.2315 -0.2394 -0.6658
 4791TIP3    H135788   1.137   5.738   6.093  0.8319 -1.1776 -1.4486
 4791TIP3    H235789   0.994   5.714   6.052  0.5407  0.4811 -1.4763
 4792TIP3   OH235790   6.103   1.639  16.261  0.5105  0.1199  0.4883
 4792TIP3    H135791   6.025   1.595  16.228 -0.4794  3.7047 -2.7717
 4792TIP3    H235792   6.078   1.672  16.347 -0.6474 -0.8961  0.5628
 4793TIP3   OH235793   3.440   3.928   2.345  0.3058  0.5059  0.3555
 4793TIP3    H135794   3.459   4.001   2.287  0.8144 -0.0637 -0.1999
 4793TIP3    H235795   3.478   3.954   2.429 -0.3882  1.3071  0.4462
 4794TIP3   OH235796   0.997   5.975  13.414 -0.0497  0.2583  0.3174
 4794TIP3    H135797   1.020   6.064  13.440 -0.3384  0.2439  0.6359
 4794TIP3    H235798   1.081   5.931  13.403  0.0981  0.6110  0.0104
 4795TIP3   OH235799   0.320   2.423  16.281 -0.1445 -0.5955  0.1418
 4795TIP3    H135800   0.234   2.457  16.307 -0.0230  0.1015 -0.3367
 4795TIP3    H235801   0.329   2.342  16.331 -1.3856 -1.0501 -0.3245
 4796TIP3   OH235802   5.356   1.298   5.767  0.5081  0.8466 -0.7304
 4796TIP3    H135803   5.284   1.329   5.821  0.3171 -1.4611  0.4617
 4796TIP3    H235804   5.435   1.321   5.816  0.4083  0.1799 -0.2530
 4797TIP3   OH235805   3.825   0.766  11.407 -0.1091  0.0666 -0.1363
 4797TIP3    H135806   3.777   0.684  11.413  1.4106 -1.0450 -2.0150
 4797TIP3    H235807   3.810   0.796  11.317 -1.3551  2.3730  0.7499
 4798TIP3   OH235808   5.874   4.614  13.961  0.5011  0.0296 -0.8366
 4798TIP3    H135809   5.939   4.549  13.988  0.2178 -0.7763 -2.0296
 4798TIP3    H235810   5.868   4.605  13.866 -1.1777  0.2325 -0.7918
 4799TIP3   OH235811   3.247   1.403  11.509 -0.7742  0.3151  0.2467
 4799TIP3    H135812   3.274   1.479  11.560  1.4081 -0.7846  0.8755
 4799TIP3    H235813   3.260   1.329  11.568  0.6840 -0.8779 -1.4656
 4800TIP3   OH235814   0.470   2.974   3.963 -0.5072 -0.0943 -0.1470
 4800TIP3    H135815   0.550   2.991   3.913  1.4246 -2.3507  1.8613
 4800TIP3    H235816   0.464   3.047   4.024  0.9934 -0.6192  0.6997
 4801TIP3   OH235817   4.482   1.470  12.161 -0.5818 -1.1088  0.3066
 4801TIP3    H135818   4.534   1.400  12.201  0.9106 -0.3269 -0.1918
 4801TIP3    H235819   4.545   1.519  12.108 -2.0371 -0.7064 -1.1318
 4802TIP3   OH235820   4.331   5.313  13.877 -0.2005 -0.1955  0.3354
 4802TIP3    H135821   4.350   5.267  13.959  2.5385  1.6378  0.8492
 4802TIP3    H235822   4.301   5.400  13.904  1.2468  0.6192 -0.5455
 4803TIP3   OH235823   0.380   5.651   1.118 -0.1436 -0.6397 -0.1147
 4803TIP3    H135824   0.418   5.667   1.204 -0.4985  0.0756 -0.0875
 4803TIP3    H235825   0.401   5.730   1.068  0.7197 -1.3494 -0.9289
 4804TIP3   OH235826   1.974   5.775  16.434  0.3125 -0.3556 -0.4280
 4804TIP3    H135827   1.962   5.717  16.360  1.2055 -0.0823 -0.8062
 4804TIP3    H235828   2.016   5.853  16.397  0.1871  0.0499  0.2573
 4805TIP3   OH235829   0.621   6.157   2.887 -0.0815  0.2839  0.6003
 4805TIP3    H135830   0.675   6.167   2.965  0.2703  0.6176  0.3216
 4805TIP3    H235831   0.645   6.232   2.832  1.3039 -1.1144 -0.7989
 4806TIP3   OH235832   6.282   1.340   1.953  0.0243 -0.1795  0.7681
 4806TIP3    H135833   6.200   1.360   1.998  0.2076  1.5048  0.4355
 4806TIP3    H235834   6.288   1.245   1.955 -2.6831 -0.4863 -0.4955
 4807TIP3   OH235835   1.357   5.318   5.775  0.6344 -0.1395 -0.6576
 4807TIP3    H135836   1.298   5.355   5.709  0.4081 -0.4422 -0.6266
 4807TIP3    H235837   1.319   5.233   5.796  0.9008 -0.1941 -0.3928
 4808TIP3   OH235838   1.805   3.326   1.175 -0.0184  0.1744  0.0876
 4808TIP3    H135839   1.764   3.265   1.236  0.9361 -0.0125  0.5600
 4808TIP3    H235840   1.894   3.293   1.164 -0.4404 -0.3937 -2.2052
 4809TIP3   OH235841   3.352   2.776   4.308 -0.1317 -0.0856  0.3056
 4809TIP3    H135842   3.346   2.807   4.399  0.2138 -1.6193  0.8847
 4809TIP3    H235843   3.261   2.758   4.283 -0.1053 -1.4167  1.0321
 4810TIP3   OH235844   3.293   4.023  17.156 -0.3780  0.0851  0.0298
 4810TIP3    H135845   3.281   3.964  17.081  0.7572  0.9037 -0.8277
 4810TIP3    H235846   3.229   4.094  17.141 -1.4309 -0.6617  0.8280
 4811TIP3   OH235847   0.719   4.838  11.556 -0.1456  0.4891 -0.1706
 4811TIP3    H135848   0.792   4.791  11.595  0.1309 -0.3066 -1.5816
 4811TIP3    H235849   0.648   4.830  11.620 -0.7188 -3.5256 -1.0516
 4812TIP3   OH235850   5.724   6.617  16.397 -0.2284  0.6844 -0.3030
 4812TIP3    H135851   5.662   6.681  16.432 -0.4262  0.4361 -0.1923
 4812TIP3    H235852   5.672   6.538  16.384  0.0931  0.4333 -0.0827
 4813TIP3   OH235853   3.452   1.872  12.006  0.6777 -0.0566  0.4382
 4813TIP3    H135854   3.411   1.803  11.956  1.6241 -0.2956 -0.0222
 4813TIP3    H235855   3.442   1.951  11.952  0.2272  0.0284  0.6402
 4814TIP3   OH235856   3.573   2.583  13.728 -0.5539  0.4478 -0.1878
 4814TIP3    H135857   3.483   2.610  13.711 -0.7543 -0.6212 -1.0080
 4814TIP3    H235858   3.627   2.653  13.691 -1.0501 -0.0223 -1.9239
 4815TIP3   OH235859   2.575   5.725  16.981  0.0439  0.6636 -0.3175
 4815TIP3    H135860   2.588   5.798  16.921 -0.7920  0.9253 -0.2014
 4815TIP3    H235861   2.655   5.722  17.034 -0.9711  3.2999  1.5731
 4816TIP3   OH235862   5.848   3.737  12.885 -0.8102  0.1119 -0.6542
 4816TIP3    H135863   5.773   3.708  12.834 -0.2519  0.1768 -1.5286
 4816TIP3    H235864   5.846   3.682  12.964 -0.7880 -1.0782 -1.4601
 4817TIP3   OH235865   1.442   1.776  13.901 -0.2984 -0.0603 -0.2267
 4817TIP3    H135866   1.461   1.857  13.947 -2.1322  0.2251  0.0815
 4817TIP3    H235867   1.504   1.775  13.828  1.6114  0.2290  1.2951
 4818TIP3   OH235868   4.338   0.028  12.099 -0.2668 -0.1105 -0.5444
 4818TIP3    H135869   4.288   0.087  12.156 -0.2498 -0.4314 -0.1865
 4818TIP3    H235870   4.356  -0.049  12.154  2.7027  0.9519  0.1547
 4819TIP3   OH235871   1.254   2.360   5.076 -0.4456  0.2926 -0.0135
 4819TIP3    H135872   1.344   2.365   5.043 -0.0891 -0.3947  0.7985
 4819TIP3    H235873   1.213   2.293   5.021 -0.1830 -0.0460  0.1922
 4820TIP3   OH235874   0.317   3.485  13.462  0.2645 -0.2187  0.1522
 4820TIP3    H135875   0.306   3.559  13.403  1.0032 -0.7217 -0.6606
 4820TIP3    H235876   0.336   3.523  13.547 -0.8819  0.5283  0.0828
 4821TIP3   OH235877   1.549   3.964  15.748  0.0393 -0.2603 -0.1411
 4821TIP3    H135878   1.565   3.917  15.666  0.5718 -1.0752  0.4121
 4821TIP3    H235879   1.459   3.995  15.741  0.2535  0.1408 -1.2519
 4822TIP3   OH235880   3.857   4.711  11.292  0.2359 -0.1268 -0.5073
 4822TIP3    H135881   3.772   4.706  11.337 -0.2650 -0.1599 -1.4428
 4822TIP3    H235882   3.863   4.629  11.243 -1.2928  1.7162 -4.0887
 4823TIP3   OH235883   4.836   3.621   0.862  0.0760 -0.0189  0.0008
 4823TIP3    H135884   4.850   3.704   0.816 -3.0289 -0.1597 -1.4530
 4823TIP3    H235885   4.896   3.560   0.821  0.5101  0.9112 -0.7806
 4824TIP3   OH235886   4.204   3.953   1.741 -0.3839  0.2244  0.0470
 4824TIP3    H135887   4.248   3.869   1.728  1.6736  1.2676 -0.0984
 4824TIP3    H235888   4.191   3.987   1.653 -1.2186  0.0967  0.1060
 4825TIP3   OH235889   0.188   6.412  16.978 -0.4392 -0.5870 -0.1910
 4825TIP3    H135890   0.104   6.450  16.951 -1.3903 -0.8881  2.0537
 4825TIP3    H235891   0.242   6.487  17.003 -0.9257 -0.4817  0.5877
 4826TIP3   OH235892   0.084   1.795  17.013  0.3250 -0.9807  0.3550
 4826TIP3    H135893   0.034   1.776  17.093 -0.1341  1.3079  0.6777
 4826TIP3    H235894   0.162   1.841  17.043 -0.4761  1.0644 -0.5452
 4827TIP3   OH235895   5.050   4.691   6.045  0.6132  0.1460 -0.6787
 4827TIP3    H135896   5.013   4.765   6.095 -2.8903 -1.6102 -0.3667
 4827TIP3    H235897   5.071   4.625   6.111  0.0283 -0.5864 -1.2123
 4828TIP3   OH235898   2.702   1.689   5.192  0.2708  0.3000  0.4297
 4828TIP3    H135899   2.669   1.677   5.282 -1.9724  2.9492  0.1008
 4828TIP3    H235900   2.745   1.775   5.194 -0.5481  0.7805 -1.1626
 4829TIP3   OH235901   4.563   5.049  14.561 -0.3996  0.1576  0.3948
 4829TIP3    H135902   4.549   4.957  14.536  0.6015  0.0756  0.1016
 4829TIP3    H235903   4.580   5.046  14.655 -2.0541  0.2402  0.7265
 4830TIP3   OH235904   1.457   3.884  11.882  0.3821  0.5429  0.1439
 4830TIP3    H135905   1.496   3.821  11.943  2.4358 -0.0892 -1.6771
 4830TIP3    H235906   1.498   3.967  11.904  1.1936  0.2975 -0.3956
 4831TIP3   OH235907   0.903   3.732   3.183 -0.3622 -0.3436  0.1566
 4831TIP3    H135908   0.997   3.739   3.165 -0.5482 -0.5976 -1.0222
 4831TIP3    H235909   0.898   3.697   3.272  0.6482  0.1489  0.4219
 4832TIP3   OH235910   1.386   1.632   2.314  0.3445  0.0790 -0.8178
 4832TIP3    H135911   1.296   1.659   2.297  0.3094  1.0084  0.6350
 4832TIP3    H235912   1.382   1.589   2.399  1.6212  2.4144  0.5343
 4833TIP3   OH235913   2.280   4.987  13.371  0.2978  0.3123  0.0161
 4833TIP3    H135914   2.262   5.047  13.444  0.7316 -1.1555  1.3852
 4833TIP3    H235915   2.193   4.960  13.341  0.1093 -0.3649  1.1203
 4834TIP3   OH235916   6.197   2.026  12.169  0.5136  0.1382 -0.1686
 4834TIP3    H135917   6.182   2.078  12.248 -0.8135  0.4627 -0.6026
 4834TIP3    H235918   6.249   2.083  12.112  1.5270 -0.1230  0.4855
 4835TIP3   OH235919   1.146   4.333   5.259  0.4550 -0.0759 -0.2479
 4835TIP3    H135920   1.084   4.402   5.282  0.4970 -0.2166  0.3006
 4835TIP3    H235921   1.092   4.262   5.226  0.2777 -0.3527  0.6074
 4836TIP3   OH235922   4.427   1.587   4.954 -0.0743  0.1122  0.5622
 4836TIP3    H135923   4.496   1.637   4.999 -0.1381  0.0266  0.7591
 4836TIP3    H235924   4.351   1.644   4.957  0.1317  0.4398 -0.1512
 4837TIP3   OH235925   6.403   5.697   2.694  0.4357 -0.2511  0.4290
 4837TIP3    H135926   6.311   5.677   2.710  0.3686 -1.6074 -1.3073
 4837TIP3    H235927   6.405   5.792   2.681 -0.5321 -0.0723  1.4095
 4838TIP3   OH235928   1.451   5.287  13.322  0.0526  1.0853 -0.2227
 4838TIP3    H135929   1.500   5.298  13.240 -1.4050 -0.7603 -1.4341
 4838TIP3    H235930   1.372   5.338  13.310  0.0365  1.1731  0.2377
 4839TIP3   OH235931   5.290   3.047  17.315  0.1636 -0.0585 -0.6739
 4839TIP3    H135932   5.297   3.050  17.220  0.6999 -1.4264 -0.6890
 4839TIP3    H235933   5.263   2.957  17.335 -0.8359  0.4541  0.4196
 4840TIP3   OH235934   4.679   0.533  15.297 -0.0815 -0.3174  0.1757
 4840TIP3    H135935   4.607   0.472  15.315 -0.1029 -0.6635 -0.9776
 4840TIP3    H235936   4.749   0.508  15.357 -0.0767 -1.5213 -0.3150
 4841TIP3   OH235937   2.871   1.419   4.742 -0.3486 -0.3297  0.0071
 4841TIP3    H135938   2.820   1.488   4.785 -0.3770 -0.5800  0.3863
 4841TIP3    H235939   2.961   1.450   4.747 -0.0495 -1.3442  2.2721
 4842TIP3   OH235940   2.286   3.124  16.605 -0.4382 -0.2719 -0.0214
 4842TIP3    H135941   2.232   3.199  16.581  1.0120  0.5239 -0.9757
 4842TIP3    H235942   2.242   3.049  16.565 -0.8548  0.3486 -0.7531
 4843TIP3   OH235943   1.845   4.750  11.056 -0.1657 -0.4472 -0.4190
 4843TIP3    H135944   1.861   4.702  10.975 -0.1024 -0.4584 -0.3992
 4843TIP3    H235945   1.827   4.840  11.028 -0.0197 -0.4231 -0.4362
 4844TIP3   OH235946   2.633   2.798   1.720  0.3463  0.1860  0.1154
 4844TIP3    H135947   2.543   2.823   1.741  0.1577  1.8464 -2.2398
 4844TIP3    H235948   2.626   2.709   1.687 -0.5774  0.5086 -0.6227
 4845TIP3   OH235949   3.486   0.123   5.620 -0.6399  0.3068 -0.3474
 4845TIP3    H135950   3.410   0.103   5.675 -1.2552  1.8675 -0.5702
 4845TIP3    H235951   3.466   0.080   5.537 -0.9549  0.1389 -0.1900
 4846TIP3   OH235952   0.603   4.642  16.827 -0.5758 -0.7348 -0.2041
 4846TIP3    H135953   0.531   4.637  16.764 -1.8124 -2.2481  1.2241
 4846TIP3    H235954   0.628   4.550  16.841  0.1173 -0.3807  0.9983
 4847TIP3   OH235955   2.584   5.991  15.733  0.3686  0.1348 -0.0708
 4847TIP3    H135956   2.661   6.029  15.692  0.4451 -0.5937 -0.6056
 4847TIP3    H235957   2.531   6.067  15.759  1.4236  0.6485  0.6341
 4848TIP3   OH235958   4.825   6.550   4.737  0.3426  0.1418  0.4007
 4848TIP3    H135959   4.747   6.583   4.692  0.5847  0.0017 -0.1188
 4848TIP3    H235960   4.809   6.456   4.748  0.7820 -0.0291 -0.4048
 4849TIP3   OH235961   5.188   2.510   2.627  0.3507 -0.4207 -0.1654
 4849TIP3    H135962   5.186   2.514   2.722 -0.6824  1.7162 -0.2177
 4849TIP3    H235963   5.104   2.549   2.600  0.9153 -0.3649 -1.9584
 4850TIP3   OH235964   2.221   1.571   4.756 -0.5283 -0.4278  0.5955
 4850TIP3    H135965   2.210   1.663   4.733 -2.2094 -0.5464  0.7882
 4850TIP3    H235966   2.208   1.569   4.851 -0.3234 -0.8322  0.6151
 4851TIP3   OH235967   5.648   6.149   3.465  0.2118 -0.0351 -0.1244
 4851TIP3    H135968   5.731   6.152   3.417 -0.3367  1.2257 -1.0348
 4851TIP3    H235969   5.674   6.121   3.554  1.4855 -0.4955 -0.6127
 4852TIP3   OH235970   5.103   2.869  16.027  0.4148 -0.3488  0.3086
 4852TIP3    H135971   5.031   2.922  16.061  0.8435 -0.1647  0.9542
 4852TIP3    H235972   5.137   2.823  16.104  1.4619  0.1280  0.1503
 4853TIP3   OH235973   4.913   3.099   5.199  0.5890 -0.6926 -0.2473
 4853TIP3    H135974   4.851   3.105   5.126  0.3600  1.1528  0.0500
 4853TIP3    H235975   4.864   3.053   5.268  0.2720 -1.0756 -0.7174
 4854TIP3   OH235976   2.434   3.224   0.197  0.3605 -0.5032 -0.0028
 4854TIP3    H135977   2.480   3.295   0.151 -0.6997  0.3068  0.1284
 4854TIP3    H235978   2.488   3.205   0.273  0.0026  1.1215  0.6961
 4855TIP3   OH235979   4.646   3.436   2.039  0.0068  0.4189 -0.3044
 4855TIP3    H135980   4.711   3.367   2.058 -1.6136 -0.8408  1.0261
 4855TIP3    H235981   4.646   3.444   1.944  0.8083 -0.8838 -0.4406
 4856TIP3   OH235982   5.434   5.619  14.312 -0.2133  0.1518 -0.1651
 4856TIP3    H135983   5.505   5.679  14.286  0.1202 -0.6857 -1.2219
 4856TIP3    H235984   5.461   5.534  14.279 -2.6815  0.1393 -2.4804
 4857TIP3   OH235985   0.439   0.766   2.915 -0.3908 -0.1346 -0.9791
 4857TIP3    H135986   0.527   0.776   2.952 -0.4498  1.9571 -1.3202
 4857TIP3    H235987   0.454   0.739   2.824 -0.1042  0.2416 -1.0433
 4858TIP3   OH235988   6.444   2.075  12.368  0.2134  0.2498 -0.2854
 4858TIP3    H135989   6.357   2.106  12.392  1.7810  2.0186  4.0599
 4858TIP3    H235990   6.484   2.149  12.323  0.1295  0.0656 -0.6785
 4859TIP3   OH235991   4.609   3.380   1.465 -0.0838  0.0580  0.1890
 4859TIP3    H135992   4.703   3.393   1.454 -0.1824 -0.8339 -2.7653
 4859TIP3    H235993   4.592   3.293   1.428 -2.2502  0.9023 -1.0173
 4860TIP3   OH235994   1.578   0.574  15.929 -0.0932  0.2282  0.5376
 4860TIP3    H135995   1.664   0.572  15.887 -0.7862 -1.1135 -0.9628
 4860TIP3    H235996   1.538   0.656  15.898  0.7205  0.9742  1.4380
 4861TIP3   OH235997   1.994   4.998  16.181 -0.1547 -0.3638  0.3982
 4861TIP3    H135998   2.063   5.056  16.215  0.5907 -0.7772 -0.3840
 4861TIP3    H235999   1.936   5.056  16.131  0.4772 -0.2589 -0.2185
 4862TIP3   OH236000   0.864   1.245  14.109  0.2485  0.2860  0.8174
 4862TIP3    H136001   0.774   1.223  14.084  0.2746  1.5263 -0.4459
 4862TIP3    H236002   0.891   1.171  14.164 -0.8539 -1.0751 -0.3746
 4863TIP3   OH236003   4.492   3.212  13.768 -0.2791 -0.0086 -0.1223
 4863TIP3    H136004   4.419   3.226  13.828  0.3258  1.1386  0.3552
 4863TIP3    H236005   4.478   3.123  13.735 -0.9505 -0.4443  1.2515
 4864TIP3   OH236006   4.094   1.180  16.530 -0.2850  0.1594  0.2477
 4864TIP3    H136007   4.063   1.191  16.619 -1.0844  0.2616 -0.0402
 4864TIP3    H236008   4.044   1.243  16.478 -0.5883 -0.6151 -0.4388
 4865TIP3   OH236009   1.591   6.394  14.573  0.2389 -0.2115  0.5124
 4865TIP3    H136010   1.653   6.336  14.528 -1.4935 -0.9598 -1.0331
 4865TIP3    H236011   1.627   6.481  14.561  0.2301 -0.4666 -1.7567
 4866TIP3   OH236012   4.474   1.506  15.129 -0.3860 -0.1328  0.0881
 4866TIP3    H136013   4.526   1.484  15.052 -0.7008  2.8484 -1.1144
 4866TIP3    H236014   4.530   1.564  15.180 -0.3273 -1.7775  2.0013
 4867TIP3   OH236015   4.671   4.331   1.782 -0.6074 -0.6416 -0.0397
 4867TIP3    H136016   4.596   4.303   1.730 -0.4240 -1.2243 -0.0039
 4867TIP3    H236017   4.744   4.334   1.720 -1.0030  1.7536 -0.4946
 4868TIP3   OH236018   6.758   3.743   5.440  0.9978 -0.2880  0.0945
 4868TIP3    H136019   6.811   3.802   5.494  0.3557 -0.7811  1.3009
 4868TIP3    H236020   6.787   3.655   5.464 -0.9254 -0.6114  1.4526
 4869TIP3   OH236021   0.065   2.124   6.198 -0.3865  0.5759 -0.0148
 4869TIP3    H136022   0.113   2.091   6.122 -0.0111 -1.2737  0.9688
 4869TIP3    H236023   0.133   2.138   6.265 -0.9305  0.1809  0.6324
 4870TIP3   OH236024   5.424   3.900  14.185 -0.1429  0.2888  0.6612
 4870TIP3    H136025   5.406   3.807  14.173 -1.4762  0.5825  0.3020
 4870TIP3    H236026   5.492   3.919  14.120 -1.3426  0.0023 -0.7454
 4871TIP3   OH236027   5.796   0.768   1.295  0.2307 -0.2931  0.3126
 4871TIP3    H136028   5.746   0.849   1.298 -0.4995 -0.7216  0.0773
 4871TIP3    H236029   5.796   0.736   1.385 -0.0813 -0.3820  0.2824
 4872TIP3   OH236030   2.114   3.161  13.102  0.0065  0.0009 -0.3451
 4872TIP3    H136031   2.198   3.150  13.146 -0.6771 -0.1991  0.9514
 4872TIP3    H236032   2.063   3.217  13.160 -0.5439  0.6653 -1.4308
 4873TIP3   OH236033   6.139   3.387  11.474 -0.4281  0.3910 -0.8855
 4873TIP3    H136034   6.066   3.437  11.510  0.9265  1.4359  0.5491
 4873TIP3    H236035   6.131   3.301  11.516 -0.4563  0.7236 -0.1829
 4874TIP3   OH236036   6.628   5.066  16.115 -0.0353 -0.4150 -0.1266
 4874TIP3    H136037   6.536   5.072  16.088 -0.3246 -2.9936  0.0651
 4874TIP3    H236038   6.648   5.153  16.149 -1.7959  0.8029 -1.9698
 4875TIP3   OH236039   1.709   0.935   0.758  0.1505  0.3462 -0.3314
 4875TIP3    H136040   1.799   0.959   0.734  1.1480  0.0926  2.7028
 4875TIP3    H236041   1.666   1.019   0.774  0.7105  0.4272  0.8500
 4876TIP3   OH236042   4.604   1.080   5.538  0.4245 -0.8220  0.2134
 4876TIP3    H136043   4.607   1.097   5.443  0.1579 -1.6639  0.0520
 4876TIP3    H236044   4.682   1.122   5.572  0.6174 -0.6680 -0.4084
 4877TIP3   OH236045   5.840   1.761  11.171 -0.1859  0.8871  0.3542
 4877TIP3    H136046   5.933   1.782  11.171 -0.1012  0.5178  0.9783
 4877TIP3    H236047   5.799   1.833  11.218 -0.0968  0.5355  0.9723
 4878TIP3   OH236048   1.391   4.354   4.126 -0.4308  0.0666  0.5294
 4878TIP3    H136049   1.350   4.426   4.175 -2.6979  0.3398 -1.5871
 4878TIP3    H236050   1.459   4.396   4.074 -1.7592  0.7760 -0.7124
 4879TIP3   OH236051   2.020   4.385   0.496  0.2727 -0.5237  0.3464
 4879TIP3    H136052   2.001   4.298   0.530  0.8589 -0.5507  0.6104
 4879TIP3    H236053   2.031   4.372   0.402 -2.4234 -0.2845 -0.1007
 4880TIP3   OH236054   2.192   4.253  14.915 -0.3861 -0.3092  0.6017
 4880TIP3    H136055   2.206   4.169  14.958 -0.2127 -0.4411  0.2988
 4880TIP3    H236056   2.125   4.235  14.849 -0.8189 -0.0555  0.9663
 4881TIP3   OH236057   5.501   2.891  14.207 -0.1756  0.3866 -0.6602
 4881TIP3    H136058   5.449   2.972  14.203  0.9985  1.1606 -1.0411
 4881TIP3    H236059   5.560   2.905  14.282 -1.0099 -0.8015  0.2488
 4882TIP3   OH236060   5.234   5.345   3.922 -0.4722 -0.2020  0.1177
 4882TIP3    H136061   5.317   5.379   3.890  0.1039 -0.1873  1.5563
 4882TIP3    H236062   5.242   5.250   3.915 -0.5452 -0.1805 -0.2499
 4883TIP3   OH236063   1.374   6.305  17.384 -0.3699  0.5013 -0.0026
 4883TIP3    H136064   1.347   6.316  17.475 -0.7707 -3.0630  0.4324
 4883TIP3    H236065   1.314   6.361  17.335 -2.1443  0.2394  1.7328
 4884TIP3   OH236066   5.259   4.960  13.133  0.1346  1.0132 -0.6564
 4884TIP3    H136067   5.319   4.991  13.201 -1.3957 -0.2066  1.3657
 4884TIP3    H236068   5.219   5.040  13.098 -0.0491  1.6299  0.8776
 4885TIP3   OH236069   0.920   5.998  12.426 -0.3844  0.3025 -0.0522
 4885TIP3    H136070   0.906   5.995  12.521 -0.0167  1.3761  0.0477
 4885TIP3    H236071   0.994   6.057  12.415 -0.2021 -0.0815 -0.9985
 4886TIP3   OH236072   3.353   4.419   1.777 -0.4590  0.6252 -0.4177
 4886TIP3    H136073   3.370   4.429   1.683  1.2750  1.2737 -0.0831
 4886TIP3    H236074   3.263   4.447   1.789 -0.1740  2.1832 -1.6586
 4887TIP3   OH236075   2.359   2.868   3.089 -0.1825  0.1508  0.4004
 4887TIP3    H136076   2.384   2.783   3.053  0.0214  0.2871  0.2169
 4887TIP3    H236077   2.427   2.888   3.154  0.3578  0.6542 -0.3016
 4888TIP3   OH236078   2.552   1.179   3.484  0.4063 -0.1179  0.4161
 4888TIP3    H136079   2.476   1.159   3.538 -0.4636 -3.1942 -1.6709
 4888TIP3    H236080   2.627   1.158   3.539 -0.3062  0.4462  1.6282
 4889TIP3   OH236081   4.147   0.204   6.538 -0.0664 -0.6820  0.1461
 4889TIP3    H136082   4.052   0.204   6.532 -0.0548  1.4110 -1.1493
 4889TIP3    H236083   4.170   0.294   6.560  1.6221 -1.1737  0.5637
 4890TIP3   OH236084   0.018   4.538   2.125 -0.3179  0.0946  0.0807
 4890TIP3    H136085   0.041   4.575   2.210  0.6034  0.7925 -0.4551
 4890TIP3    H236086  -0.054   4.592   2.094  1.0801  1.5827 -0.7400
 4891TIP3   OH236087   1.651   3.969  15.156  0.4016 -0.4311  0.0323
 4891TIP3    H136088   1.573   3.957  15.210 -0.1348 -1.0250 -0.8428
 4891TIP3    H236089   1.631   3.922  15.075  1.1307  0.5542 -0.7342
 4892TIP3   OH236090   5.759   5.787  12.012 -0.3806  0.2690  0.1099
 4892TIP3    H136091   5.803   5.853  11.959 -0.7225  0.0987 -0.3934
 4892TIP3    H236092   5.720   5.727  11.948 -0.3731 -0.2170  0.5571
 4893TIP3   OH236093   6.498   5.933   0.494 -0.0857 -0.9775 -0.2588
 4893TIP3    H136094   6.445   5.863   0.455  0.2921 -0.8283 -1.0514
 4893TIP3    H236095   6.449   5.959   0.572 -1.1478 -0.9066 -0.9265
 4894TIP3   OH236096   0.239   4.396   2.599 -0.0256  0.0425 -0.1918
 4894TIP3    H136097   0.236   4.413   2.694 -1.1953  2.7608 -0.6050
 4894TIP3    H236098   0.320   4.347   2.586  0.3692 -0.0604  2.1625
 4895TIP3   OH236099   2.750   3.564   3.918 -1.0594  0.2319  0.2968
 4895TIP3    H136100   2.814   3.533   3.855 -1.4959  1.2722 -0.6920
 4895TIP3    H236101   2.788   3.544   4.003  0.1693  0.0477 -0.2838
 4896TIP3   OH236102   5.786   5.755   3.501 -0.3379  0.0027 -0.1062
 4896TIP3    H136103   5.856   5.691   3.510 -0.3579  0.1455  1.3282
 4896TIP3    H236104   5.832   5.838   3.489 -0.2000  0.1881  1.4431
 4897TIP3   OH236105   5.350   6.423   2.823 -0.1095  0.0158  0.0120
 4897TIP3    H136106   5.429   6.465   2.787 -0.4659  0.0730 -0.7204
 4897TIP3    H236107   5.294   6.496   2.849  0.0710 -0.0254  0.5322
 4898TIP3   OH236108   4.700   2.639   4.314  0.0684 -0.6476 -0.9997
 4898TIP3    H136109   4.674   2.704   4.249  0.8773  1.5213  0.6867
 4898TIP3    H236110   4.617   2.606   4.349 -0.3646 -0.4030 -1.7670
 4899TIP3   OH236111   3.384   3.918  14.791 -0.4468  0.6580 -0.1731
 4899TIP3    H136112   3.372   3.991  14.731  0.1425  0.5549 -0.4270
 4899TIP3    H236113   3.434   3.853  14.740  2.7796  1.7638  1.2832
 4900TIP3   OH236114   0.805   2.636  13.583  0.0032 -0.0060  0.4661
 4900TIP3    H136115   0.850   2.552  13.592 -2.8137 -1.6453  0.5177
 4900TIP3    H236116   0.725   2.626  13.634 -0.9902  2.2943 -0.5064
 4901TIP3   OH236117   0.343   1.904  17.081 -0.3365  0.2623 -0.1822
 4901TIP3    H136118   0.417   1.909  17.141 -1.2349  0.3088  0.9711
 4901TIP3    H236119   0.314   1.995  17.071 -1.7826  0.0357  1.4374
 4902TIP3   OH236120   5.263   0.844  13.183  0.2274 -0.1987  0.1593
 4902TIP3    H136121   5.258   0.790  13.104  1.1842 -1.9751  1.2400
 4902TIP3    H236122   5.271   0.781  13.255  0.8711  1.3813  1.5499
 4903TIP3   OH236123   4.016   5.557   4.503 -0.3935 -0.4130  0.5059
 4903TIP3    H136124   4.045   5.507   4.579 -1.0474 -1.1037  0.3147
 4903TIP3    H236125   3.974   5.635   4.540  1.4345  0.4828  0.7852
 4904TIP3   OH236126   0.238   2.257   2.475  0.3217  0.1314 -0.5395
 4904TIP3    H136127   0.231   2.291   2.564  4.0449  0.3890 -0.1807
 4904TIP3    H236128   0.191   2.174   2.477 -0.5353  0.6071  1.3679
 4905TIP3   OH236129   4.114   2.507  13.684  0.0370 -0.2619 -0.2672
 4905TIP3    H136130   4.050   2.569  13.648 -0.0632  0.0732  0.4609
 4905TIP3    H236131   4.139   2.452  13.610 -0.5776  0.0502 -0.7160
 4906TIP3   OH236132   1.998   1.109   2.673 -0.1597  0.3197 -0.2741
 4906TIP3    H136133   1.935   1.042   2.696  0.5256 -1.1229 -2.2776
 4906TIP3    H236134   1.948   1.191   2.675 -2.2602 -0.8029 -2.2164
 4907TIP3   OH236135   1.464   5.215  16.209  0.3140  0.0560 -0.1438
 4907TIP3    H136136   1.378   5.174  16.205 -0.1445  0.8968  0.7251
 4907TIP3    H236137   1.510   5.182  16.131  0.5216 -3.2890  1.2136
 4908TIP3   OH236138   4.873   2.239   2.323 -0.5441 -0.5081  0.5723
 4908TIP3    H136139   4.927   2.298   2.270 -3.4951  1.8409 -0.1121
 4908TIP3    H236140   4.819   2.192   2.260 -0.9786 -1.0237  1.3097
 4909TIP3   OH236141   3.280   0.784  12.733 -0.0700  0.1048 -0.3804
 4909TIP3    H136142   3.373   0.803  12.721 -0.6056  1.4530 -3.7242
 4909TIP3    H236143   3.242   0.866  12.763 -0.2882 -0.2239  0.2503
 4910TIP3   OH236144   3.937   6.211   4.365 -0.2658 -0.5368  0.5138
 4910TIP3    H136145   3.967   6.299   4.340  1.1385 -1.0390  0.3329
 4910TIP3    H236146   3.842   6.213   4.351 -0.1271  0.6497 -0.4238
 4911TIP3   OH236147   1.194   0.240  14.949  0.5331  0.0925  0.5306
 4911TIP3    H136148   1.205   0.174  14.881  0.9884  0.3749  0.3274
 4911TIP3    H236149   1.279   0.245  14.991  0.4489  0.4238  0.6629
 4912TIP3   OH236150   4.734   1.385  13.830 -0.2504 -0.0825  0.3087
 4912TIP3    H136151   4.723   1.297  13.795 -0.3523  0.5589 -1.3949
 4912TIP3    H236152   4.648   1.426  13.820 -0.2603  0.1657  1.2749
 4913TIP3   OH236153   6.710   2.755   1.969 -0.1564 -0.2385  0.1385
 4913TIP3    H136154   6.770   2.771   2.041 -0.4277 -1.9754  0.7859
 4913TIP3    H236155   6.653   2.685   2.000  1.4111 -3.0328 -2.6762
 4914TIP3   OH236156   1.884   0.813  16.887 -0.2288  0.3541 -0.2929
 4914TIP3    H136157   1.867   0.752  16.959 -0.2104  0.5979 -0.0820
 4914TIP3    H236158   1.797   0.834  16.853 -0.2242  0.0662 -0.4857
 4915TIP3   OH236159   0.303   5.046  17.315  0.1251  0.1731 -0.4847
 4915TIP3    H136160   0.325   5.019  17.405  0.9930  1.8321 -0.1693
 4915TIP3    H236161   0.313   5.141  17.315  0.5099  0.1690 -2.4539
 4916TIP3   OH236162   1.110   5.088  12.800  0.1356 -0.0978 -0.6652
 4916TIP3    H136163   1.201   5.117  12.801  0.2650 -0.4859  0.6089
 4916TIP3    H236164   1.088   5.080  12.707  1.8506 -1.3849 -0.9956
 4917TIP3   OH236165   5.701   3.039   1.349 -0.7549 -0.0643  0.0522
 4917TIP3    H136166   5.733   3.128   1.333 -1.7212  0.5716  1.3787
 4917TIP3    H236167   5.743   3.013   1.431 -0.2801 -0.9414 -0.4653
 4918TIP3   OH236168   5.916   0.857  13.363 -0.4473 -0.2755 -0.6291
 4918TIP3    H136169   5.934   0.951  13.369  0.9140 -0.5680  0.5426
 4918TIP3    H236170   5.980   0.824  13.301 -1.0703 -0.4160 -1.2096
 4919TIP3   OH236171   5.135   1.252  16.464  0.3356 -0.5140 -0.5319
 4919TIP3    H136172   5.161   1.324  16.406 -1.0103 -0.0137 -0.5636
 4919TIP3    H236173   5.215   1.228  16.510  0.9138  0.7060 -0.8485
 4920TIP3   OH236174   3.261   0.546  16.463  0.4147 -0.5547 -0.2604
 4920TIP3    H136175   3.288   0.604  16.392 -1.3641  0.8581  0.1494
 4920TIP3    H236176   3.335   0.546  16.524  1.3818 -0.6407 -1.4025
 4921TIP3   OH236177   6.168   0.057  12.542  0.0116 -0.2683 -0.1811
 4921TIP3    H136178   6.243   0.107  12.510 -0.3055  0.0156 -0.4898
 4921TIP3    H236179   6.116   0.038  12.464  0.5946 -1.8868 -0.2077
 4922TIP3   OH236180   2.162   5.234   6.775  0.4607 -0.0386  0.5138
 4922TIP3    H136181   2.221   5.310   6.777  0.0763  0.2501  1.8517
 4922TIP3    H236182   2.208   5.169   6.721  1.3126  0.7195  0.3001
 4923TIP3   OH236183   2.265   1.190  16.408 -0.1432 -0.5136 -0.2925
 4923TIP3    H136184   2.226   1.237  16.482 -2.8664 -0.4468 -1.6234
 4923TIP3    H236185   2.253   1.249  16.334  1.2551 -1.1530 -1.0607
 4924TIP3   OH236186   2.149   4.871  14.274 -0.0979  0.8153  0.5466
 4924TIP3    H136187   2.054   4.872  14.284 -0.0500  0.4656  1.0924
 4924TIP3    H236188   2.180   4.944  14.327  0.0450 -0.0621  1.6984
 4925TIP3   OH236189   1.996   1.447   1.824  0.3274 -0.3363  0.2857
 4925TIP3    H136190   1.911   1.404   1.812 -0.7864  1.5580  0.9340
 4925TIP3    H236191   2.011   1.491   1.741 -1.2665  2.4586  1.3471
 4926TIP3   OH236192   3.347   1.345  15.822  0.2895  0.2207  0.2594
 4926TIP3    H136193   3.351   1.255  15.854 -1.2317 -0.1790 -0.5467
 4926TIP3    H236194   3.260   1.351  15.781  1.2153  1.3847 -1.6646
 4927TIP3   OH236195   0.426   5.399   3.426  0.6122  0.2442  0.1886
 4927TIP3    H136196   0.450   5.490   3.441 -0.2168  0.4105  0.5565
 4927TIP3    H236197   0.436   5.357   3.511  0.1801  0.1864  0.2129
 4928TIP3   OH236198   3.898   1.870  15.839  0.3026 -0.0295 -0.3539
 4928TIP3    H136199   3.869   1.848  15.750 -1.0292 -0.5561  0.1885
 4928TIP3    H236200   3.823   1.849  15.895  0.3280  2.3240  0.6681
 4929TIP3   OH236201   6.548   3.379   4.682 -0.1241 -0.0180  0.1975
 4929TIP3    H136202   6.546   3.306   4.620  1.3002  0.4581 -0.4353
 4929TIP3    H236203   6.478   3.437   4.653  1.1040  0.6465 -1.5650
 4930TIP3   OH236204   6.291   6.433   1.864 -0.2447  0.0347  0.0380
 4930TIP3    H136205   6.243   6.499   1.815  1.3803  0.2419 -1.3705
 4930TIP3    H236206   6.313   6.477   1.947  0.5249  1.1844 -0.7368
 4931TIP3   OH236207   5.138   2.512   2.911  0.0895 -0.2332 -0.0887
 4931TIP3    H136208   5.060   2.513   2.966  0.8835 -1.1141  1.0925
 4931TIP3    H236209   5.153   2.604   2.888 -0.1710  0.1799  1.3139
 4932TIP3   OH236210   5.827   6.268   6.123  0.9724  0.5596  0.3736
 4932TIP3    H136211   5.771   6.277   6.200  1.1178 -0.8304  0.6649
 4932TIP3    H236212   5.831   6.356   6.086 -2.2734  0.5533 -0.2834
 4933TIP3   OH236213   4.166   5.588   2.230  0.4071 -0.2841  0.0265
 4933TIP3    H136214   4.260   5.597   2.210  0.7925 -0.4101  1.6115
 4933TIP3    H236215   4.163   5.523   2.300 -0.7596  0.5948  0.8187
 4934TIP3   OH236216   5.659   3.629   1.887  1.0540 -0.1288  0.6540
 4934TIP3    H136217   5.695   3.714   1.861 -2.6440  0.9654 -1.6892
 4934TIP3    H236218   5.690   3.569   1.819  0.0752  0.3706 -0.2526
 4935TIP3   OH236219   1.993   4.227  12.232  0.1400  0.2982  0.6278
 4935TIP3    H136220   1.995   4.285  12.308  1.0173 -0.5257  1.2573
 4935TIP3    H236221   1.902   4.198  12.227  0.1759 -0.0535  1.7012
 4936TIP3   OH236222   0.069   2.849   5.630 -0.3775  0.2557 -0.0462
 4936TIP3    H136223   0.039   2.937   5.651 -0.8793 -0.3886  2.1463
 4936TIP3    H236224   0.164   2.852   5.642 -0.6928 -0.2824  3.5162
 4937TIP3   OH236225   3.434   5.974   5.713  0.3789  0.0859  0.4063
 4937TIP3    H136226   3.448   5.959   5.620  1.2399  0.3226  0.4847
 4937TIP3    H236227   3.485   5.905   5.756  0.5040  0.3620  0.7063
 4938TIP3   OH236228   6.700   2.963  15.643 -0.0652 -0.7407  0.1943
 4938TIP3    H136229   6.607   2.967  15.619 -0.5751 -1.9096  1.8720
 4938TIP3    H236230   6.723   3.054  15.663 -0.4074 -0.1977 -1.6397
 4939TIP3   OH236231   6.418   0.649   3.579  0.2064  0.7496  0.0311
 4939TIP3    H136232   6.354   0.654   3.650  1.1867  1.0246  0.9301
 4939TIP3    H236233   6.500   0.623   3.622  0.5304 -0.3608 -1.2015
 4940TIP3   OH236234   5.975   6.192   5.555 -0.3314  0.5066  0.0704
 4940TIP3    H136235   5.950   6.285   5.556  0.0134  0.6209 -1.0529
 4940TIP3    H236236   5.933   6.156   5.633 -0.3973  1.6230  0.5760
 4941TIP3   OH236237   5.703   0.905  17.034  0.4318  0.7578  0.0722
 4941TIP3    H136238   5.718   0.836  17.099 -2.0722 -1.5095 -1.5653
 4941TIP3    H236239   5.646   0.968  17.078 -1.3177 -0.7965  0.1219
 4942TIP3   OH236240   4.789   5.076  13.170 -0.0220 -0.6162 -0.3190
 4942TIP3    H136241   4.840   5.044  13.244  0.9269  1.2088 -0.1306
 4942TIP3    H236242   4.703   5.097  13.206  0.1116 -0.6948  0.0457
 4943TIP3   OH236243   2.913   1.661   1.096  0.4240 -0.1456 -0.3221
 4943TIP3    H136244   2.994   1.683   1.141  2.3693 -3.0046 -2.0955
 4943TIP3    H236245   2.881   1.583   1.141 -0.6384  0.1818 -0.4847
 4944TIP3   OH236246   6.248   5.686  11.103  0.7377  0.4216  0.0339
 4944TIP3    H136247   6.225   5.779  11.105  0.1041  0.3242 -1.6775
 4944TIP3    H236248   6.180   5.643  11.154  1.0524  0.8873  0.8658
 4945TIP3   OH236249   6.038   0.451   3.064  0.2438  0.3813 -0.1892
 4945TIP3    H136250   6.095   0.525   3.084  1.1867  0.3934 -2.5552
 4945TIP3    H236251   5.973   0.488   3.003 -1.0818 -0.1024  0.8850
 4946TIP3   OH236252   1.363   2.138   4.904  0.2196  0.2469  0.0972
 4946TIP3    H136253   1.367   2.046   4.877  0.1543 -0.0939  1.2047
 4946TIP3    H236254   1.425   2.144   4.976 -0.4600  0.8502  0.6428
 4947TIP3   OH236255   5.931   2.518   2.134  0.6460  0.5683 -0.7310
 4947TIP3    H136256   6.023   2.495   2.147  0.3587 -0.7712 -0.9399
 4947TIP3    H236257   5.911   2.487   2.046  0.5650  2.8428 -1.5669
 4948TIP3   OH236258   5.214   1.802   5.336 -0.4053  0.2196  0.0532
 4948TIP3    H136259   5.165   1.729   5.298  0.8943 -0.8781  0.4169
 4948TIP3    H236260   5.184   1.806   5.427 -0.6781  0.3181 -0.0408
 4949TIP3   OH236261   0.638   3.303   3.412 -0.1785 -0.2963 -0.1424
 4949TIP3    H136262   0.616   3.234   3.475  0.5951  2.1347  3.1126
 4949TIP3    H236263   0.562   3.361   3.413  0.2973  0.3541 -0.5795
 4950TIP3   OH236264   1.699   0.024  17.092 -0.2396  0.4012 -0.2633
 4950TIP3    H136265   1.750   0.018  17.011 -0.7186 -0.3650 -0.5266
 4950TIP3    H236266   1.743  -0.034  17.153  0.4181  1.3714  0.2074
 4951TIP3   OH236267   6.233   0.373   1.236  0.3316 -0.4149 -0.3694
 4951TIP3    H136268   6.295   0.437   1.271  0.2485 -1.1591  1.2561
 4951TIP3    H236269   6.223   0.396   1.144  2.0904  0.4601 -0.3792
 4952TIP3   OH236270   5.091   0.959   2.903 -0.6371  0.1325  0.0778
 4952TIP3    H136271   5.011   0.931   2.948 -0.6529 -2.3113 -1.2906
 4952TIP3    H236272   5.095   1.054   2.918 -2.2007 -0.1002  2.6201
 4953TIP3   OH236273   5.673   6.353  16.584  0.2120 -0.1442  1.2572
 4953TIP3    H136274   5.707   6.426  16.637  0.5844  0.1033  0.6850
 4953TIP3    H236275   5.746   6.291  16.580  1.2411  1.0961 -1.3168
 4954TIP3   OH236276   6.514   5.379   0.605  0.5612 -0.0671  0.0984
 4954TIP3    H136277   6.542   5.389   0.696  1.9909  2.3333 -0.5088
 4954TIP3    H236278   6.453   5.306   0.606 -1.1302  1.2092  3.3697
 4955TIP3   OH236279   2.414   3.713   3.101  0.0329 -0.5890  0.1064
 4955TIP3    H136280   2.506   3.731   3.122 -0.1319 -0.4367  0.6939
 4955TIP3    H236281   2.393   3.777   3.033 -0.3109  0.9538  1.6070
 4956TIP3   OH236282   3.909   5.061   1.286 -0.4075 -0.0388 -0.1462
 4956TIP3    H136283   3.998   5.041   1.255  0.1004  1.9935 -0.1525
 4956TIP3    H236284   3.867   4.976   1.295  1.3929 -1.0277 -0.6014
 4957TIP3   OH236285   3.920   3.812   5.802 -0.1282  0.9113 -0.1621
 4957TIP3    H136286   3.883   3.723   5.797 -0.3523  0.9149  1.0476
 4957TIP3    H236287   4.015   3.799   5.805 -0.1855  0.6511  0.8256
 4958TIP3   OH236288   3.786   5.144  15.968  0.4937 -0.5037 -0.7784
 4958TIP3    H136289   3.771   5.089  15.891  0.5240  0.3008 -1.3764
 4958TIP3    H236290   3.789   5.083  16.042 -0.3621 -1.2062 -1.3090
 4959TIP3   OH236291   5.271   6.430   5.131  0.6116  0.0463 -0.3529
 4959TIP3    H136292   5.206   6.375   5.173  0.9357 -0.1326 -0.0802
 4959TIP3    H236293   5.350   6.420   5.185  0.8303  0.3510 -0.6086
 4960TIP3   OH236294   2.390   2.164   3.097 -0.4018  0.3869 -0.0462
 4960TIP3    H136295   2.456   2.233   3.094  1.8918 -1.6863 -1.9665
 4960TIP3    H236296   2.355   2.160   3.008 -0.7286 -0.6774  0.1175
 4961TIP3   OH236297   4.470   4.255   3.263 -0.3091  0.7087 -0.1966
 4961TIP3    H136298   4.481   4.308   3.343  0.4158 -2.0166  1.6674
 4961TIP3    H236299   4.559   4.245   3.229  0.1351 -1.9412  1.4320
 4962TIP3   OH236300   6.660   4.034   6.026 -0.2861 -0.3218  0.1012
 4962TIP3    H136301   6.606   3.987   5.963 -0.3189 -0.6354  0.3574
 4962TIP3    H236302   6.682   3.968   6.092  0.7607 -0.3042 -0.2120
 4963TIP3   OH236303   0.108   1.296  14.518  0.1839 -0.3424  0.7265
 4963TIP3    H136304   0.202   1.312  14.512  0.5249 -1.3488  2.7189
 4963TIP3    H236305   0.072   1.335  14.438  2.2911 -0.0757 -0.1525
 4964TIP3   OH236306   3.499   4.527  16.753 -0.6156  0.3207  0.3384
 4964TIP3    H136307   3.544   4.590  16.810 -1.7960  0.0212  1.6779
 4964TIP3    H236308   3.435   4.485  16.811 -1.2594 -0.6393 -1.0275
 4965TIP3   OH236309   4.145   1.050   6.788 -0.2258 -0.1790  0.0857
 4965TIP3    H136310   4.088   1.001   6.729 -0.3381  0.8363 -0.6729
 4965TIP3    H236311   4.135   1.141   6.761 -0.4525  0.3517  1.8179
 4966TIP3   OH236312   5.633   3.303  13.126 -0.0597 -0.3451  0.2228
 4966TIP3    H136313   5.582   3.274  13.050  1.0044  2.0142 -1.5036
 4966TIP3    H236314   5.702   3.238  13.135  2.6488  1.5704 -3.9203
 4967TIP3   OH236315   0.114   1.383   4.548 -0.6182 -0.6646 -0.1772
 4967TIP3    H136316   0.138   1.452   4.610  0.5848 -1.2176  0.0032
 4967TIP3    H236317   0.150   1.413   4.464 -0.1365 -1.0351 -0.1081
 4968TIP3   OH236318   0.970   2.676  14.734 -0.2129 -0.0021 -0.5489
 4968TIP3    H136319   1.052   2.642  14.771 -0.3170  0.9377  0.6344
 4968TIP3    H236320   0.911   2.601  14.732  0.4729 -0.5445 -0.7984
 4969TIP3   OH236321   5.704   5.290  11.181  0.3822  0.2985 -0.1993
 4969TIP3    H136322   5.649   5.279  11.259 -0.7632  0.9850 -0.8771
 4969TIP3    H236323   5.755   5.370  11.199  0.4833  0.1790  0.0463
 4970TIP3   OH236324   5.761   2.229   3.989 -0.1385  0.1761  0.2395
 4970TIP3    H136325   5.761   2.235   3.893 -1.0880 -0.2822  0.2002
 4970TIP3    H236326   5.773   2.136   4.008  1.9075  0.4555  0.6275
 4971TIP3   OH236327   0.057   2.518   4.301  0.6146 -0.1055  0.2897
 4971TIP3    H136328   0.092   2.597   4.342  0.7127 -1.3605  2.8511
 4971TIP3    H236329  -0.038   2.531   4.301  0.3130 -1.1679  3.7806
 4972TIP3   OH236330   1.712   5.424  12.761 -0.1895  0.5103 -0.1199
 4972TIP3    H136331   1.799   5.428  12.721 -0.4543  0.3657 -0.7311
 4972TIP3    H236332   1.717   5.351  12.823  0.3414  0.9790  0.3938
 4973TIP3   OH236333   4.127   4.671  15.044  0.5665 -0.0136  0.7647
 4973TIP3    H136334   4.065   4.723  15.095 -0.9630 -1.8274  0.8898
 4973TIP3    H236335   4.202   4.659  15.102 -0.0633  0.0995  1.6267
 4974TIP3   OH236336   2.378   3.894  16.484 -0.0694 -0.1229  0.2521
 4974TIP3    H136337   2.433   3.817  16.471 -0.5736 -0.5242  0.4865
 4974TIP3    H236338   2.386   3.943  16.402 -1.0943 -1.2793 -0.5812
 4975TIP3   OH236339   4.939   2.296   1.792 -0.0077  0.3525 -0.0818
 4975TIP3    H136340   4.970   2.225   1.848 -0.2552 -1.0534 -1.6407
 4975TIP3    H236341   4.882   2.347   1.849 -0.8414 -1.4353  0.7949
 4976TIP3   OH236342   1.235   0.966  11.715 -0.8028 -0.3754  0.3152
 4976TIP3    H136343   1.233   1.045  11.661 -0.2247 -1.1213 -0.8503
 4976TIP3    H236344   1.320   0.967  11.758 -0.9173 -0.2093  0.5363
 4977TIP3   OH236345   1.990   0.191   1.354  0.2105 -0.3577 -0.8107
 4977TIP3    H136346   1.930   0.247   1.306  2.0049  0.4702 -2.2118
 4977TIP3    H236347   1.991   0.226   1.443 -0.5200  0.3120 -1.0638
 4978TIP3   OH236348   1.184   6.361  13.073  0.4982 -0.1147 -0.0226
 4978TIP3    H136349   1.119   6.291  13.068 -0.7559  1.0738 -1.8793
 4978TIP3    H236350   1.244   6.343  13.000  1.9886 -0.8887  1.3352
 4979TIP3   OH236351   3.913   3.191   6.364 -0.4382  0.1475 -0.1793
 4979TIP3    H136352   3.904   3.285   6.378 -1.5188  0.1171 -0.5477
 4979TIP3    H236353   3.949   3.184   6.275 -2.9033  0.2190 -1.2768
 4980TIP3   OH236354   0.456   2.840  13.603  0.0385 -0.5390  1.0493
 4980TIP3    H136355   0.450   2.921  13.653  0.3024  0.4648 -0.4726
 4980TIP3    H236356   0.495   2.866  13.520  0.4341 -2.2939  0.6371
 4981TIP3   OH236357   4.798   4.845  11.157  0.2427  0.1854 -0.4600
 4981TIP3    H136358   4.829   4.756  11.170 -1.4537 -0.2605  0.9447
 4981TIP3    H236359   4.791   4.855  11.062 -0.5207 -1.5686 -0.6306
 4982TIP3   OH236360   5.769   3.180   5.136 -0.0301 -0.1640  0.2405
 4982TIP3    H136361   5.674   3.171   5.146  0.0076 -1.9100 -0.6279
 4982TIP3    H236362   5.787   3.271   5.160 -2.2426  0.9834 -2.0029
 4983TIP3   OH236363   5.298   5.156  12.105 -0.3570 -0.4123 -0.6300
 4983TIP3    H136364   5.373   5.213  12.087  0.1281 -1.2118 -1.1728
 4983TIP3    H236365   5.336   5.074  12.135 -0.9997 -0.9738 -1.3080
 4984TIP3   OH236366   3.651   6.401   0.416 -0.2592 -0.3545  0.3034
 4984TIP3    H136367   3.573   6.448   0.446 -0.1308 -0.1197  0.2691
 4984TIP3    H236368   3.621   6.311   0.404 -1.5428  0.3743 -3.3616
 4985TIP3   OH236369   6.721   0.496   3.433 -0.1655 -0.0330  0.2208
 4985TIP3    H136370   6.734   0.584   3.398 -1.7006 -0.3637 -1.3462
 4985TIP3    H236371   6.696   0.509   3.524  0.8140  1.0625  0.3552
 4986TIP3   OH236372   1.133   1.413  13.427  0.4190 -0.0933 -0.1045
 4986TIP3    H136373   1.064   1.468  13.465  1.2635  0.3216  0.8657
 4986TIP3    H236374   1.112   1.325  13.458  0.5830  0.1052  0.5951
 4987TIP3   OH236375   2.656   4.276   4.779  0.6126  0.0276  0.2157
 4987TIP3    H136376   2.691   4.282   4.690  0.6172 -0.0595  0.2111
 4987TIP3    H236377   2.581   4.334   4.779  1.2204  0.8346  0.4501
 4988TIP3   OH236378   6.144   2.732   0.856  0.0183 -0.0158  0.2299
 4988TIP3    H136379   6.206   2.802   0.878  0.7705 -0.4740 -0.3730
 4988TIP3    H236380   6.098   2.765   0.779 -0.0064  0.0397  0.2682
 4989TIP3   OH236381   5.201   5.073   5.338 -0.2367  0.1963 -0.2610
 4989TIP3    H136382   5.220   5.159   5.301 -0.4702  0.7039  0.7661
 4989TIP3    H236383   5.105   5.068   5.340 -0.2540 -0.7473 -1.7662
 4990TIP3   OH236384   5.593   3.974   3.780  0.1486 -0.5464 -0.2718
 4990TIP3    H136385   5.596   3.987   3.875  0.3171  1.4126 -0.4889
 4990TIP3    H236386   5.502   3.951   3.762  0.1190 -0.9498  0.3652
 4991TIP3   OH236387   4.344   4.821   2.539  0.7325  0.3407  0.0632
 4991TIP3    H136388   4.319   4.895   2.595 -0.2920  0.1176 -0.0735
 4991TIP3    H236389   4.376   4.754   2.599 -2.6698 -0.8768  0.7641
 4992TIP3   OH236390   5.204   2.540  15.920 -0.4219 -0.4855 -0.0530
 4992TIP3    H136391   5.120   2.570  15.955 -0.2259  1.1224 -0.8689
 4992TIP3    H236392   5.197   2.553  15.826  0.9193  0.1343 -0.0922
 4993TIP3   OH236393   0.106   2.085   1.510 -0.1676  0.5093  0.9010
 4993TIP3    H136394   0.163   2.037   1.570 -1.0279 -0.3446  1.0768
 4993TIP3    H236395   0.028   2.105   1.562  0.2318  2.2763  0.8745
 4994TIP3   OH236396   1.502   2.270  16.510 -0.2571  0.0711  0.6992
 4994TIP3    H136397   1.428   2.316  16.471  0.1560 -0.3543 -0.6422
 4994TIP3    H236398   1.511   2.190  16.458  1.0777  0.0666  0.8905
 4995TIP3   OH236399   2.621   2.544   1.645  0.4031  0.0870  0.4697
 4995TIP3    H136400   2.679   2.472   1.620  0.4781  0.2463  0.1801
 4995TIP3    H236401   2.533   2.506   1.646  0.3292  0.2109 -0.5940
 4996TIP3   OH236402   0.442   0.629   1.011 -0.1208 -0.2026  0.5810
 4996TIP3    H136403   0.456   0.670   1.096 -1.4370 -0.0264  0.7286
 4996TIP3    H236404   0.349   0.640   0.994 -0.6339 -3.3196  0.7579
 4997TIP3   OH236405   3.946   5.053   3.898 -0.4529  0.4678 -0.4724
 4997TIP3    H136406   3.877   5.095   3.949 -0.2949  0.5484 -0.3247
 4997TIP3    H236407   3.914   5.055   3.807 -0.9611 -0.1283 -0.3143
 4998TIP3   OH236408   1.027   0.564   3.680  0.5313 -0.2760  0.5312
 4998TIP3    H136409   0.966   0.506   3.634  1.3616 -0.9228  0.2379
 4998TIP3    H236410   1.078   0.605   3.610  0.6148  0.0717  0.7943
 4999TIP3   OH236411   1.709   0.257   3.638 -0.0083  0.0017 -0.2046
 4999TIP3    H136412   1.801   0.261   3.666 -0.4019  1.6886  1.0540
 4999TIP3    H236413   1.705   0.181   3.581  2.2496  0.0813 -0.5891
 5000TIP3   OH236414   2.740   1.219  12.422  1.0243 -0.3323  0.1757
 5000TIP3    H136415   2.649   1.234  12.449  0.6873 -2.8123  0.6169
 5000TIP3    H236416   2.735   1.202  12.328  0.5193 -3.4103  0.6492
 5001TIP3   OH236417   2.368   4.120  11.336  0.2292 -0.0221 -0.8473
 5001TIP3    H136418   2.364   4.026  11.318  1.1192 -0.0904 -0.7185
 5001TIP3    H236419   2.356   4.127  11.431 -0.8148  0.0754 -0.9740
 5002TIP3   OH236420   3.322   4.170  13.985 -0.0906  0.2756  0.2180
 5002TIP3    H136421   3.277   4.244  13.945  0.6181  0.5743 -0.0483
 5002TIP3    H236422   3.351   4.116  13.911 -0.0842  0.0442  0.3859
 5003TIP3   OH236423   3.317   1.369  13.327  0.0892 -0.4736  0.4124
 5003TIP3    H136424   3.283   1.424  13.398 -1.2193  0.1255 -0.6306
 5003TIP3    H236425   3.308   1.279  13.361  1.6794 -0.1378  1.8879
 5004TIP3   OH236426   2.377   3.821  11.331 -0.1339  0.0863 -0.5379
 5004TIP3    H136427   2.422   3.820  11.247  0.3380  2.2530 -0.3819
 5004TIP3    H236428   2.443   3.789  11.394  0.1965  0.3789 -0.7300
 5005TIP3   OH236429   6.119   6.173   3.825  0.2499 -0.1304 -0.3661
 5005TIP3    H136430   6.146   6.161   3.734  2.5027  0.3120  0.1857
 5005TIP3    H236431   6.196   6.209   3.869  0.0761 -2.6308  2.2743
 5006TIP3   OH236432   1.418   3.386   2.755  0.0675  0.1720 -0.2099
 5006TIP3    H136433   1.463   3.456   2.707 -3.4950  1.2587 -2.3314
 5006TIP3    H236434   1.436   3.406   2.847  1.8811  1.8814 -0.8410
 5007TIP3   OH236435   2.447   3.802   2.024 -0.3116  0.7313 -0.4643
 5007TIP3    H136436   2.504   3.727   2.010  0.5456  1.2252  0.3511
 5007TIP3    H236437   2.504   3.878   2.016 -0.8213  1.2269  0.4713
 5008TIP3   OH236438   0.341   3.075   3.316  0.2336 -0.2302 -0.5469
 5008TIP3    H136439   0.356   3.144   3.251 -0.4409  0.6550  0.1944
 5008TIP3    H236440   0.247   3.080   3.333  0.3759 -0.5736  0.3562
 5009TIP3   OH236441   2.790   5.675   2.245 -0.8007  0.4128  0.7838
 5009TIP3    H136442   2.793   5.760   2.288 -0.6198  0.7737  0.0676
 5009TIP3    H236443   2.710   5.634   2.277 -0.2558  0.3328  2.0976
 5010TIP3   OH236444   4.760   2.466  13.104 -0.2924 -0.2997  0.4432
 5010TIP3    H136445   4.726   2.422  13.182 -1.8947  0.6632  0.3297
 5010TIP3    H236446   4.714   2.423  13.031  1.2485 -1.2469 -0.0052
 5011TIP3   OH236447   5.705   4.647   0.867  0.5045  0.1149  0.2339
 5011TIP3    H136448   5.632   4.707   0.877 -0.3746 -1.0461  0.9868
 5011TIP3    H236449   5.671   4.562   0.896  1.2399 -1.0910 -2.1744
 5012TIP3   OH236450   4.607   5.743  13.907  0.3700  0.1449 -0.2404
 5012TIP3    H136451   4.613   5.829  13.865  1.5262  0.3349  0.2724
 5012TIP3    H236452   4.595   5.762  14.000 -1.5864 -0.2758 -0.3545
 5013TIP3   OH236453   2.269   2.124   2.187  0.0021  0.0098  0.0778
 5013TIP3    H136454   2.183   2.164   2.180 -1.2303 -2.3433  0.8412
 5013TIP3    H236455   2.297   2.111   2.096 -0.8793 -0.0812 -0.1870
 5014TIP3   OH236456   0.947   2.174   6.737  0.1961  0.8972 -0.2063
 5014TIP3    H136457   0.890   2.246   6.711 -1.5979 -0.5961 -0.6324
 5014TIP3    H236458   0.902   2.133   6.811  0.2165 -0.8399 -1.0920
 5015TIP3   OH236459   4.146   2.882  15.851  0.1564 -0.1395 -0.3275
 5015TIP3    H136460   4.080   2.952  15.860 -0.3419 -0.1394 -3.1023
 5015TIP3    H236461   4.098   2.802  15.871  0.5706  0.1680  2.2502
 5016TIP3   OH236462   1.493   5.175  17.396 -0.2262 -0.1516  0.1963
 5016TIP3    H136463   1.454   5.262  17.396 -1.1593 -0.5586  0.6025
 5016TIP3    H236464   1.570   5.184  17.340 -0.7784  0.7257 -0.4607
 5017TIP3   OH236465   6.618   3.227  12.939 -0.0993 -0.1850 -0.5808
 5017TIP3    H136466   6.688   3.253  12.999 -1.6592 -1.1433  1.8405
 5017TIP3    H236467   6.617   3.295  12.872  2.3639  0.4486 -0.0679
 5018TIP3   OH236468   3.180   1.829   4.965 -0.1534  0.4470 -0.7288
 5018TIP3    H136469   3.106   1.823   4.904 -0.4899  0.6419 -0.3481
 5018TIP3    H236470   3.142   1.808   5.050  0.1441  0.9371 -0.4684
 5019TIP3   OH236471   5.508   2.208   3.286  0.5929  0.3188 -0.4507
 5019TIP3    H136472   5.564   2.238   3.214  1.6935 -1.1029 -0.2460
 5019TIP3    H236473   5.552   2.130   3.319  0.4763  1.2682  2.1950
 5020TIP3   OH236474   2.083   3.918  15.985  0.6118  0.4044 -0.2872
 5020TIP3    H136475   2.031   3.908  15.905 -1.3427 -1.7809  1.1364
 5020TIP3    H236476   2.165   3.873  15.966 -0.5322 -1.6765 -0.5466
 5021TIP3   OH236477   0.705   0.145  13.368 -0.5887  0.1982 -0.2120
 5021TIP3    H136478   0.692   0.232  13.405 -0.4972 -0.4572  1.4481
 5021TIP3    H236479   0.652   0.145  13.288 -0.0332  1.9937 -0.6238
 5022TIP3   OH236480   2.407   2.123  14.374  0.5728  0.1252 -0.0437
 5022TIP3    H136481   2.371   2.137  14.462  0.9665  0.5095  0.0614
 5022TIP3    H236482   2.400   2.208  14.332  0.1454 -0.1217 -0.4812
 5023TIP3   OH236483   4.652   0.762  12.840 -0.3856  0.1270  0.1905
 5023TIP3    H136484   4.654   0.858  12.832  0.4155  0.1653  0.6457
 5023TIP3    H236485   4.652   0.747  12.935  0.8275 -0.3141  0.1431
 5024TIP3   OH236486   3.265   0.958   4.540 -0.3398 -0.0684  0.0644
 5024TIP3    H136487   3.337   0.995   4.591 -0.4853 -0.6700  0.7196
 5024TIP3    H236488   3.193   1.021   4.550 -0.7147 -0.6923  1.5017
 5025TIP3   OH236489   0.593   0.206   5.869  0.5131  0.7308 -0.4313
 5025TIP3    H136490   0.561   0.142   5.933 -0.9496  1.4054 -0.4306
 5025TIP3    H236491   0.612   0.154   5.791 -1.3014  0.3302 -0.6517
 5026TIP3   OH236492   5.920   6.255  16.825  0.2124 -0.0165 -0.3492
 5026TIP3    H136493   5.927   6.211  16.741  0.6740 -0.5162 -0.0554
 5026TIP3    H236494   5.895   6.187  16.887 -0.1780  0.3561 -0.0885
 5027TIP3   OH236495   4.055   4.218  13.373  0.2130 -0.8148 -0.5055
 5027TIP3    H136496   3.990   4.216  13.443 -0.2939 -0.4861 -0.9602
 5027TIP3    H236497   4.117   4.286  13.399  0.2351 -0.9465 -0.2056
 5028TIP3   OH236498   5.173   3.962  14.453 -0.0274 -0.9511 -0.3248
 5028TIP3    H136499   5.157   3.987  14.544 -1.0802  0.4243 -0.8618
 5028TIP3    H236500   5.250   4.013  14.428 -0.5431 -0.2985 -0.5989
 5029TIP3   OH236501   3.030   1.773  11.602  0.4204 -0.0395 -0.0222
 5029TIP3    H136502   3.073   1.854  11.576  0.5391 -0.3258 -0.7615
 5029TIP3    H236503   3.035   1.771  11.697  2.3675 -0.2374 -0.0974
 5030TIP3   OH236504   1.815   5.373   5.606 -0.2691 -0.1494 -0.0224
 5030TIP3    H136505   1.877   5.381   5.678 -0.7929  0.1690  0.4028
 5030TIP3    H236506   1.749   5.311   5.638 -1.5393  1.4110  0.5578
 5031TIP3   OH236507   0.709   3.089   3.818  0.3079 -0.0094 -1.0677
 5031TIP3    H136508   0.717   3.184   3.810  0.2856 -0.0295 -1.3269
 5031TIP3    H236509   0.761   3.055   3.746  3.0268 -0.2593  0.8577
 5032TIP3   OH236510   2.706   0.396   3.326 -0.7521  0.2446 -0.4493
 5032TIP3    H136511   2.693   0.433   3.414 -2.7693  0.8287 -0.9334
 5032TIP3    H236512   2.666   0.310   3.331 -0.3593  0.0531 -0.6431
 5033TIP3   OH236513   2.190   1.799   3.143  0.6406 -0.1132 -0.1916
 5033TIP3    H136514   2.262   1.774   3.200  1.6248 -0.9288 -1.7163
 5033TIP3    H236515   2.123   1.833   3.202  2.3701  0.9639  1.2586
 5034TIP3   OH236516   2.945   1.792   4.787 -0.0219 -0.1165  0.2033
 5034TIP3    H136517   2.946   1.794   4.692 -0.6479  0.1271  0.1960
 5034TIP3    H236518   2.865   1.744   4.810 -0.8913  1.4326  0.5912
 5035TIP3   OH236519   5.814   2.615  17.014 -0.1033 -0.0937 -0.2177
 5035TIP3    H136520   5.830   2.708  17.001  0.3614 -0.3060 -1.2920
 5035TIP3    H236521   5.899   2.580  17.041 -0.4582 -0.0895  0.9394
 5036TIP3   OH236522   2.841   5.864   0.175  0.0584  0.3905 -0.1007
 5036TIP3    H136523   2.847   5.860   0.080 -0.6819 -1.4437 -0.1172
 5036TIP3    H236524   2.905   5.800   0.206 -1.1457 -0.5600  0.5306
 5037TIP3   OH236525   6.526   1.383   0.563 -0.1216 -0.1619 -0.2511
 5037TIP3    H136526   6.582   1.460   0.557  1.4687 -1.2676 -0.2760
 5037TIP3    H236527   6.540   1.351   0.652  0.6577 -1.4152 -0.7942
 5038TIP3   OH236528   6.296   4.432   5.279 -0.2761 -0.1725 -0.0357
 5038TIP3    H136529   6.229   4.500   5.269  0.7452  0.7704 -0.7274
 5038TIP3    H236530   6.374   4.480   5.307  0.1557 -1.2337  0.6209
 5039TIP3   OH236531   6.424   1.889  17.005 -0.9768 -0.7566 -0.2639
 5039TIP3    H136532   6.497   1.869  17.064 -1.8396 -0.0378  1.1208
 5039TIP3    H236533   6.427   1.821  16.938  0.6354 -1.0379  0.0559
 5040TIP3   OH236534   2.730   3.871   0.757 -0.2543 -0.1187  0.0032
 5040TIP3    H136535   2.692   3.789   0.789 -0.8504 -0.2105 -0.9088
 5040TIP3    H236536   2.696   3.880   0.668 -0.2293  1.1448  0.1062
 5041TIP3   OH236537   0.750   5.683  14.321 -0.6036 -0.4880  0.1124
 5041TIP3    H136538   0.666   5.661  14.363 -0.5820  1.4377  1.2826
 5041TIP3    H236539   0.741   5.775  14.295  1.6677  0.3101  1.7701
 5042TIP3   OH236540   5.933   1.392   3.448 -0.2705  0.2377  0.3142
 5042TIP3    H136541   6.002   1.425   3.505  0.3902 -0.6941  0.0810
 5042TIP3    H236542   5.861   1.371   3.508  1.5191 -3.7992  1.4130
 5043TIP3   OH236543   6.340   6.600   3.276 -0.0097  0.2913 -0.0975
 5043TIP3    H136544   6.317   6.668   3.213  1.8156 -1.4537 -2.8792
 5043TIP3    H236545   6.292   6.523   3.246 -0.8584 -0.1033  2.0776
 5044TIP3   OH236546   3.217   1.462   1.763 -0.1037 -0.2845 -0.0765
 5044TIP3    H136547   3.184   1.377   1.737 -1.9070  0.4188 -0.2011
 5044TIP3    H236548   3.223   1.457   1.859  1.3329 -1.0414 -0.1710
 5045TIP3   OH236549   3.112   2.029  15.269  0.3814  0.3421 -0.5634
 5045TIP3    H136550   3.203   2.055  15.261  0.0543  1.3088 -1.3989
 5045TIP3    H236551   3.076   2.040  15.181 -0.9045  1.4513  0.0561
 5046TIP3   OH236552   2.534   5.521   2.573 -0.1998  0.2726 -0.1433
 5046TIP3    H136553   2.557   5.593   2.632 -1.3659 -0.3684  1.1568
 5046TIP3    H236554   2.607   5.459   2.580 -0.0265  0.5047  0.1231
 5047TIP3   OH236555   5.158   3.071   3.749 -0.0868 -0.0664  0.1083
 5047TIP3    H136556   5.204   3.070   3.834  1.2887 -0.5355 -0.6047
 5047TIP3    H236557   5.066   3.074   3.772  0.2625  0.0605  1.6307
 5048TIP3   OH236558   5.179   0.345   5.344  0.5430 -0.2754  0.2982
 5048TIP3    H136559   5.169   0.440   5.341  2.2619 -0.0543  0.8363
 5048TIP3    H236560   5.193   0.325   5.436 -0.5167 -1.1603  0.2955
 5049TIP3   OH236561   4.430   3.707  14.393  0.0204 -0.1154  0.6442
 5049TIP3    H136562   4.355   3.738  14.444 -0.8051 -1.8956  0.5988
 5049TIP3    H236563   4.401   3.711  14.302  0.7144  1.0177  0.4496
 5050TIP3   OH236564   0.734   1.659  13.355 -0.1551 -0.0238 -0.1933
 5050TIP3    H136565   0.786   1.581  13.373 -0.9362 -0.9505 -1.7949
 5050TIP3    H236566   0.646   1.636  13.386 -0.3261  0.3320 -0.4105
 5051TIP3   OH236567   0.228   2.964  12.120 -0.3240  0.4878  0.9567
 5051TIP3    H136568   0.163   2.942  12.187 -0.4471 -0.0646  0.6602
 5051TIP3    H236569   0.178   3.008  12.051 -0.5539 -0.6897  0.3394
 5052TIP3   OH236570   5.002   4.846  14.352 -0.1877  0.3278 -0.2011
 5052TIP3    H136571   5.000   4.942  14.358 -0.1923  0.2561  1.6215
 5052TIP3    H236572   5.095   4.823  14.356 -0.2437  0.2182  0.5757
 5053TIP3   OH236573   0.155   1.393   6.776 -0.5004  0.2544  0.3888
 5053TIP3    H136574   0.241   1.372   6.738 -1.2835 -0.9141 -0.8246
 5053TIP3    H236575   0.110   1.309   6.779 -1.5445  0.8329  1.1802
 5054TIP3   OH236576   6.219   1.506  11.197  0.1983  0.1971  0.6665
 5054TIP3    H136577   6.248   1.418  11.223  2.0310  0.3720 -0.5983
 5054TIP3    H236578   6.197   1.498  11.104  0.4084  1.0813  0.5303
 5055TIP3   OH236579   5.848   3.719  16.927  0.4904  0.1361  0.3003
 5055TIP3    H136580   5.860   3.699  16.834 -0.1715  2.9026 -0.4773
 5055TIP3    H236581   5.926   3.769  16.951 -0.5198  1.6741  0.4783
 5056TIP3   OH236582   6.644   6.758  11.770  0.0480  0.5527  0.2151
 5056TIP3    H136583   6.601   6.675  11.789  0.9159  0.0850  0.1615
 5056TIP3    H236584   6.604   6.787  11.688 -0.8194  0.5861  0.6388
 5057TIP3   OH236585   3.099   0.651   0.007  0.2117  0.2141 -0.3032
 5057TIP3    H136586   3.105   0.623   0.099 -0.8982  0.6103 -0.0965
 5057TIP3    H236587   3.009   0.683  -0.002 -0.6021 -2.3001 -2.2397
 5058TIP3   OH236588   1.448   0.153  11.514  0.4111 -0.3530 -0.2499
 5058TIP3    H136589   1.496   0.209  11.453 -1.0561  0.5701 -0.6047
 5058TIP3    H236590   1.435   0.071  11.465  0.3854 -0.0952 -0.6756
 5059TIP3   OH236591   0.179   2.766  17.389 -0.2588  0.1561  0.4780
 5059TIP3    H136592   0.250   2.723  17.437 -0.5019  0.3988  1.0716
 5059TIP3    H236593   0.105   2.766  17.451 -0.9136 -0.4854 -0.2849
 5060TIP3   OH236594   0.311   5.127  13.047 -0.2910  0.1648  0.2764
 5060TIP3    H136595   0.375   5.066  13.009 -0.7742 -0.5710  0.6255
 5060TIP3    H236596   0.323   5.118  13.142  0.0931  1.1189  0.3275
 5061TIP3   OH236597   1.621   5.603   4.045  0.0934  0.0406  0.0405
 5061TIP3    H136598   1.529   5.575   4.050  0.0862 -0.3517 -1.6245
 5061TIP3    H236599   1.637   5.649   4.127 -1.1560 -1.1795  1.0156
 5062TIP3   OH236600   3.977   1.680   3.220  0.6177  0.2204  0.4436
 5062TIP3    H136601   3.902   1.727   3.185  1.6615  2.9780  1.5672
 5062TIP3    H236602   4.033   1.663   3.144 -0.1515  0.0952 -0.0986
 5063TIP3   OH236603   6.000   3.978  15.874 -0.4568  0.1497  0.0831
 5063TIP3    H136604   6.066   3.914  15.899 -1.0384 -0.1619  0.8595
 5063TIP3    H236605   6.019   3.997  15.782 -0.1183 -0.9439 -0.0882
 5064TIP3   OH236606   3.253   5.755  12.409 -0.0864 -0.0454 -0.1478
 5064TIP3    H136607   3.269   5.748  12.503  0.0451  0.9340 -0.0816
 5064TIP3    H236608   3.186   5.823  12.401  0.2312  0.2019 -0.7849
 5065TIP3   OH236609   2.676   0.102   3.860 -0.3760  0.2307 -0.2469
 5065TIP3    H136610   2.593   0.079   3.819 -0.1955 -1.3706  0.1980
 5065TIP3    H236611   2.657   0.180   3.912 -1.8828 -0.6947  0.6687
 5066TIP3   OH236612   4.053   5.808  12.300 -0.3733 -0.3030  0.0100
 5066TIP3    H136613   4.000   5.733  12.329  0.0039 -0.1580  1.1093
 5066TIP3    H236614   4.124   5.769  12.250 -0.5961 -0.6274 -0.0580
 5067TIP3   OH236615   4.999   1.450   3.770  0.0147 -0.2088  0.3258
 5067TIP3    H136616   4.949   1.379   3.731  2.0337 -2.0248  0.8578
 5067TIP3    H236617   4.951   1.473   3.849  1.0649 -3.4882  2.0622
 5068TIP3   OH236618   3.515   4.976  11.589  0.1697  0.1758  0.0691
 5068TIP3    H136619   3.524   5.009  11.499 -0.1664 -0.6607 -0.2761
 5068TIP3    H236620   3.521   4.881  11.580  3.1549  0.1284  1.2568
 5069TIP3   OH236621   2.305   3.092  16.108  0.2376 -0.0985 -0.3910
 5069TIP3    H136622   2.219   3.090  16.150  0.8498  2.7572  1.2573
 5069TIP3    H236623   2.366   3.112  16.179  1.5437  3.3030 -2.2283
 5070TIP3   OH236624   2.910   0.455   0.900 -0.1983 -0.1260  0.6660
 5070TIP3    H136625   2.980   0.493   0.847  0.8561 -1.5854  0.9305
 5070TIP3    H236626   2.913   0.502   0.982  0.2343  0.0784  0.5345
 5071TIP3   OH236627   5.779   3.991  17.377 -0.1655 -0.2340  0.1264
 5071TIP3    H136628   5.728   3.942  17.313 -0.3384  0.2003 -0.0754
 5071TIP3    H236629   5.869   3.987  17.345 -0.2538 -0.0121 -0.1476
 5072TIP3   OH236630   4.030   3.378  12.644  0.2703  0.3068 -0.1485
 5072TIP3    H136631   3.937   3.359  12.632  0.3631  1.5199 -4.0744
 5072TIP3    H236632   4.033   3.437  12.720 -1.8927 -1.0423  1.1041
 5073TIP3   OH236633   5.437   5.869   4.086 -0.4671 -0.1287  0.1340
 5073TIP3    H136634   5.471   5.812   4.154 -0.2431  0.8415  0.8626
 5073TIP3    H236635   5.353   5.900   4.119 -0.4712  0.1570 -0.1303
 5074TIP3   OH236636   3.005   2.636  15.399  0.4165  0.4084  0.2006
 5074TIP3    H136637   3.051   2.613  15.479 -0.7678 -2.6947  0.1408
 5074TIP3    H236638   2.940   2.701  15.426  2.0098  1.7174  1.0627
 5075TIP3   OH236639   1.401   0.805  13.242  0.1326  0.1905  0.1964
 5075TIP3    H136640   1.338   0.798  13.171  0.5842  0.2598 -0.2146
 5075TIP3    H236641   1.373   0.738  13.305  0.3222 -0.5817 -0.5151
 5076TIP3   OH236642   2.326   4.876   0.986 -0.2717  0.2902 -0.2629
 5076TIP3    H136643   2.273   4.821   1.043  0.4100 -0.6849 -0.5618
 5076TIP3    H236644   2.272   4.955   0.973 -0.5109  0.4903  1.5883
 5077TIP3   OH236645   2.767   2.180  11.403 -0.1247  0.5669  0.3151
 5077TIP3    H136646   2.762   2.124  11.326 -1.8207  0.3974  0.5098
 5077TIP3    H236647   2.792   2.121  11.474 -1.4510  0.1056  0.4317
 5078TIP3   OH236648   5.643   2.376  12.169  0.2568 -0.1411  0.1950
 5078TIP3    H136649   5.715   2.428  12.135  0.3795  0.3331  1.1402
 5078TIP3    H236650   5.564   2.414  12.129  0.5327 -0.9157 -1.1569
 5079TIP3   OH236651   3.976   0.871  12.415  0.0586  0.1617 -0.0810
 5079TIP3    H136652   3.931   0.815  12.352  0.5828 -0.4812  0.0957
 5079TIP3    H236653   4.068   0.871  12.385  0.9018 -2.3515  2.1245
 5080TIP3   OH236654   1.567   0.975  17.039  0.1672  0.1894 -0.7371
 5080TIP3    H136655   1.472   0.985  17.031  0.1679 -0.2929 -1.5065
 5080TIP3    H236656   1.597   1.058  17.074 -0.7008 -0.1948  1.0128
 5081TIP3   OH236657   2.013   6.402  17.004  0.1697  0.2113  0.1926
 5081TIP3    H136658   1.919   6.405  17.026  0.0433 -1.8368  0.1355
 5081TIP3    H236659   2.016   6.373  16.913  0.8686  2.0207 -0.4146
 5082TIP3   OH236660   0.094   0.994  12.269 -0.8046  0.7343  0.1437
 5082TIP3    H136661   0.067   1.083  12.293  3.7932  2.3682  0.2015
 5082TIP3    H236662   0.120   0.954  12.352 -0.9354  0.0917 -0.1250
 5083TIP3   OH236663   2.764   0.118  12.656 -0.1077 -0.1106  0.2390
 5083TIP3    H136664   2.751   0.053  12.587 -0.9920 -1.3954  1.5495
 5083TIP3    H236665   2.798   0.068  12.730  1.6942  1.3876  0.4866
 5084TIP3   OH236666   3.995   0.871   2.022  0.0552  0.1244  0.2324
 5084TIP3    H136667   4.087   0.845   2.022  0.2734  0.7660  1.8764
 5084TIP3    H236668   3.996   0.964   2.043 -0.9373  0.3797 -0.7493
 5085TIP3   OH236669   5.960   3.932  14.747  0.2455 -0.1987  0.0556
 5085TIP3    H136670   5.938   4.002  14.686  1.0716  1.0254  1.1236
 5085TIP3    H236671   5.970   3.854  14.692 -0.3334  0.5822 -1.1863
 5086TIP3   OH236672   2.894   4.690   1.660  0.1819  0.9521 -0.0281
 5086TIP3    H136673   2.802   4.705   1.638  0.0650 -0.7368 -0.8526
 5086TIP3    H236674   2.893   4.613   1.717  0.9438  2.1605  1.7316
 5087TIP3   OH236675   5.477   0.104   4.465  0.0747 -0.5558 -0.4536
 5087TIP3    H136676   5.383   0.090   4.463 -0.1996  1.0922 -0.2453
 5087TIP3    H236677   5.495   0.137   4.553  0.8265 -0.7497 -0.5264
 5088TIP3   OH236678   4.698   5.577   4.328  0.3019  0.2015 -0.2775
 5088TIP3    H136679   4.646   5.553   4.252  0.5324  1.5622 -0.8837
 5088TIP3    H236680   4.637   5.622   4.386  0.1789 -0.6348  0.2657
 5089TIP3   OH236681   0.537   4.082  12.593 -0.0882  0.1273 -0.3204
 5089TIP3    H136682   0.516   4.110  12.504 -0.6799  0.5489 -0.0590
 5089TIP3    H236683   0.603   4.014  12.583  0.0478  0.3675 -1.0668
 5090TIP3   OH236684   4.915   1.665  13.770 -0.1456 -0.1578  1.0773
 5090TIP3    H136685   4.985   1.670  13.835 -0.5332 -0.8056  1.5561
 5090TIP3    H236686   4.912   1.573  13.745  0.9171  0.2944 -0.9055
 5091TIP3   OH236687   6.637   5.156   3.709  0.2993  0.6011 -0.0951
 5091TIP3    H136688   6.646   5.203   3.791 -2.1875  2.0843 -0.5803
 5091TIP3    H236689   6.589   5.076   3.732  1.6099 -0.1273  0.2046
 5092TIP3   OH236690   0.754   3.466  15.737 -0.0828 -0.0308  0.4947
 5092TIP3    H136691   0.714   3.552  15.725  1.3883  0.5151 -0.7812
 5092TIP3    H236692   0.743   3.421  15.653 -0.6431 -1.0304  1.0743
 5093TIP3   OH236693   6.519   2.956  13.538 -0.3042 -0.0110 -0.5901
 5093TIP3    H136694   6.581   3.010  13.488  0.4073  1.8268  2.0810
 5093TIP3    H236695   6.455   3.018  13.571 -0.6575 -1.1274  0.8910
 5094TIP3   OH236696   6.505   0.179   5.432 -0.4042  0.1962  0.2979
 5094TIP3    H136697   6.411   0.186   5.446 -0.5706 -0.1330 -0.5882
 5094TIP3    H236698   6.538   0.269   5.442 -0.6698  0.1808  1.4796
 5095TIP3   OH236699   1.284   4.548  11.195  0.3454 -0.7531  0.0262
 5095TIP3    H136700   1.298   4.507  11.110 -0.1649 -2.7349  0.8285
 5095TIP3    H236701   1.358   4.607  11.206  1.0856 -1.4080 -1.2380
 5096TIP3   OH236702   6.184   0.246  11.714  0.4484 -0.3670  0.3221
 5096TIP3    H136703   6.191   0.151  11.723  0.7833 -0.2457  1.5717
 5096TIP3    H236704   6.235   0.266  11.636  0.1501 -1.2373 -0.1072
 5097TIP3   OH236705   5.178   0.266   2.174 -0.2730  0.3889  0.6248
 5097TIP3    H136706   5.166   0.175   2.147  0.4594  1.2750 -3.2833
 5097TIP3    H236707   5.270   0.271   2.202 -0.5173 -0.1617  1.5794
 5098TIP3   OH236708   0.726   5.512   1.051  0.1288  0.0654  0.3161
 5098TIP3    H136709   0.709   5.548   0.964 -1.2592  0.3222  0.6811
 5098TIP3    H236710   0.691   5.423   1.047  0.3925 -0.0476  0.5094
 5099TIP3   OH236711   2.772   0.241   0.419  0.2905 -0.1483  0.3011
 5099TIP3    H136712   2.733   0.203   0.340  1.1123 -1.3360  0.4300
 5099TIP3    H236713   2.729   0.326   0.429  0.9600  0.5580 -2.0704
 5100TIP3   OH236714   0.940   3.337   3.923  0.2881 -0.2578 -0.9764
 5100TIP3    H136715   0.848   3.336   3.896 -0.1404 -2.1715  0.4004
 5100TIP3    H236716   0.942   3.390   4.002  0.2860 -0.5878 -0.7540
 5101TIP3   OH236717   4.117   0.951  13.271 -0.3952  0.6514 -0.4291
 5101TIP3    H136718   4.152   0.897  13.200  1.4282 -1.2863  1.7613
 5101TIP3    H236719   4.194   0.970  13.326 -1.8337  1.3891  1.4325
 5102TIP3   OH236720   2.828   0.597  14.700 -0.0484  0.0312  0.1385
 5102TIP3    H136721   2.860   0.554  14.620  2.8117  0.1678  1.0835
 5102TIP3    H236722   2.812   0.525  14.761  0.4885  0.0428  0.3043
 5103TIP3   OH236723   1.517   4.057   1.426  0.1333 -0.0548 -0.1189
 5103TIP3    H136724   1.556   4.006   1.355  1.3813 -1.1067  1.2752
 5103TIP3    H236725   1.552   4.018   1.506  0.4034  2.3918  1.0400
 5104TIP3   OH236726   0.857   2.304   2.121  0.2488 -0.3467  0.6104
 5104TIP3    H136727   0.923   2.301   2.190  1.3059 -1.0543 -0.3757
 5104TIP3    H236728   0.786   2.357   2.157  1.8466  1.4425  1.2959
 5105TIP3   OH236729   5.787   1.035  17.321 -0.7991 -0.0780  0.0275
 5105TIP3    H136730   5.846   1.025  17.396 -0.5592  3.2022  0.4356
 5105TIP3    H236731   5.841   1.016  17.245  0.3307  1.0264  0.5100
 5106TIP3   OH236732   4.133   5.736  16.937  0.4883  0.0944  0.0233
 5106TIP3    H136733   4.056   5.725  16.882  2.5125 -1.5464 -2.7567
 5106TIP3    H236734   4.151   5.648  16.970  1.1199  0.4736  0.7250
 5107TIP3   OH236735   4.809   5.495  13.185  0.3832  0.1230 -0.4027
 5107TIP3    H136736   4.755   5.446  13.247  0.5919 -0.2132 -0.4878
 5107TIP3    H236737   4.843   5.569  13.235 -0.0639  0.2760 -0.3173
 5108TIP3   OH236738   0.982   1.538   3.600 -0.2607  0.3376 -0.3115
 5108TIP3    H136739   0.985   1.528   3.696 -0.6945 -0.8906 -0.4102
 5108TIP3    H236740   1.043   1.610   3.582 -0.2722  0.6818  0.8945
 5109TIP3   OH236741   5.611   5.601  11.319 -0.1122 -0.0103 -0.4737
 5109TIP3    H136742   5.597   5.691  11.290 -0.3405 -0.9636 -3.6451
 5109TIP3    H236743   5.694   5.576  11.280 -0.0104 -1.1793  0.4411
 5110TIP3   OH236744   6.610   3.056   2.753  0.5428 -0.4218 -0.3321
 5110TIP3    H136745   6.700   3.073   2.781  0.1809  1.1564 -0.0038
 5110TIP3    H236746   6.560   3.056   2.834 -0.0650  1.0592 -0.6793
 5111TIP3   OH236747   3.530   3.127   3.018 -0.1843 -0.4934  0.1359
 5111TIP3    H136748   3.542   3.222   3.013  1.2465 -0.6700 -0.1803
 5111TIP3    H236749   3.580   3.092   2.945  0.4350 -1.5751  1.0363
 5112TIP3   OH236750   5.905   4.875  16.674 -0.8276  0.1140  0.2407
 5112TIP3    H136751   5.812   4.883  16.655 -0.4841  1.1445 -1.1620
 5112TIP3    H236752   5.948   4.933  16.611  0.7623 -0.2890  0.8938
 5113TIP3   OH236753   3.795   2.861   6.678  0.2046 -0.8765 -0.3992
 5113TIP3    H136754   3.746   2.805   6.617  1.4973 -1.6170 -0.8227
 5113TIP3    H236755   3.729   2.898   6.736 -0.8897 -1.4378 -1.2453
 5114TIP3   OH236756   6.662   2.503   0.537  0.3353  0.8914  0.0572
 5114TIP3    H136757   6.607   2.453   0.598 -2.2044  3.1180 -0.2158
 5114TIP3    H236758   6.708   2.566   0.593  0.8857  0.5123  0.0384
 5115TIP3   OH236759   3.745   0.973  11.833  0.4484 -0.6412  0.1769
 5115TIP3    H136760   3.830   0.940  11.863  1.9240  1.4240 -1.4828
 5115TIP3    H236761   3.714   0.908  11.770  1.2746 -0.9284  0.0638
 5116TIP3   OH236762   2.303   6.419  15.340 -0.0013  0.4863 -0.0253
 5116TIP3    H136763   2.230   6.466  15.382  0.3507  0.8418  0.1965
 5116TIP3    H236764   2.295   6.441  15.247 -0.2343  0.4481 -0.0146
 5117TIP3   OH236765   3.928   6.368   3.536 -0.4779 -0.0908 -0.3787
 5117TIP3    H136766   3.915   6.444   3.592 -0.3700 -0.3053 -0.0613
 5117TIP3    H236767   4.003   6.323   3.574 -1.4393 -1.1543  0.3137
 5118TIP3   OH236768   3.615   0.378  16.943  0.4427  0.1036 -0.2709
 5118TIP3    H136769   3.540   0.433  16.963  0.2188 -0.3373  0.1324
 5118TIP3    H236770   3.651   0.413  16.862 -1.6284 -1.1522 -1.8354
 5119TIP3   OH236771   1.026   1.064  15.610 -0.3189  0.1284 -0.0535
 5119TIP3    H136772   1.015   1.158  15.619  1.6856  0.3683  0.2341
 5119TIP3    H236773   0.937   1.031  15.597 -1.1596  1.9433  0.7362
 5120TIP3   OH236774   5.398   3.023   5.350 -0.4875 -0.3088  0.9269
 5120TIP3    H136775   5.310   3.062   5.352  0.2967  1.5514  0.6583
 5120TIP3    H236776   5.429   3.032   5.440 -0.4679 -0.7350  0.9637
 5121TIP3   OH236777   2.919   5.740   0.727  0.2029  0.3477 -0.2853
 5121TIP3    H136778   2.827   5.725   0.748 -0.1902 -1.4258 -2.9071
 5121TIP3    H236779   2.920   5.827   0.687  0.1242  1.3694  1.7620
 5122TIP3   OH236780   2.805   4.197   5.144 -0.5955 -0.2742 -0.3679
 5122TIP3    H136781   2.783   4.158   5.229 -2.9674 -0.7386 -1.1133
 5122TIP3    H236782   2.884   4.151   5.117 -1.1806 -1.8839  0.4961
 5123TIP3   OH236783   6.131   0.416   3.587 -0.2100  0.3310  0.0837
 5123TIP3    H136784   6.150   0.378   3.501 -1.0623  0.8632 -0.3603
 5123TIP3    H236785   6.196   0.485   3.598  0.0170  0.1384 -0.0530
 5124TIP3   OH236786   4.291   6.283   3.903 -0.8235  0.0043  0.3069
 5124TIP3    H136787   4.251   6.365   3.875 -0.9447  0.0219  0.5261
 5124TIP3    H236788   4.219   6.220   3.902 -0.2667 -0.6894 -2.1829
 5125TIP3   OH236789   2.134   3.289  12.083 -0.0687 -0.3206 -0.4556
 5125TIP3    H136790   2.180   3.240  12.015 -1.1247 -1.7216 -0.1919
 5125TIP3    H236791   2.048   3.309  12.045 -0.2103 -0.0080  0.0109
 5126TIP3   OH236792   5.779   4.792  12.602 -0.1939  0.0820  0.1767
 5126TIP3    H136793   5.727   4.812  12.524 -0.7194  1.5886  0.8740
 5126TIP3    H236794   5.726   4.730  12.651 -0.5826  0.3376  0.0860
 5127TIP3   OH236795   5.234   5.433  12.417 -0.0856 -0.2430 -0.3836
 5127TIP3    H136796   5.185   5.499  12.465  0.9637  0.6992 -0.5731
 5127TIP3    H236797   5.208   5.349  12.457 -1.7170  0.2302 -0.3934
 5128TIP3   OH236798   2.765   5.199   5.256 -0.5374 -0.6137 -0.3041
 5128TIP3    H136799   2.694   5.246   5.211  0.8113  0.0474 -1.8311
 5128TIP3    H236800   2.843   5.250   5.238  0.1283 -0.3096  2.8772
 5129TIP3   OH236801   5.670   2.363   3.130 -0.2742  0.5767  0.0782
 5129TIP3    H136802   5.766   2.359   3.133 -0.2405  1.0793 -0.2070
 5129TIP3    H236803   5.649   2.454   3.151 -0.7062  0.3975  0.4299
 5130TIP3   OH236804   1.628   1.906  15.778  0.2242  0.1009  0.3300
 5130TIP3    H136805   1.569   1.836  15.806 -0.1570 -0.5137 -1.8287
 5130TIP3    H236806   1.569   1.975  15.746  0.5913 -0.3472 -1.4451
 5131TIP3   OH236807   4.148   3.669  15.426  0.0045  0.4758  0.3927
 5131TIP3    H136808   4.236   3.706  15.432 -0.6344  1.8824  1.6853
 5131TIP3    H236809   4.096   3.738  15.386 -0.6900 -0.0144  0.4384
 5132TIP3   OH236810   1.874   4.289   4.827 -0.0021  0.3761 -0.3289
 5132TIP3    H136811   1.843   4.309   4.916 -2.0579  0.6429 -1.0582
 5132TIP3    H236812   1.797   4.303   4.771  1.2712  0.3134 -2.1779
 5133TIP3   OH236813   1.671   3.636   4.335  0.2299  0.2167 -0.8636
 5133TIP3    H136814   1.589   3.591   4.352  1.7643 -3.3911 -2.1721
 5133TIP3    H236815   1.698   3.670   4.421 -1.8603  0.2416 -0.1557
 5134TIP3   OH236816   3.757   2.204   2.719 -0.1861  0.2749  0.5661
 5134TIP3    H136817   3.733   2.285   2.763 -0.2453  0.1674  0.7340
 5134TIP3    H236818   3.717   2.211   2.632 -0.9719  0.0304  0.8932
 5135TIP3   OH236819   6.192   2.223  12.392 -0.2842 -0.3326  0.6112
 5135TIP3    H136820   6.199   2.282  12.317  0.0960 -0.8641  0.2178
 5135TIP3    H236821   6.203   2.280  12.468 -1.3015  0.3142  0.2942
 5136TIP3   OH236822   6.295   2.218   5.713  0.2138  0.4863 -0.1392
 5136TIP3    H136823   6.278   2.214   5.807  1.5244  1.1696  0.1507
 5136TIP3    H236824   6.324   2.308   5.698  0.7183  0.1793 -1.0608
 5137TIP3   OH236825   6.285   1.674   1.552  0.4563 -0.4697  0.2269
 5137TIP3    H136826   6.377   1.655   1.537  0.4871  0.3106 -0.7037
 5137TIP3    H236827   6.279   1.696   1.645  2.0425  3.5924 -0.4100
 5138TIP3   OH236828   2.903   5.141   0.576  0.6345  0.1783 -0.4240
 5138TIP3    H136829   2.812   5.168   0.567  0.4840 -0.2534 -0.2247
 5138TIP3    H236830   2.943   5.160   0.491  0.5961  1.2581 -0.2073
 5139TIP3   OH236831   3.868   3.407  12.008  0.4080 -0.2724  0.3072
 5139TIP3    H136832   3.808   3.348  12.053  0.6417  0.2403  1.3344
 5139TIP3    H236833   3.942   3.351  11.982  0.2914 -0.5719  0.6172
 5140TIP3   OH236834   4.499   0.120   2.854  0.4602 -0.1821  0.1816
 5140TIP3    H136835   4.519   0.129   2.947  0.6015  0.5464  0.0873
 5140TIP3    H236836   4.584   0.112   2.811  0.6178  2.5909 -0.1848
 5141TIP3   OH236837   4.227   1.873   1.591  0.7234  0.3889  0.2977
 5141TIP3    H136838   4.233   1.943   1.526 -1.3908  0.1307 -0.2429
 5141TIP3    H236839   4.249   1.793   1.542  0.1470  0.3169  0.1550
 5142TIP3   OH236840   6.457   4.196   5.155  0.0969 -0.0544 -0.0344
 5142TIP3    H136841   6.392   4.220   5.221  0.8399  1.1077  0.3108
 5142TIP3    H236842   6.434   4.107   5.130 -0.7230 -0.2060  1.1679
 5143TIP3   OH236843   5.943   0.343   0.162 -0.3227  0.3071  0.0571
 5143TIP3    H136844   5.939   0.427   0.208 -0.9345  0.9659 -1.1606
 5143TIP3    H236845   5.961   0.366   0.071 -1.4628 -0.8072 -0.4857
 5144TIP3   OH236846   5.622   2.960  16.370 -0.1895  0.4834  0.1657
 5144TIP3    H136847   5.648   2.992  16.457  2.9415 -1.1106 -0.0288
 5144TIP3    H236848   5.689   2.996  16.311  1.0036 -2.7645 -0.6568
 5145TIP3   OH236849   0.719   1.138  14.702 -0.2907 -0.0476 -0.4098
 5145TIP3    H136850   0.629   1.108  14.695 -0.0825 -0.4285 -1.6051
 5145TIP3    H236851   0.763   1.103  14.625 -0.0699  3.4517 -2.1025
 5146TIP3   OH236852   3.803   1.543   2.463 -0.0921  0.0182 -0.0208
 5146TIP3    H136853   3.766   1.503   2.542 -0.1625 -0.5601 -0.3474
 5146TIP3    H236854   3.848   1.621   2.495  1.3239 -1.1025  0.8182
 5147TIP3   OH236855   1.598   4.346  13.912 -0.2108  0.3088  0.1485
 5147TIP3    H136856   1.575   4.356  14.004 -0.0778 -0.7394  0.3115
 5147TIP3    H236857   1.668   4.281  13.912 -0.3718  0.1289 -0.7097
 5148TIP3   OH236858   1.091   4.965   1.590 -0.4695  0.4309  0.2982
 5148TIP3    H136859   1.033   5.041   1.586 -0.1141  0.6798 -0.2480
 5148TIP3    H236860   1.071   4.916   1.510 -0.6100  0.0125  0.5882
 5149TIP3   OH236861   5.420   4.909  16.919 -1.0892  0.3542 -0.3517
 5149TIP3    H136862   5.433   4.847  16.992 -1.3645  0.0872 -0.5219
 5149TIP3    H236863   5.506   4.947  16.904 -1.3169  1.5756  1.1390
 5150TIP3   OH236864   0.975   4.112   5.223 -0.5771  0.5353 -0.1859
 5150TIP3    H136865   0.921   4.042   5.258 -1.3553  1.4580  0.5276
 5150TIP3    H236866   0.914   4.166   5.172 -0.4749  1.8738  1.0439
 5151TIP3   OH236867   0.121   3.001  13.122 -0.0967 -0.0373 -0.1645
 5151TIP3    H136868   0.157   3.083  13.088 -0.2451 -0.2622 -0.8669
 5151TIP3    H236869   0.124   2.940  13.049  1.2167 -1.0618  0.6935
 5152TIP3   OH236870   4.478   2.775   1.871 -0.6215  0.7698  0.0580
 5152TIP3    H136871   4.386   2.748   1.871 -0.5636  0.5718  0.2432
 5152TIP3    H236872   4.485   2.836   1.944 -0.0235 -1.2418  1.7623
 5153TIP3   OH236873   4.133   2.161  12.589 -0.3503 -0.1840  0.0071
 5153TIP3    H136874   4.050   2.142  12.632 -0.6562 -2.1582 -1.3108
 5153TIP3    H236875   4.128   2.115  12.505  1.8294  0.1689 -0.3830
 5154TIP3   OH236876   4.146   1.953   0.907  0.0721 -0.3206  0.0041
 5154TIP3    H136877   4.121   1.967   0.815 -0.9003 -2.3031 -0.1071
 5154TIP3    H236878   4.093   1.878   0.934 -0.4245  0.8456  2.5302
 5155TIP3   OH236879   6.571   5.538  15.096 -0.1269 -0.0834 -0.6281
 5155TIP3    H136880   6.565   5.456  15.145 -0.3749  0.8187  0.9170
 5155TIP3    H236881   6.483   5.575  15.102  0.2145  0.7245 -0.5251
 5156TIP3   OH236882   4.148   1.480   1.617 -0.5150 -0.2535  0.0467
 5156TIP3    H136883   4.111   1.493   1.704 -0.8345  1.7940 -0.3502
 5156TIP3    H236884   4.117   1.555   1.566 -1.3767 -2.0374 -2.2167
 5157TIP3   OH236885   1.908   3.545  15.853  0.0537 -0.1079  0.1828
 5157TIP3    H136886   1.886   3.600  15.778  1.0609 -0.6195 -0.5055
 5157TIP3    H236887   1.824   3.505  15.879 -0.3921  0.4801 -0.3266
 5158TIP3   OH236888   0.793   5.565  17.320  0.4034 -0.0134  0.2426
 5158TIP3    H136889   0.721   5.510  17.289 -0.2680  0.2128  1.3385
 5158TIP3    H236890   0.819   5.616  17.243 -1.1793  0.5040  0.0079
 5159TIP3   OH236891   4.231   3.271   5.056 -0.5006  0.0594 -0.2075
 5159TIP3    H136892   4.250   3.185   5.018 -1.5244 -0.5746  0.6624
 5159TIP3    H236893   4.138   3.283   5.042 -0.5119  0.6759  0.3904
 5160TIP3   OH236894   0.995   3.730   4.553  0.8623  0.7892 -0.2198
 5160TIP3    H136895   1.043   3.662   4.600  0.5733 -0.2796 -1.4170
 5160TIP3    H236896   0.929   3.760   4.615  2.0898  1.2141  0.9200
 5161TIP3   OH236897   5.085   2.179   4.892 -0.2607  0.2720  0.7071
 5161TIP3    H136898   5.132   2.262   4.885 -2.7088  1.6319 -1.6810
 5161TIP3    H236899   5.097   2.151   4.982  4.4134  0.7967  0.4965
 5162TIP3   OH236900   5.380   1.522   0.170 -0.1070  0.5123 -0.3357
 5162TIP3    H136901   5.382   1.513   0.075 -0.1401 -1.3857 -0.1888
 5162TIP3    H236902   5.435   1.451   0.202  1.4648  2.2299  1.0573
 5163TIP3   OH236903   5.977   1.227   4.483  0.0731 -0.6036  0.0250
 5163TIP3    H136904   5.953   1.165   4.414 -1.4701  0.7815 -0.7699
 5163TIP3    H236905   5.946   1.187   4.564  0.0503 -1.3384 -0.3422
 5164TIP3   OH236906   4.302   5.932  16.062  0.2350 -0.1834 -0.2253
 5164TIP3    H136907   4.237   5.861  16.061  0.5849 -0.7308 -4.7267
 5164TIP3    H236908   4.386   5.887  16.052  0.5037  0.6928 -2.5801
 5165TIP3   OH236909   6.362   1.961  15.332  0.1375 -0.0337  1.0340
 5165TIP3    H136910   6.333   2.029  15.393  2.5451  0.6517  1.5090
 5165TIP3    H236911   6.449   1.990  15.304 -0.1345 -1.2543 -1.3524
 5166TIP3   OH236912   2.329   5.521   5.616  0.3537  0.3995 -0.0653
 5166TIP3    H136913   2.320   5.439   5.567  0.8514 -2.0401  3.4718
 5166TIP3    H236914   2.245   5.565   5.606  0.4908  0.1791 -3.0583
 5167TIP3   OH236915   6.352   6.082   0.650 -0.1236 -0.4220 -0.4690
 5167TIP3    H136916   6.279   6.099   0.591 -0.1698  1.2871  0.0094
 5167TIP3    H236917   6.312   6.072   0.736  0.1206 -0.4400 -0.3563
 5168TIP3   OH236918   5.775   3.007   2.375 -0.1545 -0.3998 -0.1973
 5168TIP3    H136919   5.806   3.070   2.310 -0.4207 -0.4893 -0.4138
 5168TIP3    H236920   5.852   2.986   2.427  0.6498 -2.0809 -1.9159
 5169TIP3   OH236921   5.557   2.360   0.659 -0.0046  0.1134  0.7443
 5169TIP3    H136922   5.501   2.416   0.714  1.0614  2.2746 -0.2459
 5169TIP3    H236923   5.584   2.290   0.717 -0.1778  1.4523  2.5543
 5170TIP3   OH236924   1.798   4.418  12.474 -0.0563 -0.2544 -0.0963
 5170TIP3    H136925   1.708   4.420  12.506  0.2253  1.9515  0.7062
 5170TIP3    H236926   1.843   4.359  12.534 -0.8025 -0.8318 -0.0842
 5171TIP3   OH236927   2.247   3.521  11.675 -0.2766 -0.2548 -0.2883
 5171TIP3    H136928   2.288   3.479  11.599 -0.2268  1.2419 -1.1223
 5171TIP3    H236929   2.163   3.477  11.684 -0.7338  0.2264 -1.8764
 5172TIP3   OH236930   0.727   0.050   4.833  0.2058  0.3418  0.1201
 5172TIP3    H136931   0.711   0.140   4.804 -0.9038 -0.0532 -0.5521
 5172TIP3    H236932   0.818   0.051   4.863  0.1392  1.7485  0.3769
 5173TIP3   OH236933   2.153   4.102   1.394  1.0549 -0.0286 -0.0861
 5173TIP3    H136934   2.216   4.149   1.339  0.0128  1.6853  0.0974
 5173TIP3    H236935   2.081   4.080   1.334  1.6068 -1.6169 -0.2093
 5174TIP3   OH236936   2.842   4.796  12.767 -0.1360 -0.1254  0.3993
 5174TIP3    H136937   2.922   4.744  12.760  1.0879  1.3166  2.4371
 5174TIP3    H236938   2.873   4.886  12.774 -2.1581  1.0037 -2.8262
 5175TIP3   OH236939   1.218   5.082  16.231  0.0429  0.3279  0.2542
 5175TIP3    H136940   1.207   4.991  16.255 -3.0515  0.1994 -1.1442
 5175TIP3    H236941   1.176   5.131  16.301 -0.5706  0.5175 -0.2421
 5176TIP3   OH236942   4.624   4.640   1.443  0.6653 -1.0800 -0.2730
 5176TIP3    H136943   4.563   4.645   1.516  0.3360 -0.3773 -0.5855
 5176TIP3    H236944   4.609   4.554   1.405 -1.4730 -0.2595 -1.4697
 5177TIP3   OH236945   5.308   3.588   3.582  0.2701 -0.6309  0.4176
 5177TIP3    H136946   5.273   3.514   3.632  1.6009 -2.1830 -0.8120
 5177TIP3    H236947   5.403   3.573   3.580  0.6316  1.3364  0.4282
 5178TIP3   OH236948   4.940   5.514   4.466 -0.3222  0.1152 -0.4016
 5178TIP3    H136949   4.885   5.518   4.387 -0.1930 -2.2259 -0.6874
 5178TIP3    H236950   4.891   5.562   4.532 -0.7098  1.6479 -1.7209
 5179TIP3   OH236951   0.138   5.686  12.570  0.1524 -0.5592  0.0078
 5179TIP3    H136952   0.194   5.622  12.527 -0.2483 -0.1882 -1.1077
 5179TIP3    H236953   0.073   5.634  12.618  1.3944 -0.9956  1.3047
 5180TIP3   OH236954   1.586   5.738  15.165  0.2161  0.4571 -0.2072
 5180TIP3    H136955   1.568   5.789  15.244 -1.8927 -1.0939  0.4023
 5180TIP3    H236956   1.531   5.778  15.098 -2.9079 -1.9736  0.7215
 5181TIP3   OH236957   4.789   2.557  12.398 -0.0449  0.0162 -0.3275
 5181TIP3    H136958   4.769   2.496  12.468  2.0040 -0.7460 -0.3394
 5181TIP3    H236959   4.713   2.616  12.395 -0.8725 -0.8815  1.4535
 5182TIP3   OH236960   3.049   4.214  10.498  0.0773 -0.1870  0.2059
 5182TIP3    H136961   3.138   4.179  10.492  0.9342  1.8631 -0.0007
 5182TIP3    H236962   3.057   4.304  10.466 -1.9870  0.1878  0.6230
 5183TIP3   OH236963   1.494   4.256   2.231 -0.1856  0.6721  0.4332
 5183TIP3    H136964   1.568   4.224   2.180 -0.5323  0.5732 -0.0113
 5183TIP3    H236965   1.454   4.323   2.175 -0.3356  0.8407  0.7393
 5184TIP3   OH236966   0.780   5.936   5.111  0.1783 -0.2686 -0.1895
 5184TIP3    H136967   0.730   5.857   5.091  1.0284 -0.7509 -0.4830
 5184TIP3    H236968   0.799   5.975   5.025  0.7654 -0.3931 -0.1248
 5185TIP3   OH236969   5.079   5.485   1.815 -0.2560  0.0906 -0.1843
 5185TIP3    H136970   5.067   5.428   1.891  0.8115 -0.2286 -0.2388
 5185TIP3    H236971   5.140   5.437   1.759  1.6208  1.7787  0.2986
 5186TIP3   OH236972   2.742   6.115   0.209 -0.4489  0.0756 -0.0824
 5186TIP3    H136973   2.777   6.026   0.217 -0.2443  0.0221 -1.3578
 5186TIP3    H236974   2.674   6.108   0.142  0.5745  1.1336 -1.2932
 5187TIP3   OH236975   5.716   2.517  13.474 -0.1974  0.0834 -0.1825
 5187TIP3    H136976   5.629   2.494  13.506  0.7728 -0.6560  2.0904
 5187TIP3    H236977   5.775   2.495  13.546  1.7685  1.6096 -1.2289
 5188TIP3   OH236978   6.280   1.000   3.169 -0.0360 -0.1191 -0.5896
 5188TIP3    H136979   6.334   0.979   3.246 -1.7767 -1.9138  0.2560
 5188TIP3    H236980   6.312   0.941   3.101 -0.0915 -0.2920 -0.4685
 5189TIP3   OH236981   1.667   5.431  15.151 -0.7088  0.1965  0.0100
 5189TIP3    H136982   1.708   5.360  15.100  0.1909 -0.1884  1.2328
 5189TIP3    H236983   1.735   5.498  15.157 -1.6812  1.3768 -1.4667
 5190TIP3   OH236984   4.705   4.161  13.839  0.4791 -0.0224  0.1557
 5190TIP3    H136985   4.781   4.130  13.888 -0.2555 -1.8917  0.1954
 5190TIP3    H236986   4.682   4.244  13.881  0.8812 -0.7436  1.8974
 5191TIP3   OH236987   3.298   3.593  15.500 -0.6044 -0.4610 -0.3746
 5191TIP3    H136988   3.278   3.648  15.425 -0.9597 -0.1715 -0.0711
 5191TIP3    H236989   3.394   3.591  15.504 -0.4808 -2.3559 -2.2145
 5192TIP3   OH236990   0.792   2.160   3.346 -0.2150 -0.9532 -0.1130
 5192TIP3    H136991   0.841   2.121   3.273 -0.0987 -0.6236 -0.2134
 5192TIP3    H236992   0.731   2.220   3.304  1.7319  1.3823  0.1495
 5193TIP3   OH236993   1.647   2.031   0.101  0.4780  0.6041 -0.0906
 5193TIP3    H136994   1.701   2.065   0.172 -0.2143  1.0748  0.2288
 5193TIP3    H236995   1.709   1.990   0.040  1.1561  0.9037  0.3895
 5194TIP3   OH236996   4.674   5.594  15.491  0.3684  0.1549  0.4631
 5194TIP3    H136997   4.712   5.513  15.460  0.0282  0.4186 -0.7110
 5194TIP3    H236998   4.743   5.636  15.543  0.7538 -0.5809  0.5478
 5195TIP3   OH236999   1.613   4.718   3.058 -0.1460 -0.2406  0.1432
 5195TIP3    H137000   1.519   4.701   3.063 -0.5365  1.1568 -1.5756
 5195TIP3    H237001   1.642   4.667   2.982 -0.2551  2.0261 -1.5310
 5196TIP3   OH237002   4.916   3.248   6.761 -0.8878  0.0479 -0.2786
 5196TIP3    H137003   4.976   3.184   6.722 -1.2165 -0.6119  0.2715
 5196TIP3    H237004   4.882   3.298   6.687 -0.8528 -0.6115 -0.7462
 5197TIP3   OH237005   2.854   4.171   1.956  0.5100 -0.0157 -1.1146
 5197TIP3    H137006   2.770   4.217   1.951  0.5562  0.4065  1.0861
 5197TIP3    H237007   2.835   4.089   2.001  1.3424  0.3310 -0.0836
 5198TIP3   OH237008   4.782   2.195  11.443 -0.8500 -0.4416  0.0312
 5198TIP3    H137009   4.725   2.121  11.463  0.5697 -1.3681  0.8091
 5198TIP3    H237010   4.725   2.257  11.396 -2.0334 -2.0593 -0.7727
 5199TIP3   OH237011   5.063   4.393   5.599 -0.1153  0.1384  0.6657
 5199TIP3    H137012   5.003   4.339   5.546 -0.5468  0.2951  0.9931
 5199TIP3    H237013   5.150   4.373   5.564 -0.4823  1.0659 -0.8563
 5200TIP3   OH237014   6.473   5.065   2.440 -0.1641  0.1353 -0.2901
 5200TIP3    H137015   6.478   4.997   2.507  0.7406  0.7586  0.2969
 5200TIP3    H237016   6.426   5.137   2.481 -0.3249  0.2148 -0.6050
 5201TIP3   OH237017   5.316   6.248  13.361  0.1074  0.2558 -0.6450
 5201TIP3    H137018   5.223   6.267  13.370  0.2065  0.2426  0.5444
 5201TIP3    H237019   5.326   6.222  13.269 -0.8258  1.5030 -1.1299
 5202TIP3   OH237020   0.017   5.531   4.058  0.2947  0.4221 -0.3869
 5202TIP3    H137021  -0.064   5.578   4.078 -0.3828 -0.4993 -0.8723
 5202TIP3    H237022   0.068   5.592   4.004  0.0749  1.1260  0.1856
 5203TIP3   OH237023   0.650   0.444   2.918 -0.1133 -0.3205 -0.3693
 5203TIP3    H137024   0.599   0.435   2.837 -0.8975 -1.1589  0.2040
 5203TIP3    H237025   0.739   0.462   2.888  0.1739 -3.1488 -1.5379
 5204TIP3   OH237026   3.807   1.054  16.206  0.3373 -0.5834 -0.2006
 5204TIP3    H137027   3.765   0.984  16.156 -1.2343  2.1374 -3.0610
 5204TIP3    H237028   3.871   1.091  16.145  1.3104  0.3229  1.3149
 5205TIP3   OH237029   3.167   5.011  15.396  0.5819 -0.4502  0.1074
 5205TIP3    H137030   3.074   5.027  15.415  0.8636 -0.6737  1.8041
 5205TIP3    H237031   3.167   4.930  15.345  0.0101 -2.5329  3.1740
 5206TIP3   OH237032   4.343   4.336  15.135 -0.1865 -0.0163  0.8266
 5206TIP3    H137033   4.418   4.394  15.144  0.3068 -0.0196 -2.2419
 5206TIP3    H237034   4.268   4.388  15.163  0.6598  0.8634  1.4943
 5207TIP3   OH237035   3.983   2.106   0.157  0.1005 -0.0773  0.7820
 5207TIP3    H137036   4.036   2.067   0.226 -1.0172  0.5554  2.0539
 5207TIP3    H237037   3.903   2.052   0.155  0.1135 -0.0777 -0.0071
 5208TIP3   OH237038   0.282   5.146  12.349  0.3419 -0.2840 -0.0349
 5208TIP3    H137039   0.355   5.191  12.391 -0.7887 -1.3941  3.5068
 5208TIP3    H237040   0.319   5.105  12.271  2.5442  2.2834 -0.4791
 5209TIP3   OH237041   2.733   3.331  15.322  0.0381 -0.1892  0.3470
 5209TIP3    H137042   2.753   3.416  15.283 -0.5792 -0.7807 -1.3630
 5209TIP3    H237043   2.640   3.336  15.345  0.5592  0.3976  2.4754
 5210TIP3   OH237044   3.015   2.269   1.255  0.0262  0.0538  0.2769
 5210TIP3    H137045   2.981   2.180   1.248 -1.0835  0.5899 -2.0280
 5210TIP3    H237046   2.940   2.321   1.282 -0.2032  0.7406 -1.5603
 5211TIP3   OH237047   5.344   4.944   2.428 -0.6838  0.0100 -0.1447
 5211TIP3    H137048   5.312   4.919   2.341  0.2599  1.3585 -0.9078
 5211TIP3    H237049   5.438   4.930   2.424 -0.4807  1.1758  0.2592
 5212TIP3   OH237050   5.833   4.791   4.617 -0.4362  0.0894 -0.0763
 5212TIP3    H137051   5.813   4.831   4.532  1.7016 -1.2177 -1.2821
 5212TIP3    H237052   5.773   4.717   4.623 -1.7875  1.1689  0.4233
 5213TIP3   OH237053   0.982   4.845   4.822 -0.1427 -0.1861 -0.0459
 5213TIP3    H137054   1.004   4.889   4.739 -1.2465  0.0639 -0.2168
 5213TIP3    H237055   1.025   4.898   4.889 -1.4706  1.2234 -0.2452
 5214TIP3   OH237056   4.112   4.472   3.042 -0.5564 -0.1434  0.7246
 5214TIP3    H137057   4.054   4.485   2.967  0.0692  0.9852  0.4173
 5214TIP3    H237058   4.130   4.378   3.041 -1.6085 -0.3592  0.2646
 5215TIP3   OH237059   3.134   1.775   3.430  0.0043  0.1606 -0.0523
 5215TIP3    H137060   3.095   1.773   3.517 -2.9977  1.6028 -1.2094
 5215TIP3    H237061   3.108   1.692   3.390 -2.8180  1.3763 -1.0475
 5216TIP3   OH237062   6.271   1.938   5.555  0.2163  0.4110 -0.5872
 5216TIP3    H137063   6.221   1.958   5.635 -0.3815  0.5675 -0.9944
 5216TIP3    H237064   6.362   1.950   5.581 -0.0095  1.2913 -0.1480
 5217TIP3   OH237065   6.179   3.941  13.989 -0.1655 -0.1013 -0.2062
 5217TIP3    H137066   6.217   4.029  13.988 -0.1019 -0.0636  1.7209
 5217TIP3    H237067   6.164   3.923  14.082 -0.6852 -1.9107 -0.6126
 5218TIP3   OH237068   0.658   4.903  11.098  0.2093  0.5291  0.2196
 5218TIP3    H137069   0.565   4.912  11.119 -0.5435 -1.5751 -1.8198
 5218TIP3    H237070   0.665   4.930  11.007  1.3943 -0.2757  0.0512
 5219TIP3   OH237071   6.426   2.773  15.247  0.4963 -0.0139  0.2632
 5219TIP3    H137072   6.501   2.807  15.296  0.4094 -1.5295  1.5250
 5219TIP3    H237073   6.452   2.781  15.155  2.4611 -0.9481  0.6765
 5220TIP3   OH237074   0.385   3.783  13.066 -0.0827 -0.0737 -0.1360
 5220TIP3    H137075   0.331   3.859  13.090  2.9015  1.9210  0.8376
 5220TIP3    H237076   0.387   3.730  13.146  1.5468  1.2912  0.7907
 5221TIP3   OH237077   3.220   5.800  10.377 -0.4498 -0.8088  0.4589
 5221TIP3    H137078   3.162   5.793  10.453 -0.5912  1.1322  0.5724
 5221TIP3    H237079   3.163   5.790  10.301 -0.4718 -1.6945  0.5807
 5222TIP3   OH237080   3.832   2.912   3.921 -0.3230  0.2965  0.2027
 5222TIP3    H137081   3.774   2.968   3.973  0.4334 -0.3417  1.7876
 5222TIP3    H237082   3.776   2.841   3.890 -0.4149 -0.3482  1.7779
 5223TIP3   OH237083   3.807   3.195  12.184 -0.0348  0.0030 -0.0138
 5223TIP3    H137084   3.849   3.109  12.180  1.6117  0.7906 -0.7919
 5223TIP3    H237085   3.870   3.249  12.232 -0.5902  1.0053 -0.3895
 5224TIP3   OH237086   2.337   4.452  15.574  0.6105  0.1316 -0.0884
 5224TIP3    H137087   2.303   4.372  15.534 -1.2174  1.4469 -1.3669
 5224TIP3    H237088   2.283   4.465  15.652  0.0848  0.7307 -0.5458
 5225TIP3   OH237089   1.860   6.525   5.984 -0.1351  0.0199 -0.0189
 5225TIP3    H137090   1.945   6.559   6.012 -0.3093 -1.4475  2.6689
 5225TIP3    H237091   1.882   6.454   5.922  0.6463 -0.5137  0.8430
 5226TIP3   OH237092   1.584   4.945   3.788  0.1046 -0.0765 -0.3442
 5226TIP3    H137093   1.624   5.010   3.730  1.5309 -1.3112 -0.8159
 5226TIP3    H237094   1.571   4.869   3.732  0.7254 -1.0077  0.7493
 5227TIP3   OH237095   4.234   6.381  12.282 -0.1202  0.4586 -0.4737
 5227TIP3    H137096   4.143   6.380  12.311 -0.1242 -0.6945 -0.4869
 5227TIP3    H237097   4.255   6.289  12.265  0.4058  0.8931 -2.4862
 5228TIP3   OH237098   4.222   0.870  13.586 -0.2410 -0.0332  0.2620
 5228TIP3    H137099   4.179   0.796  13.544 -1.9320  0.0335  1.7236
 5228TIP3    H237100   4.315   0.860  13.565 -0.7272 -1.2494 -1.4816
 5229TIP3   OH237101   3.164   4.809  17.249  0.4644  0.0644 -0.4115
 5229TIP3    H137102   3.249   4.776  17.221 -0.3532 -1.4472 -1.2543
 5229TIP3    H237103   3.144   4.759  17.328  0.0624 -0.0797 -0.6020
 5230TIP3   OH237104   0.528   1.237   3.745  0.7958  0.4044  0.1713
 5230TIP3    H137105   0.589   1.291   3.796  1.0454  1.2169 -0.9244
 5230TIP3    H237106   0.479   1.301   3.693  0.7638 -0.3962 -0.8080
 5231TIP3   OH237107   1.143   0.843   3.773 -0.1448  0.3539  0.7680
 5231TIP3    H137108   1.059   0.887   3.785 -0.7797 -0.0393 -1.6442
 5231TIP3    H237109   1.155   0.790   3.852 -1.3950  1.5670  1.8247
 5232TIP3   OH237110   1.014   0.327   5.571 -0.3651  0.7048  0.0683
 5232TIP3    H137111   1.073   0.396   5.541 -0.6712  1.2080  0.6242
 5232TIP3    H237112   0.936   0.336   5.517  0.4241 -0.5927 -1.3653
 5233TIP3   OH237113   5.168   3.279  12.470  0.1970 -0.5310  0.3744
 5233TIP3    H137114   5.102   3.315  12.529  0.3693  0.2835  0.0948
 5233TIP3    H237115   5.240   3.342  12.474 -0.2612  0.1952 -1.5821
 5234TIP3   OH237116   5.591   3.680   5.687  0.7559  0.0879 -0.3263
 5234TIP3    H137117   5.638   3.624   5.748 -0.2008  1.0458  1.3840
 5234TIP3    H237118   5.542   3.620   5.631  1.6422 -0.8110 -0.1630
 5235TIP3   OH237119   4.370   5.976  11.025 -0.1935  0.3515  0.1016
 5235TIP3    H137120   4.390   5.987  10.932  0.3961  0.3511  0.2204
 5235TIP3    H237121   4.313   5.899  11.029  2.2529 -1.6109 -0.0156
 5236TIP3   OH237122   4.694   4.012  10.799 -0.1082 -0.3695  0.0141
 5236TIP3    H137123   4.669   3.949  10.732  1.7243 -0.4241 -0.6826
 5236TIP3    H237124   4.680   4.097  10.758 -1.5805 -0.3207  0.5757
 5237TIP3   OH237125   5.579   3.147  16.580  0.5257 -0.0683  1.2257
 5237TIP3    H137126   5.558   3.221  16.523  0.1396 -1.0459  0.0166
 5237TIP3    H237127   5.497   3.128  16.626 -0.5410 -1.9291 -1.1680
 5238TIP3   OH237128   6.154   1.017   2.723  0.5291 -0.1130  0.1530
 5238TIP3    H137129   6.209   1.073   2.777  1.8749 -0.1673 -1.0875
 5238TIP3    H237130   6.194   1.020   2.636  0.4341 -2.6434 -0.0709
 5239TIP3   OH237131   6.092   2.564  13.489 -0.0462 -0.3751 -0.0954
 5239TIP3    H137132   6.033   2.576  13.563 -0.4933  1.1994 -0.6704
 5239TIP3    H237133   6.034   2.544  13.415  0.2997 -0.7046 -0.2801
 5240TIP3   OH237134   2.537   6.729   6.798  0.3943 -0.7129 -0.3114
 5240TIP3    H137135   2.444   6.717   6.818  0.7932 -0.4907  1.9039
 5240TIP3    H237136   2.580   6.724   6.882  2.4104 -0.6797 -1.2894
 5241TIP3   OH237137   5.022   4.833   1.626  0.0216  0.0785 -0.3019
 5241TIP3    H137138   5.000   4.920   1.658  0.5836  0.9147 -2.0233
 5241TIP3    H237139   5.087   4.800   1.688 -0.1020  0.9377  0.3109
 5242TIP3   OH237140   2.960   3.099   0.005  0.0802  0.0183  0.2657
 5242TIP3    H137141   2.966   3.190  -0.025 -0.8194  0.0768  0.2367
 5242TIP3    H237142   2.949   3.106   0.100 -0.1522 -0.0506  0.2454
 5243TIP3   OH237143   1.498   1.595  14.778 -0.3396 -0.4605 -0.0999
 5243TIP3    H137144   1.469   1.575  14.867 -1.1805  1.8701  0.2282
 5243TIP3    H237145   1.431   1.554  14.722 -1.7957  0.9901  0.5034
 5244TIP3   OH237146   0.810   4.645   1.674  0.2760  0.3723 -0.3376
 5244TIP3    H137147   0.889   4.616   1.719  1.1388  3.0974  0.0856
 5244TIP3    H237148   0.759   4.688   1.742 -2.8397 -3.2966 -0.0254
 5245TIP3   OH237149   4.455   4.526  15.729 -0.1951 -0.6051 -0.1879
 5245TIP3    H137150   4.481   4.557  15.816  0.9843  0.2225 -0.8093
 5245TIP3    H237151   4.523   4.559  15.671 -0.3821 -2.0805 -1.2862
 5246TIP3   OH237152   3.802   1.396   1.049  0.6152  0.4754 -0.7515
 5246TIP3    H137153   3.843   1.468   1.097 -1.4277  1.3004 -0.1779
 5246TIP3    H237154   3.733   1.437   0.998 -1.2168 -1.1694  0.2943
 5247TIP3   OH237155   3.643   1.292   2.533  0.3350  0.4693 -0.4020
 5247TIP3    H137156   3.547   1.282   2.536  0.3561  0.3899  0.2713
 5247TIP3    H237157   3.665   1.281   2.441 -0.3306  0.7244 -0.6012
 5248TIP3   OH237158   0.599   5.074   4.374  0.3083  0.5959  0.1951
 5248TIP3    H137159   0.691   5.049   4.383  0.3601  0.7822  0.1858
 5248TIP3    H237160   0.568   5.027   4.296  0.1441 -0.1966  0.7227
 5249TIP3   OH237161   1.346   3.843  11.304  0.1480  0.6289  0.0438
 5249TIP3    H137162   1.407   3.769  11.315 -0.0147  0.6884  1.5518
 5249TIP3    H237163   1.400   3.913  11.268  0.6305  0.2249 -0.0380
 5250TIP3   OH237164   1.659   0.841   3.015 -0.6149 -0.0446 -0.0495
 5250TIP3    H137165   1.591   0.889   2.968 -0.2442 -0.7393 -1.3656
 5250TIP3    H237166   1.624   0.753   3.025  1.0527 -1.2582 -3.2744
 5251TIP3   OH237167   6.542   1.252  13.843 -0.3114  0.3178  0.1098
 5251TIP3    H137168   6.570   1.282  13.929  0.6152 -3.0878  1.1723
 5251TIP3    H237169   6.578   1.316  13.782  0.9852  1.6096  2.1157
 5252TIP3   OH237170   5.996   5.519  14.189 -0.4987  0.5784 -0.2357
 5252TIP3    H137171   6.013   5.572  14.267  0.3556  1.8379 -1.2460
 5252TIP3    H237172   6.078   5.524  14.138 -0.5171 -1.4206 -0.5438
 5253TIP3   OH237173   0.171   5.171   5.628  0.1710 -0.0546  0.2364
 5253TIP3    H137174   0.200   5.124   5.706  0.3435 -1.0658 -0.4222
 5253TIP3    H237175   0.101   5.117   5.592  0.2726  0.2737 -0.4660
 5254TIP3   OH237176   4.833   6.513   5.507 -0.1384  0.3935  0.1582
 5254TIP3    H137177   4.882   6.556   5.436  1.0239  2.6678  2.1959
 5254TIP3    H237178   4.900   6.489   5.571 -1.2805 -0.5653  1.0315
 5255TIP3   OH237179   2.642   5.401   0.176  0.6160  0.1238  0.5198
 5255TIP3    H137180   2.570   5.383   0.116  0.4370  0.1032  0.7366
 5255TIP3    H237181   2.716   5.352   0.140  1.0899  1.7489 -0.8352
 5256TIP3   OH237182   2.286   3.193   0.994  0.2252  0.5761 -0.5402
 5256TIP3    H137183   2.347   3.192   1.068 -1.2138  0.2470  0.6674
 5256TIP3    H237184   2.294   3.106   0.955  0.2457  0.3992 -0.1460
 5257TIP3   OH237185   5.480   2.553   1.080 -0.2229  0.7841  0.0807
 5257TIP3    H137186   5.512   2.643   1.072  2.4392 -0.2924 -3.9809
 5257TIP3    H237187   5.549   2.507   1.128 -0.6622  0.4699  0.4258
 5258TIP3   OH237188   2.070   4.483   5.117  0.0811  0.0639 -0.1216
 5258TIP3    H137189   1.992   4.528   5.085 -0.2762 -1.0055 -0.7814
 5258TIP3    H237190   2.038   4.423   5.184 -0.0018 -1.8666 -1.8031
 5259TIP3   OH237191   1.398   2.692   3.855  0.5074 -0.1417 -0.3672
 5259TIP3    H137192   1.463   2.654   3.796  0.9270  0.2785 -0.1880
 5259TIP3    H237193   1.402   2.786   3.837  1.7805  0.2000  1.4016
 5260TIP3   OH237194   1.740   5.564  17.263  0.1967  0.1185 -0.2304
 5260TIP3    H137195   1.804   5.508  17.216  2.6167  1.5528  1.1454
 5260TIP3    H237196   1.721   5.635  17.202 -2.2429 -1.6086 -1.6582
 5261TIP3   OH237197   0.442   5.768   3.440  0.4887 -0.1965  0.4123
 5261TIP3    H137198   0.451   5.736   3.350 -1.1387 -1.0520  0.5136
 5261TIP3    H237199   0.406   5.856   3.431  1.7020  0.3116  0.2261
 5262TIP3   OH237200   6.064   0.757   2.404  0.2823  0.0929 -0.3115
 5262TIP3    H137201   6.144   0.802   2.374  0.3582 -1.2467 -2.3604
 5262TIP3    H237202   5.993   0.802   2.358  0.3428 -1.6218 -2.2197
 5263TIP3   OH237203   4.100   1.943   1.839  0.1986  1.1442 -0.1612
 5263TIP3    H137204   4.024   1.998   1.819  0.7092  1.7717 -0.4182
 5263TIP3    H237205   4.134   1.918   1.753 -0.5340 -0.3140 -0.0565
 5264TIP3   OH237206   4.363   3.469   4.085  0.8306 -0.3408  0.7314
 5264TIP3    H137207   4.361   3.563   4.068  0.0014 -0.7447 -1.9256
 5264TIP3    H237208   4.446   3.439   4.049 -0.7759 -1.1632 -2.7305
 5265TIP3   OH237209   2.319   1.209  12.974  0.5026  0.2550  0.0973
 5265TIP3    H137210   2.339   1.174  13.061  0.5829  2.5584  1.0635
 5265TIP3    H237211   2.384   1.168  12.917  0.4819 -1.2787  1.0873
 5266TIP3   OH237212   1.794   3.024  16.583 -0.1836 -0.5008  0.8370
 5266TIP3    H137213   1.754   2.973  16.512 -0.3740 -1.2779  1.4869
 5266TIP3    H237214   1.722   3.076  16.619  0.7804  4.3358 -3.0298
 5267TIP3   OH237215   0.910   6.146   4.027  0.2975  0.5145  0.2765
 5267TIP3    H137216   1.005   6.139   4.037  0.3145  3.0471  3.1348
 5267TIP3    H237217   0.899   6.211   3.957  0.6489  0.0601 -0.2086
 5268TIP3   OH237218   3.037   4.376   5.604 -0.0158 -0.2423  0.9347
 5268TIP3    H137219   3.050   4.417   5.518  1.3936 -4.3723 -1.1449
 5268TIP3    H237220   3.120   4.390   5.650  1.2125 -2.1104 -0.5319
 5269TIP3   OH237221   6.647   2.349   2.426 -0.2105  0.3217  0.8624
 5269TIP3    H137222   6.555   2.340   2.452  0.1035 -0.6289  1.7248
 5269TIP3    H237223   6.667   2.266   2.382  0.4466  0.1721  1.4187
 5270TIP3   OH237224   2.865   6.053   0.693  0.1262 -0.5492  0.1097
 5270TIP3    H137225   2.851   6.106   0.771  1.5720 -0.5347  0.3729
 5270TIP3    H237226   2.940   6.092   0.650 -0.8615 -0.3282 -1.5155
 5271TIP3   OH237227   5.268   4.563  16.981 -0.7238  0.8715 -0.1993
 5271TIP3    H137228   5.217   4.484  16.992 -0.2167  0.4996 -0.4702
 5271TIP3    H237229   5.289   4.592  17.070  0.7338 -0.3857 -0.0920
 5272TIP3   OH237230   6.293   0.409  13.587  0.2761  0.3111  0.2211
 5272TIP3    H137231   6.369   0.356  13.564  0.7595  0.9843  0.2242
 5272TIP3    H237232   6.328   0.497  13.599 -0.5908  0.7558 -0.3687
 5273TIP3   OH237233   3.461   4.869  12.106  0.0127  0.0651 -0.2826
 5273TIP3    H137234   3.432   4.902  12.021 -0.2901 -0.0777 -0.2362
 5273TIP3    H237235   3.543   4.916  12.124  0.4923 -0.4787 -1.0160
 5274TIP3   OH237236   5.970   2.458   5.313  0.4915  0.8425 -0.0535
 5274TIP3    H137237   6.000   2.523   5.250  2.4351  1.4499  1.4112
 5274TIP3    H237238   5.986   2.374   5.270 -2.4960  1.2059 -2.1673
 5275TIP3   OH237239   5.245   1.726  15.508 -0.7901 -0.3330 -0.1841
 5275TIP3    H137240   5.196   1.698  15.586  0.7577 -2.1999  0.1970
 5275TIP3    H237241   5.301   1.796  15.540  0.1244 -1.3561  0.5336
 5276TIP3   OH237242   1.581   5.823  13.045 -0.6143  0.4093  0.0008
 5276TIP3    H137243   1.556   5.735  13.071 -2.0304  1.4813  2.6119
 5276TIP3    H237244   1.673   5.830  13.070 -0.4457 -0.3599 -0.3792
 5277TIP3   OH237245   1.020   3.107   1.464 -0.2985 -0.3047 -0.2568
 5277TIP3    H137246   0.966   3.029   1.474 -2.2920  1.0262 -0.1382
 5277TIP3    H237247   0.977   3.173   1.517  2.3188  0.4661  1.0903
 5278TIP3   OH237248   4.228   4.980   3.541  0.3036  0.3602 -0.3745
 5278TIP3    H137249   4.228   4.909   3.476 -0.0702 -0.4879  0.5188
 5278TIP3    H237250   4.317   5.014   3.540  0.4278  0.0251 -0.9805
 5279TIP3   OH237251   1.179   3.294  13.362 -0.3543 -0.4588  0.2226
 5279TIP3    H137252   1.243   3.266  13.427 -0.3084  0.4046  0.5685
 5279TIP3    H237253   1.198   3.240  13.285 -0.4821 -1.5725  0.9474
 5280TIP3   OH237254   3.736   5.383  15.337  0.1257 -0.2135  0.0733
 5280TIP3    H137255   3.829   5.400  15.323 -0.1775  1.8026  0.2367
 5280TIP3    H237256   3.701   5.466  15.370 -1.6134 -1.1196  0.6209
 5281TIP3   OH237257   3.048   6.140  15.795  0.2501  0.1724 -0.6315
 5281TIP3    H137258   3.095   6.223  15.782  0.9710  0.0108  0.7340
 5281TIP3    H237259   3.117   6.075  15.806 -0.1994 -0.0072  1.8643
 5282TIP3   OH237260   4.914   5.411   2.643 -0.2490  0.2461 -0.1772
 5282TIP3    H137261   4.903   5.326   2.600 -2.2122  1.0488 -1.3752
 5282TIP3    H237262   4.895   5.394   2.735 -0.1125 -0.7109 -0.3176
 5283TIP3   OH237263   2.062   1.104  13.181 -0.0043 -0.4213  0.0198
 5283TIP3    H137264   2.120   1.146  13.244  0.7175 -2.0954  0.5508
 5283TIP3    H237265   2.079   1.147  13.098  0.2648  0.6873  0.6342
 5284TIP3   OH237266   0.750   1.640  15.813  0.6385 -0.1967  0.3726
 5284TIP3    H137267   0.735   1.662  15.721  1.1025  2.4757  0.8475
 5284TIP3    H237268   0.684   1.691  15.861  0.4157 -1.5242  1.5458
 5285TIP3   OH237269   1.213   4.145   4.179 -0.7604  0.3557  0.1456
 5285TIP3    H137270   1.171   4.172   4.261  0.3232  1.3802  0.4112
 5285TIP3    H237271   1.284   4.208   4.168 -0.7254  0.0704 -1.4613
 5286TIP3   OH237272   4.404   0.086  13.987  0.5011 -0.1285 -0.2823
 5286TIP3    H137273   4.359   0.015  13.941 -2.1569  1.3114 -0.1180
 5286TIP3    H237274   4.377   0.075  14.079 -2.9064  2.9120 -0.6925
 5287TIP3   OH237275   5.452   5.326  17.259  0.5940 -0.5213  0.3073
 5287TIP3    H137276   5.379   5.279  17.218 -0.7777  1.3711  0.4383
 5287TIP3    H237277   5.485   5.384  17.190  1.6787 -0.9745  0.4131
 5288TIP3   OH237278   1.599   1.753  13.063 -0.3121 -0.5804 -0.0971
 5288TIP3    H137279   1.668   1.701  13.021 -1.6699 -0.1462 -3.1634
 5288TIP3    H237280   1.569   1.812  12.994 -2.5308  0.4792  1.6567
 5289TIP3   OH237281   1.195   3.906   2.290  0.0685  0.8678 -0.2517
 5289TIP3    H137282   1.147   3.984   2.261  1.2423  1.1768 -1.4548
 5289TIP3    H237283   1.242   3.935   2.368 -2.0115  0.4269  1.2447
 5290TIP3   OH237284   4.930   4.383  13.672 -0.3361 -0.4445  0.4031
 5290TIP3    H137285   4.881   4.465  13.676  1.0336  0.5206 -1.1755
 5290TIP3    H237286   4.996   4.392  13.742 -0.2686 -0.2534  0.3165
 5291TIP3   OH237287   5.743   5.905  12.395 -0.2611 -0.6197  0.9661
 5291TIP3    H137288   5.824   5.907  12.343  0.2834 -0.0956  1.8107
 5291TIP3    H237289   5.769   5.938  12.481 -1.5941  0.5999  0.9451
 5292TIP3   OH237290   4.487   6.474   5.057  0.3240 -0.3391 -0.8076
 5292TIP3    H137291   4.417   6.530   5.090  0.2402 -0.7606 -0.2541
 5292TIP3    H237292   4.469   6.465   4.963  0.0710  0.1731 -0.8078
 5293TIP3   OH237293   0.432   3.566   6.230 -0.0260  0.2553  0.5707
 5293TIP3    H137294   0.365   3.634   6.220  0.2616  0.6996  1.5535
 5293TIP3    H237295   0.491   3.600   6.297  2.1695  0.6363 -1.4098
 5294TIP3   OH237296   3.010   0.095  16.868  0.0583  0.0977  0.0189
 5294TIP3    H137297   2.979   0.183  16.846 -1.4133 -0.2774  0.4482
 5294TIP3    H237298   3.079   0.076  16.805 -1.6365  0.4092 -2.0171
 5295TIP3   OH237299   6.537   6.737  15.793 -0.4826 -0.9106 -0.4544
 5295TIP3    H137300   6.470   6.791  15.751 -1.9713 -0.9989  1.6784
 5295TIP3    H237301   6.598   6.801  15.830  0.2703 -0.8222 -1.7749
 5296TIP3   OH237302   0.857   3.216  13.155 -0.0016  0.1503 -0.3265
 5296TIP3    H137303   0.903   3.153  13.099  0.4713  0.7174 -0.5750
 5296TIP3    H237304   0.874   3.301  13.116 -2.3898  0.2900 -1.2511
 5297TIP3   OH237305   0.287   1.703   4.118  0.2135 -0.4689  0.8000
 5297TIP3    H137306   0.356   1.728   4.179 -0.0889 -0.7244  1.2563
 5297TIP3    H237307   0.282   1.775   4.056  1.5207 -0.8683  0.2006
 5298TIP3   OH237308   6.176   3.203  14.844 -0.6099 -0.0611  0.3935
 5298TIP3    H137309   6.172   3.225  14.751 -0.3320  0.9021  0.5998
 5298TIP3    H237310   6.189   3.287  14.888 -0.0606 -0.5840  1.2552
 5299TIP3   OH237311   5.327   3.123  15.716  0.5484 -0.3664 -0.0127
 5299TIP3    H137312   5.241   3.083  15.705  0.5788 -0.0827 -1.4243
 5299TIP3    H237313   5.325   3.159  15.805 -1.8914  2.1501 -0.9058
 5300TIP3   OH237314   2.880   3.300  15.586  0.5984  0.2568 -0.1141
 5300TIP3    H137315   2.879   3.312  15.491  1.9339 -0.9633 -0.3150
 5300TIP3    H237316   2.850   3.384  15.621  0.1348  0.7514 -1.6023
 5301TIP3   OH237317   6.202   3.292   5.036 -0.4501  0.1568  0.0801
 5301TIP3    H137318   6.157   3.253   4.961  0.0072 -0.3126  0.0415
 5301TIP3    H237319   6.175   3.384   5.036 -1.7011 -0.1915  0.2783
 5302TIP3   OH237320   5.031   2.901   5.961  0.3005  0.4240  0.1947
 5302TIP3    H137321   5.009   2.843   6.034  0.1864 -0.0454 -0.2110
 5302TIP3    H237322   5.126   2.913   5.969  0.2356  0.6725  0.6370
 5303TIP3   OH237323   5.989   4.291  11.230  0.0401  0.1406 -0.5167
 5303TIP3    H137324   5.986   4.196  11.243 -0.5594  0.1507 -0.5541
 5303TIP3    H237325   5.907   4.312  11.185  0.7315  0.5182 -1.6317
 5304TIP3   OH237326   5.641   0.647   0.687 -0.3156  0.1394  0.1262
 5304TIP3    H137327   5.604   0.726   0.726 -0.0583 -0.2191  1.1238
 5304TIP3    H237328   5.609   0.575   0.741 -0.8634 -0.4919 -1.0062
 5305TIP3   OH237329   6.002   6.332   0.353 -0.3843  0.7545  0.1560
 5305TIP3    H137330   6.038   6.261   0.407 -2.2169  0.8943  1.6747
 5305TIP3    H237331   6.060   6.406   0.369 -1.3895  1.0779  2.8113
 5306TIP3   OH237332   0.522   1.452   5.839  0.1541  0.0886 -0.1988
 5306TIP3    H137333   0.591   1.519   5.839 -0.6649  0.9790  1.7188
 5306TIP3    H237334   0.454   1.488   5.782  1.0064 -0.6018 -1.7485
 5307TIP3   OH237335   3.591   2.780  12.907  0.5473  0.2786  0.5374
 5307TIP3    H137336   3.613   2.872  12.891  1.1788  0.1103  0.4172
 5307TIP3    H237337   3.500   2.773  12.878  1.0705  0.4348 -1.3124
 5308TIP3   OH237338   1.780   6.198  15.359  0.1943  0.6297 -0.4494
 5308TIP3    H137339   1.760   6.140  15.286  1.2156  0.4238 -0.5784
 5308TIP3    H237340   1.751   6.150  15.436 -3.4640  1.9347 -0.7793
 5309TIP3   OH237341   5.185   1.512   1.151 -0.1931 -0.4289 -0.1629
 5309TIP3    H137342   5.153   1.557   1.072 -0.4411  0.1407  0.2478
 5309TIP3    H237343   5.179   1.419   1.130  2.0852 -0.2992 -1.7335
 5310TIP3   OH237344   3.299   2.992  15.158 -0.5681  0.0465  0.2045
 5310TIP3    H137345   3.243   3.006  15.081 -1.1052  0.9524  0.7413
 5310TIP3    H237346   3.276   3.063  15.217  1.2746  0.5195  0.3890
 5311TIP3   OH237347   0.165   4.357   0.494  0.7117  0.1841  0.1863
 5311TIP3    H137348   0.079   4.314   0.493 -0.0080  1.5194  1.5568
 5311TIP3    H237349   0.204   4.329   0.577  1.5100 -0.2005 -0.3089
 5312TIP3   OH237350   3.886   0.686   2.212 -0.1263  0.2226  0.2513
 5312TIP3    H137351   3.976   0.671   2.240 -0.8663 -0.8148  2.2658
 5312TIP3    H237352   3.879   0.781   2.205  0.7686  0.3965  1.3720
 5313TIP3   OH237353   0.554   2.419  16.854 -0.3406 -0.1303  0.3695
 5313TIP3    H137354   0.607   2.452  16.782  1.1898 -1.5184  0.8119
 5313TIP3    H237355   0.529   2.497  16.903  2.2477  0.5228  0.7623
 5314TIP3   OH237356   0.754   3.738   2.386  0.4833  0.5807 -0.0870
 5314TIP3    H137357   0.844   3.709   2.370  0.4973 -0.2907  1.4413
 5314TIP3    H237358   0.702   3.657   2.381 -0.1890  1.0381 -0.6718
 5315TIP3   OH237359   6.728   4.634  12.032 -0.2558 -0.0386 -0.3410
 5315TIP3    H137360   6.743   4.600  11.944 -0.8553 -0.8546 -0.1388
 5315TIP3    H237361   6.810   4.616  12.079 -0.5318 -1.1902 -0.2575
 5316TIP3   OH237362   4.164   6.492   4.687  0.2597 -0.2671  0.5937
 5316TIP3    H137363   4.090   6.522   4.636  0.4362 -1.7649 -0.6266
 5316TIP3    H237364   4.135   6.497   4.778 -1.4475 -1.0400  0.1326
 5317TIP3   OH237365   6.508   4.453  13.903 -0.1695 -0.2643  0.1805
 5317TIP3    H137366   6.492   4.387  13.836 -1.8383  0.5783 -0.2985
 5317TIP3    H237367   6.521   4.402  13.983 -2.9094 -1.2028  0.1238
 5318TIP3   OH237368   3.053   0.993  13.482 -0.0538 -0.0043  0.2636
 5318TIP3    H137369   3.052   0.906  13.522  0.7884  0.1333  0.6100
 5318TIP3    H237370   3.042   1.053  13.556 -0.1234  0.1995  0.0881
 5319TIP3   OH237371   3.499   3.092   3.710 -0.6688  0.3305 -0.0592
 5319TIP3    H137372   3.414   3.131   3.690 -0.9890 -0.9158 -1.2762
 5319TIP3    H237373   3.504   3.015   3.654  1.0340  0.0602  0.4056
 5320TIP3   OH237374   1.014   4.299  16.011  0.4706  0.5523  0.1842
 5320TIP3    H137375   1.082   4.365  15.994  1.3271 -0.6097 -1.0963
 5320TIP3    H237376   1.062   4.216  16.014 -0.9525 -0.3634 -1.3367
 5321TIP3   OH237377   1.449   5.918  12.185 -0.3653 -0.3200  0.3697
 5321TIP3    H137378   1.498   5.847  12.226  1.0255  0.7566  0.6244
 5321TIP3    H237379   1.358   5.903  12.212  0.3255 -0.3116  2.9112
 5322TIP3   OH237380   5.967   2.715  15.255 -0.3594 -0.1895  0.2164
 5322TIP3    H137381   5.913   2.726  15.177  0.8044 -0.7831 -0.7018
 5322TIP3    H237382   5.914   2.659  15.312 -1.2891  0.3757 -0.0744
 5323TIP3   OH237383   3.819   5.559   5.610 -0.0710  0.1704  0.2395
 5323TIP3    H137384   3.890   5.580   5.549 -1.3311  2.4511 -0.5885
 5323TIP3    H237385   3.861   5.510   5.680  1.5209 -2.2367 -2.1954
 5324TIP3   OH237386   5.098   0.341   0.144 -0.1474 -1.0564 -0.5502
 5324TIP3    H137387   5.088   0.432   0.117 -0.5844 -1.2683 -1.1249
 5324TIP3    H237388   5.016   0.320   0.189 -0.0175 -1.1416 -0.3535
 5325TIP3   OH237389   3.537   1.681   5.743 -0.2582 -0.5559  0.0361
 5325TIP3    H137390   3.572   1.770   5.747 -2.0252  0.1947 -0.1721
 5325TIP3    H237391   3.614   1.625   5.746  0.8615  0.9418  1.4402
 5326TIP3   OH237392   2.761   3.438   3.138 -0.6377 -0.0916 -0.3746
 5326TIP3    H137393   2.669   3.444   3.114 -0.9701 -0.9955  0.6143
 5326TIP3    H237394   2.772   3.499   3.211 -0.1747  0.8480 -1.1946
 5327TIP3   OH237395   2.833   3.244  15.858  0.0826  0.3304 -0.5341
 5327TIP3    H137396   2.868   3.275  15.775  0.8910  1.1276  0.0837
 5327TIP3    H237397   2.845   3.149  15.856 -0.4530  0.2702 -1.5609
 5328TIP3   OH237398   5.043   3.721   0.598  0.7410 -0.0706 -0.2763
 5328TIP3    H137399   5.075   3.648   0.651  0.7544  0.5472  0.5760
 5328TIP3    H237400   5.078   3.704   0.511 -1.2738 -2.4108 -0.7397
 5329TIP3   OH237401   4.159   1.242  15.693  0.0759  0.0177 -0.4116
 5329TIP3    H137402   4.066   1.248  15.672 -0.4578 -0.3214  1.6722
 5329TIP3    H237403   4.177   1.148  15.694  0.2597  0.0548 -0.1245
 5330TIP3   OH237404   1.669   1.124  15.672  0.4274  0.2328  0.1290
 5330TIP3    H137405   1.636   1.034  15.669 -1.7019  0.9875 -2.4389
 5330TIP3    H237406   1.745   1.123  15.614  0.7120  0.0190  0.4960
 5331TIP3   OH237407   3.715   0.849   3.460 -0.2187  0.2909 -0.1325
 5331TIP3    H137408   3.714   0.771   3.403 -2.9747 -0.6582  1.0402
 5331TIP3    H237409   3.785   0.832   3.522 -0.9752 -1.5041  0.3059
 5332TIP3   OH237410   4.685   4.379  15.407 -0.0618  0.1579 -0.1264
 5332TIP3    H137411   4.619   4.440  15.376  0.5488  1.0303  0.2412
 5332TIP3    H237412   4.638   4.321  15.467 -0.8386 -0.3332 -1.1944
 5333TIP3   OH237413   6.498   6.031  17.285 -0.4357  0.3673  0.3355
 5333TIP3    H137414   6.522   6.100  17.224 -0.3637 -0.3906 -0.5214
 5333TIP3    H237415   6.403   6.034  17.289 -0.4688  0.1514 -0.1586
 5334TIP3   OH237416   3.620   0.959   2.266  0.2691 -0.4312  0.0025
 5334TIP3    H137417   3.682   1.011   2.319  0.4468  0.8925 -1.4385
 5334TIP3    H237418   3.631   0.870   2.298  0.8936  0.2036  1.6998
 5335TIP3   OH237419   3.188   0.011  16.423 -0.0707 -0.0991  0.1646
 5335TIP3    H137420   3.207   0.048  16.336 -1.4155  1.5269  0.5183
 5335TIP3    H237421   3.188  -0.084  16.409  0.1917  0.1188 -1.5087
 5336TIP3   OH237422   6.238   0.127   5.081  0.3904 -1.0718 -0.2420
 5336TIP3    H137423   6.306   0.156   5.019  1.7180 -1.3589  1.0403
 5336TIP3    H237424   6.280   0.058   5.132 -0.6238 -0.7095  1.1181
 5337TIP3   OH237425   3.558   0.259  14.080  0.6157 -0.3146 -0.5346
 5337TIP3    H137426   3.641   0.215  14.058  1.1943  1.3761 -1.9557
 5337TIP3    H237427   3.513   0.268  13.996 -0.2413  0.3095 -0.0188
 5338TIP3   OH237428   6.445   0.780   5.961  0.2253  0.2273 -0.0552
 5338TIP3    H137429   6.484   0.719   6.024 -0.4264  0.0482  0.1895
 5338TIP3    H237430   6.390   0.837   6.015 -1.3358 -0.7200 -0.5822
 5339TIP3   OH237431   1.988   6.175   0.833  0.0702  0.4450  0.6971
 5339TIP3    H137432   2.000   6.183   0.738 -1.7432 -0.5520  0.3275
 5339TIP3    H237433   2.055   6.113   0.861 -0.5759 -0.7466 -0.2917
 5340TIP3   OH237434   1.380   5.679   0.369 -0.1818 -0.4586 -0.3613
 5340TIP3    H137435   1.342   5.616   0.308  0.4181 -1.9557  0.7765
 5340TIP3    H237436   1.473   5.680   0.347 -0.3541  1.0244 -1.2034
 5341TIP3   OH237437   5.718   1.374   3.615  0.5404  0.2615  0.6743
 5341TIP3    H137438   5.677   1.420   3.541  0.9880 -0.9476 -0.3785
 5341TIP3    H237439   5.657   1.387   3.688  0.0783  1.4855  0.0979
 5342TIP3   OH237440   0.298   3.176   5.455  0.5490  0.2889 -0.5087
 5342TIP3    H137441   0.290   3.226   5.374 -0.8675  0.8839 -0.0426
 5342TIP3    H237442   0.227   3.210   5.511  2.2390  0.7877  1.4598
 5343TIP3   OH237443   4.032   1.019   1.531 -0.0027 -0.2165  0.0749
 5343TIP3    H137444   4.100   0.952   1.543  2.0804  1.7828  0.1712
 5343TIP3    H237445   3.968   1.001   1.599 -0.4779 -3.1535 -1.0141
 5344TIP3   OH237446   0.357   0.743   5.989 -0.0674  0.7421  0.6038
 5344TIP3    H137447   0.428   0.685   6.016 -0.3827  0.3031  0.4997
 5344TIP3    H237448   0.376   0.826   6.031 -0.5154  0.0917  2.1686
 5345TIP3   OH237449   3.379   3.937   6.249  0.0980  0.1390 -0.2486
 5345TIP3    H137450   3.339   3.867   6.197  0.6738 -0.9039  0.6792
 5345TIP3    H237451   3.441   3.980   6.188  0.1905 -0.5562 -0.6526
 5346TIP3   OH237452   2.415   2.142   4.517 -0.0528 -0.7082  0.5457
 5346TIP3    H137453   2.484   2.123   4.455 -0.0648  0.3837  0.1724
 5346TIP3    H237454   2.355   2.200   4.469  0.2830  0.7009  1.7598
 5347TIP3   OH237455   1.279   6.704  10.846 -0.1462 -0.5010 -0.3127
 5347TIP3    H137456   1.217   6.750  10.903  1.2049 -0.9387  1.5923
 5347TIP3    H237457   1.225   6.672  10.774 -1.3616  3.0206 -1.1942
 5348TIP3   OH237458   3.819   4.566   6.325 -0.0756 -0.0895  0.3569
 5348TIP3    H137459   3.866   4.518   6.258 -0.2399 -0.2441  0.3517
 5348TIP3    H237460   3.776   4.498   6.377  0.8477 -0.0469  1.2281
 5349TIP3   OH237461   1.116   1.165  14.222 -0.3873  0.9701  0.5355
 5349TIP3    H137462   1.164   1.197  14.145  1.1586 -0.6654  0.7400
 5349TIP3    H237463   1.059   1.097  14.188 -0.5181  1.0025  0.6910
 5350TIP3   OH237464   0.296   4.395  12.597 -0.2573 -0.1538 -0.6634
 5350TIP3    H137465   0.259   4.475  12.635 -0.1977  0.1157 -1.1638
 5350TIP3    H237466   0.367   4.371  12.657 -2.2119 -1.5964  1.2517
 5351TIP3   OH237467   0.736   2.620  11.020 -0.5780 -0.1661  0.3293
 5351TIP3    H137468   0.780   2.666  10.948 -2.0983 -0.4369 -0.8222
 5351TIP3    H237469   0.713   2.535  10.984  1.3747 -1.5813  2.1521
 5352TIP3   OH237470   0.251   2.934  13.351 -0.5436  0.1113 -0.2089
 5352TIP3    H137471   0.229   2.952  13.260  1.5380 -0.2881 -0.8495
 5352TIP3    H237472   0.344   2.955  13.358  0.1748 -2.9498  0.9429
 5353TIP3   OH237473   0.551   4.373  14.620  0.0362  0.3470 -0.4470
 5353TIP3    H137474   0.632   4.417  14.649  0.6008 -1.8526  1.7111
 5353TIP3    H237475   0.558   4.285  14.657 -2.4729 -0.5574 -1.9057
 5354TIP3   OH237476   4.552   5.346   4.601  0.4619 -0.6441  0.4644
 5354TIP3    H137477   4.621   5.346   4.667  0.7274  1.2924  0.2477
 5354TIP3    H237478   4.531   5.439   4.588 -1.7723 -1.1499  0.0862
 5355TIP3   OH237479   2.738   0.588  15.952 -0.6673  0.2349  0.4718
 5355TIP3    H137480   2.820   0.589  16.001 -1.7756 -1.7548  2.6184
 5355TIP3    H237481   2.673   0.622  16.014 -1.6207  0.8906 -0.8461
 5356TIP3   OH237482   5.247   4.211   1.746  0.0990  0.4458 -0.2415
 5356TIP3    H137483   5.335   4.173   1.747  0.0568  0.3481  0.8166
 5356TIP3    H237484   5.233   4.238   1.655  0.8407 -0.4108 -0.6202
 5357TIP3   OH237485   0.227   2.481  13.799 -0.0612  0.0508 -0.3318
 5357TIP3    H137486   0.248   2.568  13.764 -0.2265 -0.9742 -3.2287
 5357TIP3    H237487   0.137   2.466  13.771  0.1729 -1.3024 -0.4055
 5358TIP3   OH237488   1.715   3.617  12.798  0.0306 -0.0186 -0.1505
 5358TIP3    H137489   1.778   3.624  12.870 -0.9625  2.7971  0.6010
 5358TIP3    H237490   1.636   3.582  12.839  0.3912 -1.3831 -0.5921
 5359TIP3   OH237491   6.542   1.668  16.570 -0.2045  0.5665  0.0849
 5359TIP3    H137492   6.605   1.642  16.637  1.0233 -1.6206 -1.7591
 5359TIP3    H237493   6.457   1.640  16.605  0.4993 -1.2183  0.4710
 5360TIP3   OH237494   5.679   2.125  11.608 -0.0085 -0.0678 -0.2823
 5360TIP3    H137495   5.589   2.158  11.595 -0.6274 -1.6966 -0.3169
 5360TIP3    H237496   5.677   2.037  11.572  1.3377 -0.5135  0.6937
 5361TIP3   OH237497   6.460   5.639   4.862 -0.3641 -0.3708  0.3344
 5361TIP3    H137498   6.449   5.547   4.837  0.7430 -0.2865 -0.5204
 5361TIP3    H237499   6.487   5.683   4.782 -1.0932  0.7626  0.6797
 5362TIP3   OH237500   0.113   4.962   4.130  0.1933 -0.0998 -0.0459
 5362TIP3    H137501   0.188   4.903   4.132 -1.2696 -2.1703 -1.8736
 5362TIP3    H237502   0.104   4.986   4.038 -1.6788 -0.3279  0.0433
 5363TIP3   OH237503   1.674   3.968  14.228 -0.3975 -0.5616  0.7266
 5363TIP3    H137504   1.640   3.906  14.164 -1.0477 -2.0127  2.4067
 5363TIP3    H237505   1.610   3.968  14.299 -0.1447  1.6564  1.0342
 5364TIP3   OH237506   5.256   1.243   0.040  0.2137 -1.0867  0.3364
 5364TIP3    H137507   5.305   1.308  -0.010 -0.0055 -0.6375  0.7065
 5364TIP3    H237508   5.305   1.161   0.027  0.5026 -0.8477 -0.1052
 5365TIP3   OH237509   5.928   6.292  11.713 -0.6080  0.2267  0.1679
 5365TIP3    H137510   5.973   6.241  11.645 -0.5849  0.2203  0.1879
 5365TIP3    H237511   5.974   6.270  11.794 -1.9984 -1.5104  0.5679
 5366TIP3   OH237512   0.934   0.336  14.000  0.4257 -0.6867  0.2113
 5366TIP3    H137513   0.973   0.249  14.007  0.5228 -0.7878 -1.3077
 5366TIP3    H237514   0.867   0.327  13.931  2.5351  1.1086 -2.2659
 5367TIP3   OH237515   1.036   3.178  12.476  0.0575 -0.4422  0.2330
 5367TIP3    H137516   1.070   3.153  12.390 -0.8663 -0.7941 -0.0410
 5367TIP3    H237517   1.069   3.266  12.491  0.2402 -0.3894 -0.4693
 5368TIP3   OH237518   6.586   1.143  14.635 -0.0452 -0.4155  0.0012
 5368TIP3    H137519   6.594   1.067  14.693  1.4805 -0.4673 -0.2408
 5368TIP3    H237520   6.676   1.163  14.609 -0.6866 -0.5098 -2.5079
 5369TIP3   OH237521   5.208   0.560   4.649  0.3055 -0.0711  0.0902
 5369TIP3    H137522   5.214   0.555   4.744  2.2074  0.1090  0.0246
 5369TIP3    H237523   5.288   0.517   4.618 -0.1274  0.1492 -1.4212
 5370TIP3   OH237524   0.721   6.713   0.730  0.5500  0.4167  0.5246
 5370TIP3    H137525   0.665   6.789   0.743  0.9914  1.3553 -2.3971
 5370TIP3    H237526   0.788   6.742   0.669  1.9033 -1.7844  0.8480
 5371TIP3   OH237527   0.243   1.015  15.103  0.0744  0.4081 -0.0203
 5371TIP3    H137528   0.297   0.980  15.032  0.4851 -0.5567  0.7466
 5371TIP3    H237529   0.189   1.083  15.061 -0.1822 -0.6035 -1.3965
 5372TIP3   OH237530   1.123   3.357   1.839  0.4829 -0.2031 -0.4010
 5372TIP3    H137531   1.200   3.412   1.852 -0.7480  1.2212  1.3218
 5372TIP3    H237532   1.131   3.326   1.749  3.9363 -1.5738  0.2074
 5373TIP3   OH237533   4.792   1.647  17.094  0.4126  0.5301 -0.2977
 5373TIP3    H137534   4.754   1.706  17.159 -0.0145  1.7729 -1.6151
 5373TIP3    H237535   4.851   1.702  17.043  0.9015 -0.4630 -0.8378
 5374TIP3   OH237536   2.916   4.403   3.444 -0.0242  0.2941  0.2851
 5374TIP3    H137537   2.860   4.480   3.458 -0.3448 -0.2403  2.2135
 5374TIP3    H237538   2.871   4.353   3.377 -0.1080  1.5048 -0.5935
 5375TIP3   OH237539   3.097   3.259  11.966 -0.1436  0.0961  0.5872
 5375TIP3    H137540   3.013   3.281  12.006  0.4823 -0.2855  2.1961
 5375TIP3    H237541   3.078   3.185  11.908 -1.0959  0.7323  0.0519
 5376TIP3   OH237542   4.245   0.486   3.867  0.6063 -0.3430  0.2563
 5376TIP3    H137543   4.168   0.515   3.915  1.1693  0.3807  0.7350
 5376TIP3    H237544   4.212   0.418   3.808 -0.5720  0.5932 -0.2035
 5377TIP3   OH237545   5.718   1.140  12.405  0.1130  0.3574 -0.3505
 5377TIP3    H137546   5.791   1.198  12.427 -0.1094  1.4041 -2.1854
 5377TIP3    H237547   5.726   1.068  12.467  0.8017  1.9867  1.5938
 5378TIP3   OH237548   3.102   6.289   1.421 -0.3324  0.1403  0.2582
 5378TIP3    H137549   3.081   6.338   1.500 -2.9285  2.7803 -1.8133
 5378TIP3    H237550   3.148   6.351   1.365  1.2091 -1.5613 -0.4746
 5379TIP3   OH237551   4.307   0.129   4.985  0.9941  0.0648  0.6151
 5379TIP3    H137552   4.303   0.190   4.911 -0.4867 -0.4469  0.2362
 5379TIP3    H237553   4.394   0.091   4.980  1.3241  0.8906 -0.1766
 5380TIP3   OH237554   0.669   3.117  13.830  0.5203  0.2618  0.0041
 5380TIP3    H137555   0.743   3.056  13.823  0.8356  0.5296  0.8337
 5380TIP3    H237556   0.693   3.174  13.903 -0.1590  0.8430 -0.2224
 5381TIP3   OH237557   1.827   0.658  15.857 -0.2852  0.3949 -0.0126
 5381TIP3    H137558   1.862   0.694  15.775  0.3940 -0.7099 -0.2312
 5381TIP3    H237559   1.837   0.729  15.920 -0.2897  1.0694 -0.7505
 5382TIP3   OH237560   2.844   2.615   6.748  0.0805  0.0548 -0.2293
 5382TIP3    H137561   2.919   2.646   6.798 -0.4561  0.1632  0.5187
 5382TIP3    H237562   2.807   2.544   6.801  0.3155 -0.7709 -1.1341
 5383TIP3   OH237563   1.948   4.202  12.535 -0.2253  0.1448  0.3523
 5383TIP3    H137564   1.873   4.152  12.566 -0.8257  1.0112  0.3506
 5383TIP3    H237565   2.023   4.146  12.552 -0.7777 -0.3660  1.2065
 5384TIP3   OH237566   4.576   6.726  14.451 -0.1437  0.0150  0.0604
 5384TIP3    H137567   4.637   6.773  14.508 -0.7109 -1.1783  1.7361
 5384TIP3    H237568   4.622   6.645  14.428 -0.6382 -0.3661  0.3884
 5385TIP3   OH237569   3.501   4.162  13.454  0.4888  0.3922  0.5527
 5385TIP3    H137570   3.528   4.152  13.545 -2.1241 -0.2538  1.3673
 5385TIP3    H237571   3.468   4.076  13.429  3.4874 -0.1906 -1.9699
 5386TIP3   OH237572   2.725   5.527   6.615  0.1827  0.5490  0.1106
 5386TIP3    H137573   2.688   5.511   6.528 -1.0861  0.4411  0.6478
 5386TIP3    H237574   2.809   5.569   6.598 -0.2651  0.9793 -1.1704
 5387TIP3   OH237575   0.627   6.411   1.982 -0.1017 -0.1747 -0.2162
 5387TIP3    H137576   0.696   6.397   1.918 -0.9014 -1.0652 -0.9257
 5387TIP3    H237577   0.636   6.339   2.044  0.0337  0.1036  0.0913
 5388TIP3   OH237578   6.450   2.382  16.796 -0.1717  0.2674 -0.3344
 5388TIP3    H137579   6.446   2.462  16.849 -1.3582 -0.0491  0.0919
 5388TIP3    H237580   6.414   2.314  16.852 -1.0768 -0.1616 -1.3814
 5389TIP3   OH237581   5.441   1.952   6.209 -0.2927 -0.4676 -0.8571
 5389TIP3    H137582   5.378   1.961   6.281  1.7794  0.3684  0.9685
 5389TIP3    H237583   5.399   1.995   6.135 -0.9652  2.2257  0.9351
 5390TIP3   OH237584   5.014   4.152  10.801 -0.5930  0.4789  0.0389
 5390TIP3    H137585   5.101   4.192  10.805 -0.3721 -0.0008  0.1222
 5390TIP3    H237586   4.969   4.183  10.880  0.0769 -0.5644  0.8659
 5391TIP3   OH237587   1.039   0.478  17.298 -0.1458  0.5843 -0.2402
 5391TIP3    H137588   1.063   0.404  17.354 -0.7296  0.4059 -0.2210
 5391TIP3    H237589   1.101   0.547  17.321 -0.7164  0.7052  1.0166
 5392TIP3   OH237590   4.745   5.736  12.465  0.3230 -0.4160 -0.1718
 5392TIP3    H137591   4.825   5.764  12.421  0.8569 -2.0248 -0.2944
 5392TIP3    H237592   4.772   5.714  12.554  0.5928 -3.3184 -0.8752
 5393TIP3   OH237593   5.261   4.644   5.890 -0.6612  0.1514  0.0508
 5393TIP3    H137594   5.252   4.693   5.808  0.3963 -1.5319 -1.1468
 5393TIP3    H237595   5.194   4.681   5.948  1.2683  4.3180 -0.0209
 5394TIP3   OH237596   0.153   4.709  15.762  0.3302 -0.1701 -0.1966
 5394TIP3    H137597   0.235   4.698  15.810  0.1490 -0.9760 -0.0504
 5394TIP3    H237598   0.129   4.801  15.775  1.3175  0.1379 -0.4275
 5395TIP3   OH237599   3.596   6.636  13.682  0.1021 -0.7103 -0.2218
 5395TIP3    H137600   3.687   6.612  13.697 -0.0153 -2.1206 -1.5597
 5395TIP3    H237601   3.547   6.584  13.745  0.2790  1.7546  2.1526
 5396TIP3   OH237602   6.587   0.125  14.802 -0.3683 -0.3256  0.5235
 5396TIP3    H137603   6.569   0.130  14.896 -1.3343  0.4334  0.3129
 5396TIP3    H237604   6.619   0.212  14.778 -2.2951  0.2221 -0.2513
 5397TIP3   OH237605   4.489   4.802  11.754  0.3616  0.1468  0.2022
 5397TIP3    H137606   4.413   4.859  11.764  0.3317  0.2494 -0.5165
 5397TIP3    H237607   4.560   4.862  11.729  0.5863  0.0028  0.4862
 5398TIP3   OH237608   4.699   0.274  14.223  0.5627  0.7510 -0.1577
 5398TIP3    H137609   4.734   0.353  14.182  0.2823  0.0575 -1.7985
 5398TIP3    H237610   4.773   0.235  14.269  1.5409  0.2700 -2.0615
 5399TIP3   OH237611   5.480   1.756   1.052 -0.1008  0.7818  0.2239
 5399TIP3    H137612   5.571   1.770   1.077  0.6162  1.3072 -2.3681
 5399TIP3    H237613   5.450   1.842   1.022 -1.5713  0.6665  1.2351
 5400TIP3   OH237614   2.032   3.920  15.350  0.1196  0.2207 -0.4218
 5400TIP3    H137615   2.055   3.828  15.363 -1.5037  0.0180  1.4796
 5400TIP3    H237616   2.030   3.931  15.255  1.1558 -1.4607 -0.6851
 5401TIP3   OH237617   0.996   3.363  11.632 -0.0133  0.4840 -0.3469
 5401TIP3    H137618   1.016   3.285  11.685  2.1745 -0.5740 -2.5418
 5401TIP3    H237619   0.948   3.330  11.557 -0.6021  1.5544 -0.4662
 5402TIP3   OH237620   2.050   3.493   3.368 -0.1033  0.4874  0.0242
 5402TIP3    H137621   2.043   3.401   3.395 -0.3081  0.8812  1.3547
 5402TIP3    H237622   1.961   3.527   3.373 -0.0547  0.7181 -0.6316
 5403TIP3   OH237623   4.866   1.398  12.249  0.3760 -0.0122 -0.4196
 5403TIP3    H137624   4.944   1.398  12.193  0.1491  1.5858 -0.7854
 5403TIP3    H237625   4.876   1.476  12.304 -0.2128 -0.6532  0.6332
 5404TIP3   OH237626   5.537   0.069  14.239 -0.0543 -0.7637  0.9469
 5404TIP3    H137627   5.506  -0.010  14.195  1.0726 -2.4138  2.9255
 5404TIP3    H237628   5.607   0.038  14.297 -0.5100  1.4751  2.8416
 5405TIP3   OH237629   0.049   4.295  13.611  0.1931  0.4090 -0.1737
 5405TIP3    H137630   0.052   4.290  13.707  1.8372 -0.3100 -0.2286
 5405TIP3    H237631   0.130   4.339  13.587  0.6627 -0.9951 -1.2934
 5406TIP3   OH237632   4.158   2.016  12.353  0.0314 -0.2343  0.0007
 5406TIP3    H137633   4.164   1.962  12.274  0.2582  0.1658 -0.2588
 5406TIP3    H237634   4.235   2.072  12.349 -0.7474  0.8333 -0.2602
 5407TIP3   OH237635   4.807   1.185  11.681  0.0419  0.0282 -0.2441
 5407TIP3    H137636   4.753   1.208  11.606  2.0087  1.6309 -1.2752
 5407TIP3    H237637   4.839   1.269  11.714  1.5516 -0.8137  0.5522
 5408TIP3   OH237638   3.340   1.462  12.460  0.0506 -0.1911 -0.1356
 5408TIP3    H137639   3.279   1.397  12.496  0.4381 -0.9340 -0.7762
 5408TIP3    H237640   3.385   1.497  12.536  0.9528 -1.8307  0.1318
 5409TIP3   OH237641   3.060   5.405  15.727  0.2153  0.2006 -0.1985
 5409TIP3    H137642   3.075   5.387  15.820 -0.2816 -1.4770 -0.4210
 5409TIP3    H237643   3.115   5.342  15.681  1.1622  1.6062 -1.0893
 5410TIP3   OH237644   5.615   5.225  14.583 -0.6592 -0.2504 -0.2078
 5410TIP3    H137645   5.612   5.164  14.509  2.4353 -0.4061 -0.3358
 5410TIP3    H237646   5.581   5.174  14.657  0.6556 -1.7609 -0.5820
 5411TIP3   OH237647   4.745   0.209  13.571 -0.2627 -0.4977 -0.2404
 5411TIP3    H137648   4.654   0.195  13.542 -0.8389  0.5874  0.9183
 5411TIP3    H237649   4.797   0.155  13.513 -1.5198  0.0903 -2.0174
 5412TIP3   OH237650   1.362   2.066   4.110 -0.3586 -0.7085 -0.0477
 5412TIP3    H137651   1.451   2.045   4.136 -0.5551 -1.2395  0.2116
 5412TIP3    H237652   1.325   2.113   4.185 -1.0287 -2.5201  0.8235
 5413TIP3   OH237653   1.154   3.827  13.274  0.5440 -0.4074  0.6221
 5413TIP3    H137654   1.201   3.771  13.336 -1.9055 -3.1499  0.1764
 5413TIP3    H237655   1.124   3.768  13.206  0.6154  2.0494 -1.7347
 5414TIP3   OH237656   1.271   1.840  15.586  0.0808 -0.2003 -0.4655
 5414TIP3    H137657   1.259   1.924  15.542  4.4845  2.0843  1.9980
 5414TIP3    H237658   1.231   1.852  15.672  1.5731 -0.1277  0.2576
 5415TIP3   OH237659   1.512   2.374   6.649  0.2688  0.7302  0.2083
 5415TIP3    H137660   1.583   2.317   6.679 -1.0839 -0.5037  1.2223
 5415TIP3    H237661   1.502   2.439   6.719 -0.3652  0.1831  0.6325
 5416TIP3   OH237662   3.566   6.298  15.266  0.0937  0.2160 -0.0333
 5416TIP3    H137663   3.558   6.210  15.301  1.7178 -0.2518 -0.7372
 5416TIP3    H237664   3.594   6.352  15.340 -1.9597  0.4205  0.6694
 5417TIP3   OH237665   5.913   3.778  11.623 -0.2047 -0.2987 -0.3236
 5417TIP3    H137666   5.996   3.783  11.670 -0.9592  0.3498  0.9960
 5417TIP3    H237667   5.936   3.794  11.532  0.9694  1.1074  0.1918
 5418TIP3   OH237668   1.609   1.280  12.888  0.4148  0.9063  0.0052
 5418TIP3    H137669   1.702   1.258  12.885  0.5566  1.3178  1.0270
 5418TIP3    H237670   1.572   1.240  12.809  1.1689 -0.5596  0.3645
 5419TIP3   OH237671   4.574   2.979   3.440 -0.4171 -0.0667 -0.4551
 5419TIP3    H137672   4.532   2.923   3.507 -1.1773 -0.1483 -0.9898
 5419TIP3    H237673   4.649   2.928   3.410 -0.2789 -0.1851  0.0801
 5420TIP3   OH237674   6.717   4.355  15.175 -0.1266  0.8178  0.3136
 5420TIP3    H137675   6.644   4.377  15.118 -0.1004  0.5829  0.1872
 5420TIP3    H237676   6.717   4.259  15.178  1.8286  0.6584 -1.8691
 5421TIP3   OH237677   3.665   4.316  15.839 -0.1155 -0.0616  0.0671
 5421TIP3    H137678   3.651   4.304  15.745  1.3408 -2.2477  0.0495
 5421TIP3    H237679   3.703   4.404  15.847 -0.2274  0.1365 -1.3759
 5422TIP3   OH237680   1.688   0.797  14.497  0.0292 -0.1790  0.0677
 5422TIP3    H137681   1.662   0.728  14.558  0.4740 -1.5138 -1.2192
 5422TIP3    H237682   1.635   0.781  14.419  1.3190 -0.0502 -0.8480
 5423TIP3   OH237683   0.045   2.535  14.633 -0.0162  0.2583  0.7264
 5423TIP3    H137684   0.051   2.583  14.551 -1.0321 -0.8217 -0.0176
 5423TIP3    H237685  -0.048   2.539  14.657  0.1151 -0.1901  1.3495
 5424TIP3   OH237686   1.614   3.572   2.184  0.2019 -0.3050  0.2992
 5424TIP3    H137687   1.546   3.637   2.167  0.1881 -0.3747  0.0945
 5424TIP3    H237688   1.566   3.490   2.198  0.3098 -0.6461 -1.1955
 5425TIP3   OH237689   3.278   2.371  13.312  0.1398  0.2156 -0.3410
 5425TIP3    H137690   3.312   2.430  13.245 -1.9007  2.1557  0.2362
 5425TIP3    H237691   3.356   2.332  13.351  1.4341 -1.4716 -4.1226
 5426TIP3   OH237692   3.462   3.665  12.507  0.5242 -0.2027  0.1985
 5426TIP3    H137693   3.520   3.697  12.438  0.5479  0.8054  0.6640
 5426TIP3    H237694   3.375   3.694  12.481  0.6406  0.9322  0.9853
 5427TIP3   OH237695   6.418   0.570  15.067  0.5811  0.6330  0.9032
 5427TIP3    H137696   6.392   0.488  15.108  0.2770  0.1090 -0.3229
 5427TIP3    H237697   6.513   0.573  15.078  0.8932 -0.9331 -0.8737
 5428TIP3   OH237698   0.965   6.071   0.808 -0.0231  0.3225 -0.3395
 5428TIP3    H137699   1.022   6.022   0.868  0.9789 -0.4212 -1.8319
 5428TIP3    H237700   1.025   6.109   0.744 -1.0747  1.0098 -0.9479
 5429TIP3   OH237701   4.550   3.426   4.422 -0.2951 -0.0622 -0.2058
 5429TIP3    H137702   4.570   3.510   4.462 -0.8958 -0.3367  0.7070
 5429TIP3    H237703   4.603   3.363   4.470 -0.3891 -0.2956 -0.4068
 5430TIP3   OH237704   2.502   4.379  12.065 -0.0409 -0.5783  0.3649
 5430TIP3    H137705   2.431   4.414  12.012  0.1568 -0.5826  0.1002
 5430TIP3    H237706   2.582   4.409  12.022  0.1338  1.0659  1.7219
 5431TIP3   OH237707   1.789   0.645   2.736  0.0900 -0.3020 -0.0990
 5431TIP3    H137708   1.850   0.712   2.706  0.8753 -0.6795  0.6303
 5431TIP3    H237709   1.785   0.656   2.831  1.1784 -2.0453  0.1921
 5432TIP3   OH237710   5.497   4.853   2.149  0.1246 -0.1044 -0.7309
 5432TIP3    H137711   5.587   4.824   2.138  0.4899  0.3337  0.9095
 5432TIP3    H237712   5.448   4.772   2.168  0.1154 -0.3656 -1.7961
 5433TIP3   OH237713   4.190   6.613   2.112 -0.8930 -0.2538 -0.3312
 5433TIP3    H137714   4.134   6.670   2.164  0.2270 -0.2028  0.8835
 5433TIP3    H237715   4.259   6.586   2.172  0.2389 -0.5374 -1.6935
 5434TIP3   OH237716   2.101   2.186   4.683 -0.0499  0.7233  0.5041
 5434TIP3    H137717   2.075   2.279   4.685  2.5776  1.6123 -1.0220
 5434TIP3    H237718   2.082   2.158   4.594 -1.1333 -0.3428  1.0522
 5435TIP3   OH237719   6.071   6.278   1.328 -0.4502  0.4989  0.1774
 5435TIP3    H137720   6.016   6.200   1.336  0.4206 -0.2177 -0.5892
 5435TIP3    H237721   6.030   6.342   1.386 -0.7122 -0.7904  1.4835
 5436TIP3   OH237722   0.434   6.157  14.176  0.1602  0.6416  0.3310
 5436TIP3    H137723   0.370   6.186  14.112 -0.3261 -1.1903 -0.0875
 5436TIP3    H237724   0.383   6.106  14.239  1.0706 -0.2580  0.3744
 5437TIP3   OH237725   3.751   3.627   1.024 -0.3716  0.3692 -0.3837
 5437TIP3    H137726   3.805   3.615   0.946  0.5114 -1.1377  0.4120
 5437TIP3    H237727   3.814   3.634   1.096 -1.1731  1.7313  0.2202
 5438TIP3   OH237728   4.787   5.362  15.429  0.3709  0.7837  0.0241
 5438TIP3    H137729   4.878   5.360  15.400  0.1116  0.6989 -0.8070
 5438TIP3    H237730   4.765   5.270  15.445 -0.1616  0.5707 -1.7269
 5439TIP3   OH237731   3.400   5.369  12.349 -0.0590 -0.0137  0.1784
 5439TIP3    H137732   3.311   5.335  12.345 -0.6360  1.3830  0.5055
 5439TIP3    H237733   3.418   5.377  12.443  0.0400  0.6227  0.1095
 5440TIP3   OH237734   6.595   4.311  14.125  0.0745  0.3478  0.1423
 5440TIP3    H137735   6.535   4.324  14.198 -0.2401  2.4076 -0.4270
 5440TIP3    H237736   6.679   4.289  14.166  0.0680  2.1236  1.2081
 5441TIP3   OH237737   0.135   3.212  15.110  0.0177  0.1979 -0.0354
 5441TIP3    H137738   0.051   3.257  15.109 -0.1693 -0.1248 -1.4136
 5441TIP3    H237739   0.153   3.195  15.202 -1.4322  0.2553  0.2738
 5442TIP3   OH237740   6.206   5.267  16.645 -0.0185 -0.0892 -0.0750
 5442TIP3    H137741   6.179   5.349  16.686 -1.7610 -0.4500 -0.4211
 5442TIP3    H237742   6.290   5.246  16.686  0.5146  1.8815 -0.0282
 5443TIP3   OH237743   3.179   5.263  12.049  0.1646  0.3106 -0.2137
 5443TIP3    H137744   3.272   5.271  12.027  0.4649 -0.3210  0.7863
 5443TIP3    H237745   3.154   5.352  12.075  0.7855  0.2668  0.5953
 5444TIP3   OH237746   5.059   1.995   1.787  0.7190  0.5303  0.2402
 5444TIP3    H137747   5.055   1.997   1.883 -0.8081  0.2994  0.2117
 5444TIP3    H237748   5.056   1.903   1.764  0.9121  0.5917 -0.0374
 5445TIP3   OH237749   3.187   4.078   5.904 -0.7181 -0.0853 -0.1229
 5445TIP3    H137750   3.132   4.152   5.930 -1.3536 -0.1934 -1.1171
 5445TIP3    H237751   3.224   4.103   5.820 -0.3625 -0.6057 -0.1280
 5446TIP3   OH237752   1.564   6.075  15.919 -0.4055 -0.4528  0.0723
 5446TIP3    H137753   1.478   6.116  15.919  0.0195  0.5045  1.6139
 5446TIP3    H237754   1.557   6.006  15.853 -1.9431  0.4234 -0.7376
 5447TIP3   OH237755   5.579   1.795   3.492  0.1070 -0.5793 -0.4311
 5447TIP3    H137756   5.522   1.818   3.419  0.0871 -1.4799 -0.7113
 5447TIP3    H237757   5.548   1.709   3.521  0.4455 -0.4612  0.2991
 5448TIP3   OH237758   0.709   4.830  15.108  0.1287  0.0908  0.0079
 5448TIP3    H137759   0.657   4.752  15.089  0.4636 -0.2976  0.6612
 5448TIP3    H237760   0.675   4.862  15.191  0.3644  0.3235  0.0155
 5449TIP3   OH237761   3.179   5.590  11.566  0.1679 -0.4420  0.3125
 5449TIP3    H137762   3.265   5.577  11.526  0.0003 -1.0467  0.1422
 5449TIP3    H237763   3.178   5.529  11.640 -0.1130 -0.4312  0.3160
 5450TIP3   OH237764   3.367   3.669  16.010  0.7352  0.4653  0.0841
 5450TIP3    H137765   3.290   3.703  15.965  0.8460  0.9815  0.2725
 5450TIP3    H237766   3.428   3.646  15.939  0.6009  0.5190 -0.0490
 5451TIP3   OH237767   0.446   2.037   5.859 -0.2266  0.0094  0.4058
 5451TIP3    H137768   0.446   2.097   5.784  0.0401 -1.7064 -1.0347
 5451TIP3    H237769   0.396   2.083   5.927 -2.0798  0.8674 -1.4463
 5452TIP3   OH237770   6.644   4.134  13.358  0.7781 -0.3831  0.5172
 5452TIP3    H137771   6.735   4.106  13.353  1.1752  0.7351  1.1361
 5452TIP3    H237772   6.608   4.084  13.432  1.6105  0.9933  1.9226
 5453TIP3   OH237773   1.256   4.519  16.667  0.3084  0.2696  0.4485
 5453TIP3    H137774   1.339   4.560  16.644  0.9052 -1.5869 -0.9193
 5453TIP3    H237775   1.204   4.590  16.704  2.0968  1.7178  0.3152
 5454TIP3   OH237776   2.394   6.252  11.896 -0.0802 -0.0652 -0.7637
 5454TIP3    H137777   2.308   6.240  11.855 -0.1763 -1.4458 -0.1978
 5454TIP3    H237778   2.435   6.322  11.845 -1.6211  0.7871 -0.8916
 5455TIP3   OH237779   2.792   3.881   5.069 -0.1290 -0.2894 -0.0555
 5455TIP3    H137780   2.734   3.885   5.144  1.4342 -1.3514  1.2804
 5455TIP3    H237781   2.776   3.796   5.029  0.6061 -0.6810  0.4482
 5456TIP3   OH237782   4.908   0.692   2.623 -0.0444  0.0727 -0.1888
 5456TIP3    H137783   4.903   0.720   2.531  2.9623 -0.8352 -0.7458
 5456TIP3    H237784   4.880   0.601   2.621  0.4685 -0.0854 -0.3062
 5457TIP3   OH237785   0.421   2.843  14.801 -0.3099  0.3792 -0.6471
 5457TIP3    H137786   0.395   2.908  14.866  2.4976 -0.0073  1.0030
 5457TIP3    H237787   0.417   2.889  14.717 -1.2815  1.7443  0.1097
 5458TIP3   OH237788   0.045   2.174  11.561  0.7133 -0.1900  0.2722
 5458TIP3    H137789  -0.003   2.244  11.606 -1.6165 -0.8550 -0.9970
 5458TIP3    H237790  -0.020   2.105  11.547  1.8528 -0.9206 -2.1109
 5459TIP3   OH237791   1.671   5.318  14.123  0.0311 -0.0821 -0.1253
 5459TIP3    H137792   1.739   5.331  14.057  0.7486 -0.7322  0.4772
 5459TIP3    H237793   1.589   5.320  14.073  0.5761 -0.8464 -1.0822
 5460TIP3   OH237794   6.735   0.817  13.322 -0.3394  0.0819  0.3857
 5460TIP3    H137795   6.660   0.874  13.305 -0.9019 -0.2939  1.5217
 5460TIP3    H237796   6.809   0.862  13.282 -0.9882  0.9852  0.1735
 5461TIP3   OH237797   4.945   2.699  12.251  0.0073 -0.4693  0.4319
 5461TIP3    H137798   4.892   2.645  12.309  0.9260 -0.5582  1.2100
 5461TIP3    H237799   5.000   2.750  12.309  1.5815 -1.1936 -0.3458
 5462TIP3   OH237800   3.785   1.766   6.883 -0.3057 -0.2755 -1.0140
 5462TIP3    H137801   3.705   1.713   6.881  0.7424 -2.0256  0.4195
 5462TIP3    H237802   3.816   1.767   6.793 -0.7543 -1.4684 -1.1956
 5463TIP3   OH237803   0.176   3.283   0.106 -0.0593  0.3464  0.1751
 5463TIP3    H137804   0.214   3.311   0.023 -2.4235 -1.3463 -1.6174
 5463TIP3    H237805   0.107   3.347   0.124  1.9501  2.0886  2.2009
 5464TIP3   OH237806   6.239   2.946   2.407 -0.0131  0.2817 -0.0361
 5464TIP3    H137807   6.306   2.906   2.351  1.3065 -0.9306  2.2433
 5464TIP3    H237808   6.290   2.988   2.477 -1.5437  2.6866 -0.2427
 5465TIP3   OH237809   2.271   5.984   3.649 -0.7685 -0.5800 -0.2224
 5465TIP3    H137810   2.288   6.020   3.562 -0.0884 -0.0751  0.1131
 5465TIP3    H237811   2.293   5.891   3.641 -1.8772 -0.8149 -0.9050
 5466TIP3   OH237812   5.217   1.087   5.384  0.5186  0.2095 -0.0363
 5466TIP3    H137813   5.287   1.094   5.449 -1.3185  0.7152  2.0282
 5466TIP3    H237814   5.165   1.167   5.397 -0.7334 -0.3869 -1.1332
 5467TIP3   OH237815   4.465   2.718  12.257 -0.3400  0.0461 -0.3530
 5467TIP3    H137816   4.453   2.784  12.188 -0.8633  0.0906 -0.2256
 5467TIP3    H237817   4.398   2.652  12.238  1.9484 -1.9232 -2.1473
 5468TIP3   OH237818   5.398   0.558  12.103 -0.3440  0.1382 -0.1272
 5468TIP3    H137819   5.322   0.520  12.061 -1.6366  1.6487  0.7423
 5468TIP3    H237820   5.471   0.503  12.075 -1.9963 -2.6609  0.6674
 5469TIP3   OH237821   6.711   3.976   3.309  0.1298  0.4794 -0.4011
 5469TIP3    H137822   6.662   4.052   3.280  0.1436  0.4842 -0.4113
 5469TIP3    H237823   6.649   3.927   3.364  0.5278  1.1952  0.7357
 5470TIP3   OH237824   5.432   2.715   1.959 -0.1779  0.1951  0.5990
 5470TIP3    H137825   5.516   2.761   1.948  0.5417 -0.8926  1.3066
 5470TIP3    H237826   5.455   2.622   1.950 -1.4876 -0.0709 -0.1654
 5471TIP3   OH237827   2.557   4.387   4.346  0.3976  0.5044 -0.0039
 5471TIP3    H137828   2.563   4.458   4.411  1.4004 -0.3945  0.9306
 5471TIP3    H237829   2.624   4.324   4.374 -0.6120 -0.9056 -0.6908
 5472TIP3   OH237830   4.239   2.931   1.744  0.2637 -0.6220  0.1953
 5472TIP3    H137831   4.333   2.930   1.724  0.0181 -2.2437 -0.9878
 5472TIP3    H237832   4.205   2.850   1.707 -1.3978 -0.6772  1.7317
 5473TIP3   OH237833   3.178   5.043   6.051 -0.6027 -0.4612 -0.3838
 5473TIP3    H137834   3.210   5.114   6.107 -2.2409  0.4859 -0.5883
 5473TIP3    H237835   3.219   5.060   5.966 -0.6402 -0.0129 -0.3177
 5474TIP3   OH237836   4.617   0.740  17.323  0.3600  0.1529  0.1036
 5474TIP3    H137837   4.547   0.688  17.364 -0.6639  1.1351 -0.3416
 5474TIP3    H237838   4.688   0.739  17.387 -0.0287 -0.9433  0.5367
 5475TIP3   OH237839   3.416   0.719   4.314 -0.4144  0.1071  0.0637
 5475TIP3    H137840   3.472   0.796   4.304 -2.1761  1.2599 -1.6967
 5475TIP3    H237841   3.329   0.755   4.329 -0.8341 -1.6258  2.4257
 5476TIP3   OH237842   4.747   1.282   0.190 -0.3272 -0.5337  0.2270
 5476TIP3    H137843   4.841   1.295   0.193 -0.0076 -2.6661  2.3589
 5476TIP3    H237844   4.711   1.347   0.251 -0.2355  0.1989 -0.4963
 5477TIP3   OH237845   6.681   2.347  16.135  0.1925  0.3686 -0.2536
 5477TIP3    H137846   6.682   2.255  16.112 -0.2175  0.5368 -0.9729
 5477TIP3    H237847   6.692   2.349  16.230 -2.9486 -0.5546  0.2266
 5478TIP3   OH237848   3.029   3.525  16.019 -0.1315  0.0506 -0.3251
 5478TIP3    H137849   3.091   3.518  15.946  1.0998 -0.0965  0.6892
 5478TIP3    H237850   3.062   3.598  16.071  0.7558 -1.6589  1.6381
 5479TIP3   OH237851   0.188   1.495   6.293  0.0260 -0.0586  0.4017
 5479TIP3    H137852   0.108   1.461   6.254  0.9901 -1.5248 -0.3945
 5479TIP3    H237853   0.204   1.578   6.247 -0.2720 -0.4596 -0.4509
 5480TIP3   OH237854   1.634   0.576  11.867 -0.0108  0.0429  0.0870
 5480TIP3    H137855   1.593   0.648  11.818 -0.1643 -0.9076 -1.2347
 5480TIP3    H237856   1.561   0.533  11.912  0.0547  0.5575  0.7094
 5481TIP3   OH237857   0.413   4.984  10.392 -0.5992 -0.8568 -0.1000
 5481TIP3    H137858   0.399   5.067  10.437 -0.6701 -0.9434  0.0374
 5481TIP3    H237859   0.326   4.947  10.382 -1.0745  0.8117 -3.5022
 5482TIP3   OH237860   5.761   0.533   4.602 -0.5665 -0.4020 -0.0280
 5482TIP3    H137861   5.730   0.623   4.607 -0.0095 -0.2607  1.6076
 5482TIP3    H237862   5.769   0.505   4.693  1.5410 -1.2929 -0.4220
 5483TIP3   OH237863   2.932   0.507  11.534  0.4205  0.1066  0.5371
 5483TIP3    H137864   2.868   0.440  11.510  1.4113 -1.1967  1.3600
 5483TIP3    H237865   2.885   0.590  11.524 -1.3118 -0.7837  0.8691
 5484TIP3   OH237866   2.898   5.238   3.393  0.0875 -0.1140  0.2678
 5484TIP3    H137867   2.803   5.225   3.400  0.3607 -1.8529  1.6138
 5484TIP3    H237868   2.926   5.251   3.484  1.2439 -0.7260  0.0139
 5485TIP3   OH237869   1.144   3.853  12.305 -0.3287 -0.3089  0.3032
 5485TIP3    H137870   1.207   3.851  12.377  0.6479 -0.1162 -0.5259
 5485TIP3    H237871   1.184   3.798  12.238 -0.6810  0.4356 -0.5264
 5486TIP3   OH237872   5.437   4.258  16.899 -0.6151 -0.1090  0.2924
 5486TIP3    H137873   5.364   4.197  16.906 -0.9943  0.4200  1.1555
 5486TIP3    H237874   5.399   4.338  16.863 -0.6177  0.3968  1.3836
 5487TIP3   OH237875   6.562   3.747   4.831 -0.1173 -0.5555 -0.4663
 5487TIP3    H137876   6.505   3.764   4.756  0.3318  0.8983 -0.5186
 5487TIP3    H237877   6.648   3.779   4.803  0.4120 -1.3951  0.1353
 5488TIP3   OH237878   1.004   2.602  16.737  0.4987  0.1624  0.1157
 5488TIP3    H137879   1.045   2.565  16.659 -2.3044  0.0547 -1.4312
 5488TIP3    H237880   0.975   2.689  16.710 -1.8550 -0.4518  0.4828
 5489TIP3   OH237881   0.926   5.513   3.370  0.5198  0.2485  0.8655
 5489TIP3    H137882   0.855   5.470   3.417 -0.1942 -0.0590 -0.4406
 5489TIP3    H237883   0.985   5.442   3.344  0.4138  0.2946  0.4870
 5490TIP3   OH237884   3.121   5.140   2.407  0.3885 -0.3631 -0.4380
 5490TIP3    H137885   3.142   5.067   2.465  1.8481  0.0604 -0.3742
 5490TIP3    H237886   3.193   5.140   2.343 -0.0052  0.5409 -0.8990
 5491TIP3   OH237887   4.838   5.063  16.932  0.3365 -0.2114 -1.0755
 5491TIP3    H137888   4.843   5.135  16.869  0.0702  0.9079  0.1230
 5491TIP3    H237889   4.865   4.986  16.883  3.1698  1.0931 -1.7991
 5492TIP3   OH237890   4.624   4.388   2.496 -0.3252 -0.2193 -0.2001
 5492TIP3    H137891   4.595   4.304   2.459 -0.2531  0.6431 -2.3379
 5492TIP3    H237892   4.551   4.415   2.553 -1.6848 -0.3406 -1.8178
 5493TIP3   OH237893   3.492   5.293  11.591  0.4979 -0.1211 -0.1414
 5493TIP3    H137894   3.566   5.308  11.651  1.7826 -0.0827 -1.6745
 5493TIP3    H237895   3.500   5.200  11.567  0.3917  0.0283 -0.7631
 5494TIP3   OH237896   3.716   1.010   1.335 -0.0558  0.1966  0.7195
 5494TIP3    H137897   3.772   1.086   1.314 -1.3924  1.4134  1.3573
 5494TIP3    H237898   3.729   0.950   1.262  0.9386  1.0986  0.1150
 5495TIP3   OH237899   0.654   3.000  14.183 -0.3497  0.7071 -0.2947
 5495TIP3    H137900   0.681   2.926  14.129 -1.2551 -0.0049  0.2075
 5495TIP3    H237901   0.689   3.077  14.138 -1.3679  0.1715 -2.0824
 5496TIP3   OH237902   2.793   0.308   2.193  0.1909  0.7398 -0.9343
 5496TIP3    H137903   2.781   0.292   2.287  0.3047 -1.6379 -1.2461
 5496TIP3    H237904   2.716   0.359   2.168 -0.8260 -0.1796  0.1385
 5497TIP3   OH237905   4.562   6.069   5.606 -0.4276  0.1350  0.2773
 5497TIP3    H137906   4.625   6.135   5.578  0.8954 -1.5918 -0.9965
 5497TIP3    H237907   4.576   6.062   5.701  0.0316  1.0320  0.2889
 5498TIP3   OH237908   2.302   6.314   5.487 -0.0309  0.2845 -0.4923
 5498TIP3    H137909   2.321   6.384   5.549 -0.9712  2.3136 -2.3335
 5498TIP3    H237910   2.250   6.356   5.418 -0.7218 -2.2654 -1.6769
 5499TIP3   OH237911   2.163   2.912  13.276  0.2122 -0.0911  0.0207
 5499TIP3    H137912   2.153   2.923  13.181  1.2983  1.6490  0.0602
 5499TIP3    H237913   2.253   2.942  13.294 -0.6517  1.6473  1.8509
 5500TIP3   OH237914   3.398   2.716  16.940  0.7471  0.1013  0.3770
 5500TIP3    H137915   3.350   2.696  16.860  0.7371  1.4226  0.0198
 5500TIP3    H237916   3.333   2.708  17.010  0.9722 -1.9524  0.3911
 5501TIP3   OH237917   0.674   3.480   2.442 -0.3437  0.2643  0.1090
 5501TIP3    H137918   0.757   3.480   2.491  0.7531  1.0108 -1.6180
 5501TIP3    H237919   0.695   3.434   2.361 -2.0602 -0.8174  0.2539
 5502TIP3   OH237920   5.194   5.568  17.341 -0.0951 -0.1083 -0.3081
 5502TIP3    H137921   5.185   5.549  17.248 -0.1415  2.4161 -0.8972
 5502TIP3    H237922   5.223   5.660  17.344  0.7315 -0.3770  2.1493
 5503TIP3   OH237923   4.183   0.448  13.761 -0.0711 -0.9929  0.2777
 5503TIP3    H137924   4.099   0.491  13.741 -0.0319 -1.2135 -0.3654
 5503TIP3    H237925   4.215   0.418  13.676  1.9473  1.4037  0.0682
 5504TIP3   OH237926   3.924   4.366  13.178 -0.5735  0.4766  0.1510
 5504TIP3    H137927   3.979   4.350  13.254  0.7391 -0.1828 -0.8849
 5504TIP3    H237928   3.843   4.317  13.195 -0.0360 -0.1862  0.8256
 5505TIP3   OH237929   5.439   0.393   5.046  0.1362  0.0118 -0.3829
 5505TIP3    H137930   5.469   0.305   5.070  0.2514  0.1248 -0.1193
 5505TIP3    H237931   5.352   0.399   5.085  0.3199  0.1922  0.0005
 5506TIP3   OH237932   3.365   0.702   2.460  0.1049  0.3617  0.2104
 5506TIP3    H137933   3.459   0.715   2.464 -0.2024  2.5601  2.0541
 5506TIP3    H237934   3.354   0.607   2.454  2.4004  0.0168  0.7633
 5507TIP3   OH237935   2.722   1.454  15.937 -0.1810  0.1807  0.3574
 5507TIP3    H137936   2.681   1.430  15.854 -1.5732  1.8480  0.5120
 5507TIP3    H237937   2.749   1.545  15.926  0.5116  0.1265  1.4117
 5508TIP3   OH237938   3.172   4.904   1.325  0.4531  0.6988  0.2698
 5508TIP3    H137939   3.181   4.994   1.293  2.3697  0.3488 -0.2807
 5508TIP3    H237940   3.245   4.893   1.386  1.0934 -0.9069 -0.7242
 5509TIP3   OH237941   2.174   4.155  16.562  0.0694  0.4526 -0.2029
 5509TIP3    H137942   2.116   4.152  16.639 -0.9518  2.6149 -0.8040
 5509TIP3    H237943   2.155   4.074  16.515 -0.4083 -0.1915  1.0433
 5510TIP3   OH237944   6.257   4.185  11.354 -0.1297  0.0172  0.7656
 5510TIP3    H137945   6.196   4.145  11.292 -0.6244  0.7070  0.7875
 5510TIP3    H237946   6.227   4.276  11.361  0.0179 -0.0079  1.8890
 5511TIP3   OH237947   5.987   1.831  12.820 -0.2814  0.0645  0.2910
 5511TIP3    H137948   5.941   1.832  12.736  0.0634  1.9609  0.0801
 5511TIP3    H237949   5.918   1.842  12.885 -0.5667 -1.5556  0.3088
 5512TIP3   OH237950   2.008   2.310   1.665  0.0916 -0.4496  0.3263
 5512TIP3    H137951   2.028   2.240   1.728  1.4661 -0.0452  0.3782
 5512TIP3    H237952   2.053   2.387   1.700  1.1602 -0.2944 -1.3020
 5513TIP3   OH237953   1.877   4.188   2.663 -0.2062 -0.2113 -0.0564
 5513TIP3    H137954   1.839   4.236   2.589  1.1464  0.9664 -0.0379
 5513TIP3    H237955   1.814   4.200   2.734 -1.6881 -1.6394 -1.0723
 5514TIP3   OH237956   1.336   4.083   3.779 -0.3933 -0.6155 -0.3363
 5514TIP3    H137957   1.333   4.026   3.856  3.6904  1.3052  1.5834
 5514TIP3    H237958   1.255   4.135   3.785 -0.9859 -1.6646  1.7061
 5515TIP3   OH237959   4.660   6.260   4.571 -0.6733 -0.0029  0.0065
 5515TIP3    H137960   4.636   6.197   4.504  1.6617 -0.1746 -0.7621
 5515TIP3    H237961   4.649   6.346   4.529  0.5625 -0.1017 -0.5525
 5516TIP3   OH237962   4.025   5.830   3.234  0.5258  0.2545  0.2691
 5516TIP3    H137963   4.024   5.787   3.149  0.9670  1.2764 -0.2749
 5516TIP3    H237964   4.028   5.923   3.213  1.6795  0.4912  1.4084
 5517TIP3   OH237965   0.569   2.892   1.768  0.5159  0.8788  0.0548
 5517TIP3    H137966   0.599   2.979   1.740 -0.3161  2.0674  2.5391
 5517TIP3    H237967   0.645   2.855   1.815  0.3219  1.0176  0.4855
 5518TIP3   OH237968   6.374   3.172  16.306 -0.4640  0.3172  0.0610
 5518TIP3    H137969   6.365   3.263  16.333 -0.1586  0.6141 -0.8056
 5518TIP3    H237970   6.314   3.162  16.233  2.0157  0.8518 -2.2338
 5519TIP3   OH237971   3.850   1.108  12.915 -0.2335  0.1557 -0.1110
 5519TIP3    H137972   3.883   1.124  12.826  0.3771 -2.0797 -0.3446
 5519TIP3    H237973   3.763   1.149  12.915 -1.0746 -1.3762 -2.4321
 5520TIP3   OH237974   4.515   0.920  15.638 -0.1648  0.2002  1.4089
 5520TIP3    H137975   4.489   1.010  15.656 -1.0148 -0.3593  3.2842
 5520TIP3    H237976   4.577   0.927  15.565 -0.9658  2.1766  0.8455
 5521TIP3   OH237977   5.487   6.761  13.384  0.9705  0.2901  0.9504
 5521TIP3    H137978   5.470   6.735  13.294 -1.4654  0.5162  1.2860
 5521TIP3    H237979   5.579   6.788  13.384  1.4753 -1.1860 -1.0810
 5522TIP3   OH237980   2.029   2.880  14.427 -0.3116  0.4518 -0.3138
 5522TIP3    H137981   1.978   2.945  14.476  1.0778  2.2026 -1.0619
 5522TIP3    H237982   1.969   2.850  14.359 -0.5562  2.1013 -0.8719
 5523TIP3   OH237983   5.805   2.604  12.281 -0.1762  0.1225 -0.0872
 5523TIP3    H137984   5.874   2.581  12.343  1.6002 -1.0460 -2.3401
 5523TIP3    H237985   5.738   2.647  12.334  0.8670 -1.4801  2.7331
 5524TIP3   OH237986   4.391   0.204  15.707 -0.0805 -0.3737 -0.3007
 5524TIP3    H137987   4.347   0.255  15.775  1.2295  0.0391  0.2542
 5524TIP3    H237988   4.338   0.219  15.628 -1.8517 -1.1713  0.6640
 5525TIP3   OH237989   0.445   2.346  14.640  0.2279 -0.0390  0.2617
 5525TIP3    H137990   0.426   2.439  14.655  0.6322  0.0794  0.0469
 5525TIP3    H237991   0.381   2.300  14.695  0.0744  0.3643  0.4303
 5526TIP3   OH237992   5.967   4.146  13.994  0.1757 -0.2375  0.1263
 5526TIP3    H137993   5.976   4.054  14.019 -0.6178 -0.1293  0.8524
 5526TIP3    H237994   5.909   4.144  13.917 -0.2756 -0.3087  0.4663
 5527TIP3   OH237995   3.657   2.217   5.734 -0.1404 -0.1896  0.1892
 5527TIP3    H137996   3.572   2.234   5.775 -1.0379  1.0500 -2.0375
 5527TIP3    H237997   3.714   2.286   5.767 -0.3681 -0.2236  0.6599
 5528TIP3   OH237998   6.060   4.085  15.623  0.0389 -0.0236  0.5051
 5528TIP3    H137999   6.095   4.145  15.558  0.2500 -0.5123  0.1562
 5528TIP3    H238000   6.018   4.016  15.571  1.3513 -1.1210  0.8270
 5529TIP3   OH238001   5.654   6.728   2.497 -0.2578 -0.4576 -0.1023
 5529TIP3    H138002   5.726   6.732   2.433 -0.1642 -0.7684 -0.0209
 5529TIP3    H238003   5.663   6.808   2.548  1.3054 -1.4154  1.2496
 5530TIP3   OH238004   4.665   5.451   2.277 -0.2364  0.0192 -0.3869
 5530TIP3    H138005   4.736   5.506   2.244  0.4373  0.1923  1.2325
 5530TIP3    H238006   4.645   5.391   2.206  0.5384  0.9214 -1.3892
 5531TIP3   OH238007   0.297   4.133  14.066  0.3611 -0.0761  0.3177
 5531TIP3    H138008   0.297   4.061  14.129  1.5542 -0.9071 -0.5867
 5531TIP3    H238009   0.296   4.212  14.120 -2.9328 -0.6689  1.3444
 5532TIP3   OH238010   5.827   4.189  12.872  0.2632  0.0772  0.2369
 5532TIP3    H138011   5.779   4.151  12.946 -0.0888  1.4441  0.7365
 5532TIP3    H238012   5.764   4.188  12.800  0.5061 -0.9761  0.0310
 5533TIP3   OH238013   2.695   6.403   4.576  0.3400  0.1754 -0.0523
 5533TIP3    H138014   2.607   6.396   4.612  1.0585  0.3375  1.8577
 5533TIP3    H238015   2.713   6.318   4.537 -0.3048 -0.1743  0.4150
 5534TIP3   OH238016   5.964   0.237  15.118  0.1960  0.4781  0.6338
 5534TIP3    H138017   6.019   0.159  15.126 -1.2125 -0.4918  1.1054
 5534TIP3    H238018   5.991   0.276  15.034  0.5715 -0.7881  0.1409
 5535TIP3   OH238019   5.198   2.768   5.328  0.1443  0.7607  0.1232
 5535TIP3    H138020   5.283   2.797   5.362  0.8940 -2.9734  2.0220
 5535TIP3    H238021   5.157   2.724   5.402 -1.9774 -0.4492 -1.6581
 5536TIP3   OH238022   5.027   0.289   6.714 -0.1087 -0.0184  0.1624
 5536TIP3    H138023   4.995   0.359   6.658 -0.2500  1.2840  1.7987
 5536TIP3    H238024   4.996   0.209   6.673 -0.1370  0.8756 -1.6387
 5537TIP3   OH238025   0.058   5.337  17.340  0.0879  0.2991 -0.7509
 5537TIP3    H138026  -0.015   5.392  17.313 -0.7051  0.3804  1.3287
 5537TIP3    H238027   0.116   5.396  17.389  1.1102  0.0397 -1.6105
 5538TIP3   OH238028   3.410   1.194  12.862  0.5276 -0.0677  0.3073
 5538TIP3    H138029   3.315   1.193  12.849  0.2285  2.8727  1.4149
 5538TIP3    H238030   3.445   1.173  12.776 -1.0852 -1.7750 -0.0043
 5539TIP3   OH238031   5.746   1.529  13.374 -0.3901  0.5820  0.1804
 5539TIP3    H138032   5.742   1.447  13.424 -0.5386  0.0854 -0.6401
 5539TIP3    H238033   5.838   1.556  13.381 -0.0811 -0.2471 -0.4751
 5540TIP3   OH238034   6.664   2.064   2.433 -0.2809 -0.0393 -0.0570
 5540TIP3    H138035   6.654   2.102   2.520 -0.4730  1.4085 -0.6810
 5540TIP3    H238036   6.755   2.035   2.431 -0.6190 -1.2666  1.0559
 5541TIP3   OH238037   2.056   5.016   5.603  0.5608  0.4937 -0.1790
 5541TIP3    H138038   1.978   5.002   5.658  0.0683  2.7173 -0.2114
 5541TIP3    H238039   2.115   4.945   5.626 -0.6790 -0.0960  1.3409
 5542TIP3   OH238040   1.338   2.753   4.135  0.0044 -0.3750 -0.0676
 5542TIP3    H138041   1.397   2.828   4.146 -0.5792  0.0363  0.3673
 5542TIP3    H238042   1.358   2.718   4.049  0.0434  0.5114 -0.4303
 5543TIP3   OH238043   2.481   4.752  16.910 -0.0231  0.6242  0.5033
 5543TIP3    H138044   2.563   4.778  16.868  1.6298 -0.5880  2.7942
 5543TIP3    H238045   2.460   4.667  16.873  1.8309 -0.7878  2.5043
 5544TIP3   OH238046   3.435   3.476   2.759 -0.3260 -0.0839 -0.1384
 5544TIP3    H138047   3.435   3.397   2.705  0.1339 -0.0522 -0.1900
 5544TIP3    H238048   3.503   3.531   2.720  0.9846 -0.6167  1.2997
 5545TIP3   OH238049   1.622   5.771   4.622  0.4419 -0.1831  0.3483
 5545TIP3    H138050   1.678   5.790   4.546 -1.6424 -0.4682 -1.3734
 5545TIP3    H238051   1.661   5.820   4.694  2.5142  0.1129 -0.8960
 5546TIP3   OH238052   4.033   2.635  15.955  0.9445  0.2206 -0.1258
 5546TIP3    H138053   4.094   2.609  16.025  0.6680  1.5472  0.6287
 5546TIP3    H238054   3.959   2.575  15.965  0.2158  1.3287  1.7418
 5547TIP3   OH238055   1.687   5.734   3.801 -0.0809 -0.5954 -0.2806
 5547TIP3    H138056   1.780   5.739   3.781 -0.3229  0.0722 -1.3512
 5547TIP3    H238057   1.680   5.666   3.868  1.2128 -0.3745  0.1062
 5548TIP3   OH238058   0.649   1.680   3.205  0.1444  0.1472  0.1857
 5548TIP3    H138059   0.672   1.679   3.298  0.6021 -1.2375  0.0717
 5548TIP3    H238060   0.651   1.589   3.178  2.5936  0.6572 -1.8111
 5549TIP3   OH238061   4.491   2.587   1.611  0.6931  0.1740  0.8086
 5549TIP3    H138062   4.510   2.657   1.674  1.7279  0.6737 -0.0083
 5549TIP3    H238063   4.445   2.632   1.540  0.3805 -0.1929  0.7807
 5550TIP3   OH238064   5.994   1.842   4.766  0.2855  0.3421 -0.3387
 5550TIP3    H138065   6.027   1.930   4.783 -0.0826  0.2094  1.2317
 5550TIP3    H238066   6.027   1.820   4.679  1.7117  1.4054 -0.0999
 5551TIP3   OH238067   0.968   0.878  15.944 -0.7757  0.6799  0.3698
 5551TIP3    H138068   0.989   0.961  15.987 -3.0743  0.7584  1.5456
 5551TIP3    H238069   0.936   0.903  15.857  1.6679  0.7078 -0.5805
 5552TIP3   OH238070   4.296   3.554   0.612 -0.3881 -0.4784 -0.4431
 5552TIP3    H138071   4.380   3.558   0.564 -0.7838  1.1484 -1.0769
 5552TIP3    H238072   4.247   3.484   0.568 -0.7976  1.0724 -2.6030
 5553TIP3   OH238073   4.862   2.103   5.923 -1.2441  0.3923  0.2627
 5553TIP3    H138074   4.777   2.120   5.883 -1.3878  0.0616  0.4272
 5553TIP3    H238075   4.859   2.149   6.007 -0.6015  1.8578 -0.4933
 5554TIP3   OH238076   5.294   5.731   0.580 -0.1000 -0.5933  0.1162
 5554TIP3    H138077   5.252   5.815   0.599 -0.1958 -0.6203  0.0251
 5554TIP3    H238078   5.234   5.665   0.616 -1.0382 -0.7228 -1.5767
 5555TIP3   OH238079   0.409   6.007  17.065 -0.0920 -0.4515 -0.3704
 5555TIP3    H138080   0.451   6.038  17.145  0.2082  1.7527 -1.2897
 5555TIP3    H238081   0.322   6.048  17.066 -0.8511 -2.0020 -0.2514
 5556TIP3   OH238082   2.017   6.289   5.247  0.2931  1.4211  0.0951
 5556TIP3    H138083   1.977   6.202   5.240  0.8941  1.2701 -2.1688
 5556TIP3    H238084   1.953   6.341   5.296 -0.7650  0.1094  0.1536
 5557TIP3   OH238085   0.832   4.687   4.518  0.3035 -0.2226  0.5145
 5557TIP3    H138086   0.900   4.638   4.565  0.3057  0.4585  1.2516
 5557TIP3    H238087   0.764   4.702   4.584  0.5624  1.2539  0.4826
 5558TIP3   OH238088   4.377   5.691  12.229 -0.1484  0.9004 -0.3570
 5558TIP3    H138089   4.357   5.766  12.173 -1.4171  1.4278  0.7372
 5558TIP3    H238090   4.311   5.625  12.205  1.9731 -0.6252 -2.5212
 5559TIP3   OH238091   5.940   0.429  17.297 -0.5917  0.1197  0.6833
 5559TIP3    H138092   5.918   0.396  17.210  0.7351 -0.4534  0.5486
 5559TIP3    H238093   5.857   0.463  17.331 -0.7579  2.3578 -1.6287
 5560TIP3   OH238094   6.168   6.387  13.100 -0.1860 -0.4866 -0.4124
 5560TIP3    H138095   6.210   6.311  13.142  0.9945  1.2008  1.6365
 5560TIP3    H238096   6.241   6.442  13.072 -1.0057  0.8184 -0.0578
 5561TIP3   OH238097   0.192   4.350   5.508  0.3351  0.1110  0.1133
 5561TIP3    H138098   0.262   4.384   5.564 -0.7880  1.5341  0.7242
 5561TIP3    H238099   0.198   4.402   5.428  1.0506 -0.9640 -0.5562
 5562TIP3   OH238100   2.913   5.381  13.569 -0.1471 -0.2143  0.1470
 5562TIP3    H138101   2.949   5.459  13.611  0.9998 -0.0523 -1.0794
 5562TIP3    H238102   2.836   5.359  13.622  1.2802 -0.1342  2.3974
 5563TIP3   OH238103   3.538   3.687   5.561  0.4360  0.1494  0.5211
 5563TIP3    H138104   3.461   3.631   5.553  0.0911  0.5273  1.1263
 5563TIP3    H238105   3.605   3.630   5.599  0.1591  0.0679  0.9038
 5564TIP3   OH238106   5.049   5.155  11.520  0.3702  0.3867  0.3787
 5564TIP3    H138107   5.093   5.226  11.473 -0.5096  1.2342  0.8088
 5564TIP3    H238108   5.007   5.197  11.595 -2.7249  0.0088 -0.9596
 5565TIP3   OH238109   0.580   5.728   6.008  0.2990 -0.2087 -0.4965
 5565TIP3    H138110   0.666   5.766   5.993 -0.4555  1.9712  0.2699
 5565TIP3    H238111   0.529   5.799   6.048 -2.3233 -0.9160 -2.3054
 5566TIP3   OH238112   4.358   5.979  11.364  0.0112 -0.0289 -0.8002
 5566TIP3    H138113   4.360   6.042  11.292  0.4792  0.0058 -0.7620
 5566TIP3    H238114   4.270   5.941  11.361  0.1777 -0.3681 -1.6798
 5567TIP3   OH238115   3.665   1.424  14.084  0.0980  0.0126 -0.4885
 5567TIP3    H138116   3.730   1.357  14.105  0.3669  0.1418 -0.8980
 5567TIP3    H238117   3.582   1.376  14.076  0.2891 -0.2694 -0.7827
 5568TIP3   OH238118   6.474   5.837  15.580 -0.0991 -0.1423 -0.6028
 5568TIP3    H138119   6.463   5.818  15.673  0.5394  1.8307 -0.0762
 5568TIP3    H238120   6.551   5.894  15.576  0.5934 -1.1433 -2.4819
 5569TIP3   OH238121   3.933   5.777  14.150  0.1539 -0.0232 -0.2533
 5569TIP3    H138122   3.995   5.804  14.082  0.2350  2.0201  0.5499
 5569TIP3    H238123   3.853   5.755  14.103  0.4144  0.7100 -1.0674
 5570TIP3   OH238124   5.127   0.026   3.037 -0.5056 -0.4996 -0.7095
 5570TIP3    H138125   5.066  -0.026   3.090  0.6396  0.5886  1.8247
 5570TIP3    H238126   5.071   0.085   2.987 -1.6192  0.3506  1.4125
 5571TIP3   OH238127   3.919   5.776   6.563  0.2457  0.3326  0.9319
 5571TIP3    H138128   4.010   5.792   6.590 -0.5040  2.8641  2.2956
 5571TIP3    H238129   3.880   5.730   6.637 -0.4226  2.4734  2.0061
 5572TIP3   OH238130   0.568   3.850  12.288 -0.3431  0.1159 -0.4761
 5572TIP3    H138131   0.560   3.798  12.208  1.0637 -1.1746  0.1830
 5572TIP3    H238132   0.526   3.796  12.356 -2.3380  1.5826 -0.4321
 5573TIP3   OH238133   0.535   0.548  16.418  0.0238 -0.6406 -0.0352
 5573TIP3    H138134   0.572   0.539  16.330 -0.4839 -0.8229 -0.2314
 5573TIP3    H238135   0.592   0.611  16.462 -1.4500  1.7991 -1.4490
 5574TIP3   OH238136   2.706   5.321  13.349  0.2029  0.2657 -0.2431
 5574TIP3    H138137   2.738   5.234  13.324 -0.4415 -0.3191  0.9016
 5574TIP3    H238138   2.777   5.359  13.400  1.0319  0.9808 -1.8536
 5575TIP3   OH238139   3.435   6.730   2.622 -0.0761  0.2388 -0.2143
 5575TIP3    H138140   3.459   6.760   2.534  0.4257  2.4779  0.6396
 5575TIP3    H238141   3.486   6.649   2.634  0.4800  0.3438 -1.6534
 5576TIP3   OH238142   4.441   3.099   4.648 -0.8129  0.0183 -0.0934
 5576TIP3    H138143   4.389   3.069   4.723 -0.5715 -1.4777 -0.4836
 5576TIP3    H238144   4.525   3.124   4.687 -1.6141  2.0347  0.4804
 5577TIP3   OH238145   3.167   0.206   1.465 -0.0684  0.3871  0.1456
 5577TIP3    H138146   3.220   0.225   1.387  0.3750 -2.7577 -0.4339
 5577TIP3    H238147   3.077   0.223   1.438  0.1928  0.6078 -0.6160
 5578TIP3   OH238148   0.924   5.624   4.946  0.3606  0.1035 -0.0377
 5578TIP3    H138149   0.978   5.618   4.867  0.5815  0.0548  0.1144
 5578TIP3    H238150   0.854   5.685   4.923  0.7121  0.4886 -0.1118
 5579TIP3   OH238151   3.120   0.556  15.040  0.1306 -0.4558 -0.7288
 5579TIP3    H138152   3.037   0.535  14.997  0.7501  0.0009 -2.1922
 5579TIP3    H238153   3.151   0.472  15.074 -1.0435 -0.5912  0.1025
 5580TIP3   OH238154   1.075   1.060   0.554 -0.0570 -0.1212  0.2151
 5580TIP3    H138155   1.092   1.013   0.472 -0.0093  0.1191  0.0881
 5580TIP3    H238156   0.993   1.022   0.585  0.0146 -0.3381  0.1472
 5581TIP3   OH238157   5.137   1.298  15.479 -0.3353 -0.1310 -0.2333
 5581TIP3    H138158   5.160   1.380  15.524 -1.2134  0.4903 -0.8860
 5581TIP3    H238159   5.207   1.237  15.503 -0.1182  0.5574  0.9535
 5582TIP3   OH238160   5.129   0.214   1.578 -0.0424  0.5479  0.0451
 5582TIP3    H138161   5.068   0.282   1.606 -0.1482  1.0166 -1.2518
 5582TIP3    H238162   5.155   0.170   1.659 -0.7952  1.4360  0.7915
 5583TIP3   OH238163   5.403   5.113   5.912 -0.5208 -0.2409  0.1085
 5583TIP3    H138164   5.453   5.131   5.992  0.3876 -0.8479 -0.2948
 5583TIP3    H238165   5.312   5.116   5.939 -0.2674  0.6060  0.9445
 5584TIP3   OH238166   1.188   6.609   2.535  0.0043 -0.2541 -0.6586
 5584TIP3    H138167   1.276   6.578   2.513 -0.0806 -1.5375  0.6578
 5584TIP3    H238168   1.191   6.626   2.629 -0.4601  2.1972 -1.0334
 5585TIP3   OH238169   1.925   2.549  15.096 -0.2187  0.5551 -0.7718
 5585TIP3    H138170   1.858   2.608  15.060 -0.9295  1.5519  1.9575
 5585TIP3    H238171   1.922   2.564  15.190  1.2996 -2.1263 -0.1974
 5586TIP3   OH238172   2.460   4.074   6.021 -0.0849 -0.0314  0.4050
 5586TIP3    H138173   2.462   4.087   6.116  1.6339  0.6415  0.3171
 5586TIP3    H238174   2.545   4.035   6.001  0.2402  1.3223 -1.0286
 5587TIP3   OH238175   5.991   2.853   0.131  0.7128 -0.0303 -0.1016
 5587TIP3    H138176   6.007   2.809   0.214  0.2741 -0.1026 -0.0536
 5587TIP3    H238177   5.895   2.858   0.124  0.7529  1.0221 -0.0496
 5588TIP3   OH238178   3.312   2.160  12.427 -0.2736  0.1975  0.2545
 5588TIP3    H138179   3.291   2.254  12.428 -1.9768 -0.0453 -2.4113
 5588TIP3    H238180   3.256   2.123  12.496  2.2813  1.3081  3.1819
 5589TIP3   OH238181   1.592   3.843  15.480 -0.7477 -0.2701  0.8304
 5589TIP3    H138182   1.535   3.859  15.405  1.2379  2.2297 -0.3226
 5589TIP3    H238183   1.679   3.832  15.442  0.1161 -0.3875  2.7016
 5590TIP3   OH238184   3.703   1.638   0.853 -0.1375 -0.0541  0.3009
 5590TIP3    H138185   3.667   1.654   0.765 -1.1645  1.5403  0.9609
 5590TIP3    H238186   3.657   1.560   0.884 -1.7671  0.8919  0.4034
 5591TIP3   OH238187   4.276   5.378  14.298  0.0705 -0.4234 -0.1539
 5591TIP3    H138188   4.230   5.326  14.233  1.4634 -0.3279 -1.2662
 5591TIP3    H238189   4.313   5.314  14.359  0.8075 -0.6866 -0.8622
 5592TIP3   OH238190   4.546   6.142   4.924  0.1245  0.5001 -0.6868
 5592TIP3    H138191   4.635   6.153   4.959  0.1567  0.9677 -0.9106
 5592TIP3    H238192   4.546   6.192   4.843 -0.1150 -0.1339 -1.0903
 5593TIP3   OH238193   0.549   5.784  12.738 -0.2364 -0.3805 -1.2933
 5593TIP3    H138194   0.556   5.790  12.834 -1.2372  0.2243 -1.2432
 5593TIP3    H238195   0.635   5.809  12.706  0.2926 -1.1446 -0.5409
 5594TIP3   OH238196   0.738   2.378  14.532  0.7182  0.6018 -0.2706
 5594TIP3    H138197   0.646   2.389  14.554  0.3839  1.9858 -2.0961
 5594TIP3    H238198   0.755   2.284  14.541 -1.5669 -0.0927 -2.2913
 5595TIP3   OH238199   2.053   5.051   1.676 -0.1924  0.0121 -0.2127
 5595TIP3    H138200   1.995   5.010   1.612 -0.1020  1.2873 -1.1610
 5595TIP3    H238201   1.994   5.101   1.733 -0.2077 -0.5569  0.2864
 5596TIP3   OH238202   1.389   2.524   0.710  0.1631 -0.2979 -0.2015
 5596TIP3    H138203   1.392   2.615   0.739  1.2232  0.5349 -2.6365
 5596TIP3    H238204   1.381   2.473   0.790  0.2184  1.8890  1.2787
 5597TIP3   OH238205   1.864   3.325  14.429  0.1220  0.4271 -0.8465
 5597TIP3    H138206   1.825   3.311  14.343  0.6830 -0.9873 -0.8911
 5597TIP3    H238207   1.862   3.239  14.470  0.6606  0.9167  0.2220
 5598TIP3   OH238208   4.224   0.088  11.233 -0.7511  0.2098  0.3593
 5598TIP3    H138209   4.193   0.049  11.151 -2.3886  0.2825  0.9049
 5598TIP3    H238210   4.150   0.141  11.263  0.4424  1.5521  1.0317
 5599TIP3   OH238211   2.526   5.221   2.725  0.0008 -0.3708  0.1315
 5599TIP3    H138212   2.516   5.243   2.633 -0.5103 -2.1394 -0.2846
 5599TIP3    H238213   2.439   5.235   2.763  0.2411  0.4769  0.3952
 5600TIP3   OH238214   6.161   3.270   3.433  0.5931  0.9767 -0.4317
 5600TIP3    H138215   6.200   3.238   3.352  1.8827 -0.6904  0.7630
 5600TIP3    H238216   6.228   3.253   3.500 -1.6712 -0.9907  1.5416
 5601TIP3   OH238217   6.554   6.388  11.683  0.5245 -0.4535  0.2261
 5601TIP3    H138218   6.523   6.410  11.595 -0.8789 -0.0148  0.7958
 5601TIP3    H238219   6.635   6.339  11.669  0.9395  0.5969 -1.2659
 5602TIP3   OH238220   6.759   2.277  10.942 -0.6727  0.3358 -0.6303
 5602TIP3    H138221   6.821   2.210  10.972 -0.1422  1.0324 -0.1136
 5602TIP3    H238222   6.806   2.360  10.956 -1.8885  0.9063  0.2174
 5603TIP3   OH238223   1.209   5.940  11.047  0.0297  0.2950  0.3656
 5603TIP3    H138224   1.199   5.903  10.959 -0.7992  0.2790  0.4671
 5603TIP3    H238225   1.228   6.032  11.032  2.0565 -0.1111  0.1120
 5604TIP3   OH238226   4.794   2.421  11.199  0.2511  0.4054 -0.2048
 5604TIP3    H138227   4.815   2.403  11.108 -1.2376  1.0335 -0.6913
 5604TIP3    H238228   4.708   2.382  11.212  0.9925 -0.8332  1.3211
 5605TIP3   OH238229   4.639   2.196   0.129  0.0901 -0.3903  0.2880
 5605TIP3    H138230   4.604   2.192   0.218  0.8150 -0.4406  0.5748
 5605TIP3    H238231   4.613   2.282   0.097 -0.4369 -0.4911  0.4344
 5606TIP3   OH238232   3.102   6.729   2.277  0.3935 -0.2875  0.1807
 5606TIP3    H138233   3.069   6.783   2.205  0.5734 -0.2264  0.1447
 5606TIP3    H238234   3.149   6.790   2.333 -0.4915 -0.1639  0.8174
 5607TIP3   OH238235   2.715   6.597   0.043  0.2237 -0.1802  0.4267
 5607TIP3    H138236   2.796   6.643   0.022  1.2664 -1.4736  1.4583
 5607TIP3    H238237   2.673   6.651   0.110 -0.0805  0.7994 -0.5387
 5608TIP3   OH238238   4.744   6.669  14.927 -0.7553 -0.2117  0.2978
 5608TIP3    H138239   4.827   6.658  14.881 -1.2411  0.6006 -0.8104
 5608TIP3    H238240   4.703   6.583  14.925 -0.3467 -0.4004  0.0543
 5609TIP3   OH238241   1.296   1.578  11.750  0.3146  0.0158 -0.3235
 5609TIP3    H138242   1.235   1.550  11.682  2.0264  1.6605 -2.6850
 5609TIP3    H238243   1.313   1.670  11.732  0.5710  0.6651  2.6437
 5610TIP3   OH238244   6.424   2.320  13.981  0.2827 -0.1961 -0.1528
 5610TIP3    H138245   6.347   2.279  14.021  0.3765 -1.1533 -0.9209
 5610TIP3    H238246   6.489   2.323  14.051 -0.5312  0.9363  0.6105
 5611TIP3   OH238247   1.485   1.643  11.457  0.3954  0.4389 -0.0069
 5611TIP3    H138248   1.534   1.683  11.385  0.4309 -0.1919 -0.3393
 5611TIP3    H238249   1.465   1.716  11.516  2.2615  0.6293  0.4577
 5612TIP3   OH238250   1.778   5.997  16.485 -0.6024  0.4839 -0.1263
 5612TIP3    H138251   1.843   6.021  16.420  0.3730 -0.5749  0.4281
 5612TIP3    H238252   1.751   6.080  16.524 -0.2095  1.0022 -0.9343
 5613TIP3   OH238253   5.598   2.595   0.295 -0.0114 -0.0715 -0.2602
 5613TIP3    H138254   5.563   2.514   0.331  1.8604 -0.8662 -0.1460
 5613TIP3    H238255   5.666   2.622   0.356 -0.5855  1.6173 -0.2948
 5614TIP3   OH238256   4.204   4.583  14.522 -0.2477  0.1129 -0.0599
 5614TIP3    H138257   4.147   4.514  14.556 -0.2449 -0.0622 -0.4115
 5614TIP3    H238258   4.164   4.609  14.439  0.0197  0.1949 -0.1646
 5615TIP3   OH238259   1.741   5.804   5.611 -0.5039 -0.0752 -0.3426
 5615TIP3    H138260   1.656   5.837   5.581 -1.1272 -1.5643 -0.3116
 5615TIP3    H238261   1.780   5.764   5.533  0.0262  0.3225 -0.2835
 5616TIP3   OH238262   2.934   5.226  13.834  0.2639 -0.7014  0.4774
 5616TIP3    H138263   2.904   5.166  13.765 -1.3775  1.7715 -1.1210
 5616TIP3    H238264   2.885   5.199  13.912 -4.8111  1.6335 -1.4496
 5617TIP3   OH238265   0.296   2.724   5.443 -0.2564 -0.0192  0.3258
 5617TIP3    H138266   0.319   2.633   5.426 -2.0074 -0.6506  1.1524
 5617TIP3    H238267   0.249   2.752   5.364  0.4714  0.2719 -0.0214
 5618TIP3   OH238268   2.616   4.136   2.565  0.2789  0.2794  0.0412
 5618TIP3    H138269   2.560   4.173   2.632 -1.1523 -2.5264  0.5539
 5618TIP3    H238270   2.691   4.101   2.613 -0.8780 -1.9780  0.3346
 5619TIP3   OH238271   5.789   2.006  11.871  0.3211  0.4419 -0.5401
 5619TIP3    H138272   5.846   2.059  11.927  1.5252 -1.2340 -0.1083
 5619TIP3    H238273   5.849   1.954  11.817 -0.7546 -1.3874 -0.0814
 5620TIP3   OH238274   6.350   3.019   6.546 -0.7601  0.0242 -0.3382
 5620TIP3    H138275   6.319   3.067   6.470 -0.2724  1.8927  0.5856
 5620TIP3    H238276   6.429   2.974   6.514 -1.1837 -0.1323 -1.2065
 5621TIP3   OH238277   0.834   0.863   1.642 -0.6074 -0.4929  0.0596
 5621TIP3    H138278   0.929   0.863   1.632 -0.6696 -0.3739 -0.6056
 5621TIP3    H238279   0.819   0.892   1.732 -0.0610  1.8350 -0.5268
 5622TIP3   OH238280   5.146   4.655   3.320 -0.2173  0.3979 -0.5714
 5622TIP3    H138281   5.206   4.611   3.380 -1.8024 -0.4810  0.4483
 5622TIP3    H238282   5.127   4.739   3.362 -0.9859 -0.0319 -0.0491
 5623TIP3   OH238283   4.490   0.513   3.247  0.5520  0.1316 -0.4031
 5623TIP3    H138284   4.581   0.503   3.274  0.0423 -2.2096  0.6790
 5623TIP3    H238285   4.465   0.600   3.279  1.5667 -0.3533  1.9006
 5624TIP3   OH238286   6.550   3.913  12.382  0.0357  0.2871 -0.1225
 5624TIP3    H138287   6.552   3.822  12.353 -3.0012  0.0904 -0.0280
 5624TIP3    H238288   6.551   3.964  12.300 -1.6354 -0.0095 -0.3634
 5625TIP3   OH238289   1.833   2.105  12.887  0.0573  0.1772 -0.2253
 5625TIP3    H138290   1.893   2.119  12.960  0.8479 -0.8648 -0.6505
 5625TIP3    H238291   1.776   2.183  12.887  0.5731  0.5732  0.9741
 5626TIP3   OH238292   3.174   0.636   1.386 -0.1896 -0.4591  0.3175
 5626TIP3    H138293   3.114   0.703   1.418 -0.6213 -0.4788 -0.4275
 5626TIP3    H238294   3.261   0.677   1.393 -0.3602 -0.1517  0.6796
 5627TIP3   OH238295   3.844   6.056  14.556 -0.0479  0.0561 -0.6619
 5627TIP3    H138296   3.884   6.045  14.470  0.7840  0.0044 -0.2825
 5627TIP3    H238297   3.823   6.150  14.561  0.3845  0.1577 -0.7208
 5628TIP3   OH238298   4.007   0.912  11.005  0.0923 -0.0934  0.2808
 5628TIP3    H138299   3.972   0.944  11.088  0.0613 -0.6927  0.5016
 5628TIP3    H238300   4.040   0.991  10.961  0.9899  0.1196  1.2856
 5629TIP3   OH238301   3.384   1.317  13.728 -0.7056  0.4096 -0.0981
 5629TIP3    H138302   3.369   1.406  13.695  1.4972  0.1008 -2.2144
 5629TIP3    H238303   3.460   1.286  13.679 -1.4096 -2.6818  0.5657
 5630TIP3   OH238304   5.519   0.192  13.049  0.1166 -0.4725 -0.2531
 5630TIP3    H138305   5.538   0.099  13.058 -0.1538 -0.8873 -3.1277
 5630TIP3    H238306   5.584   0.224  12.986 -0.9430  0.8652 -0.7166
 5631TIP3   OH238307   1.181   0.153   2.966  0.4203  0.2629 -0.5385
 5631TIP3    H138308   1.234   0.098   2.908 -0.2345  0.0120 -0.9152
 5631TIP3    H238309   1.146   0.092   3.031  1.5744  0.6303  0.4521
 5632TIP3   OH238310   3.196   6.070   0.405  0.2951 -0.5106  0.1237
 5632TIP3    H138311   3.128   6.104   0.346  0.1814 -0.4718  0.2762
 5632TIP3    H238312   3.259   6.028   0.347  0.8398  0.6361 -0.1435
 5633TIP3   OH238313   0.722   5.363   5.003  0.4970 -0.3436  0.2570
 5633TIP3    H138314   0.797   5.396   5.053 -0.0096 -0.6071  1.2096
 5633TIP3    H238315   0.689   5.439   4.955  0.0243  0.3024  1.5618
 5634TIP3   OH238316   0.442   5.614  17.043  0.5382  0.1902  0.0961
 5634TIP3    H138317   0.496   5.541  17.014 -0.3680 -0.6250  0.3776
 5634TIP3    H238318   0.493   5.693  17.022  0.2630 -0.3365 -3.0445
 5635TIP3   OH238319   0.932   1.884   1.017 -0.0537  0.2008  0.4109
 5635TIP3    H138320   1.027   1.879   1.002 -0.1002  2.5120 -1.2416
 5635TIP3    H238321   0.923   1.907   1.109  0.9784 -0.0359  0.5880
 5636TIP3   OH238322   4.759   2.907   2.517  0.5364  0.5356  0.0665
 5636TIP3    H138323   4.711   2.967   2.460 -1.0453 -0.0959  0.6680
 5636TIP3    H238324   4.844   2.896   2.474  0.0113  1.3838 -1.2703
 5637TIP3   OH238325   2.149   4.166  13.114 -0.2923  0.3968  0.0422
 5637TIP3    H138326   2.107   4.230  13.056  0.2634  0.5288 -0.2198
 5637TIP3    H238327   2.167   4.091  13.058 -1.3952 -0.2035  0.4596
 5638TIP3   OH238328   6.570   3.506  15.686  0.0596 -0.0712 -0.2985
 5638TIP3    H138329   6.642   3.446  15.669  0.4850  0.4068 -0.1914
 5638TIP3    H238330   6.553   3.498  15.780 -1.1288 -1.4044 -0.5867
 5639TIP3   OH238331   3.032   5.157   4.381 -0.2397  0.2171  0.0360
 5639TIP3    H138332   2.986   5.078   4.410  0.8563 -0.2483  0.5804
 5639TIP3    H238333   2.966   5.225   4.381 -0.8646 -0.3611  1.0830
 5640TIP3   OH238334   2.660   2.851   3.001 -0.4678 -0.1425  0.5489
 5640TIP3    H138335   2.665   2.930   3.055  0.3460 -1.4741  2.5083
 5640TIP3    H238336   2.718   2.788   3.044  1.9790 -0.6812 -2.9982
 5641TIP3   OH238337   3.697   4.049   2.833 -0.1844  0.1178 -0.0326
 5641TIP3    H138338   3.620   4.103   2.848 -0.6245  0.1672 -2.1258
 5641TIP3    H238339   3.705   3.995   2.912  0.0761  2.9113  2.0025
 5642TIP3   OH238340   4.451   6.661  16.748 -0.1401 -0.7212 -0.5141
 5642TIP3    H138341   4.495   6.577  16.762 -0.7148 -1.0863 -0.8922
 5642TIP3    H238342   4.464   6.708  16.831  2.6763 -0.0088 -1.2565
 5643TIP3   OH238343   5.080   3.900   0.835  0.2457  0.4305  0.2358
 5643TIP3    H138344   5.060   3.844   0.760 -0.7471  0.8651  0.1566
 5643TIP3    H238345   5.024   3.867   0.905 -0.4057  1.3454  0.1702
 5644TIP3   OH238346   6.563   2.234   5.919  0.2716 -0.5919  0.5512
 5644TIP3    H138347   6.468   2.225   5.931  0.2668  0.4780  1.3751
 5644TIP3    H238348   6.573   2.304   5.855  0.5250 -0.0296  1.1978
 5645TIP3   OH238349   6.421   5.328   2.977  0.5433  0.1484 -0.4171
 5645TIP3    H138350   6.352   5.370   2.927 -0.0005  2.1675  1.8530
 5645TIP3    H238351   6.502   5.371   2.948  0.5441 -0.3598 -1.1966
 5646TIP3   OH238352   2.477   3.199  16.265 -0.3455  0.0866 -0.4428
 5646TIP3    H138353   2.500   3.284  16.304  1.0294 -0.5527  0.2308
 5646TIP3    H238354   2.553   3.175  16.212  1.2689 -2.6240  2.7169
 5647TIP3   OH238355   0.340   1.364   0.899  0.2399 -0.4013  0.0912
 5647TIP3    H138356   0.325   1.277   0.936  0.3345 -0.3315  0.2939
 5647TIP3    H238357   0.289   1.423   0.955 -2.8663 -0.7062 -2.1640
 5648TIP3   OH238358   3.909   4.132   4.700 -0.0639 -0.0617 -0.2315
 5648TIP3    H138359   3.817   4.156   4.715  0.5590  3.0989 -0.8248
 5648TIP3    H238360   3.909   4.096   4.611 -0.6663  0.5174 -0.4818
 5649TIP3   OH238361   1.328   4.082   5.654 -0.1444 -0.3002  0.4668
 5649TIP3    H138362   1.286   4.091   5.568 -1.1416  2.5105  1.1469
 5649TIP3    H238363   1.409   4.134   5.646  0.6052 -1.3829  0.7705
 5650TIP3   OH238364   0.385   4.411   4.391  0.1042 -0.2945  0.3685
 5650TIP3    H138365   0.342   4.409   4.305 -0.4019 -0.2121  0.6184
 5650TIP3    H238366   0.477   4.396   4.371 -0.2661 -2.5001 -0.0266
 5651TIP3   OH238367   6.188   2.935  14.759 -0.3811 -0.7686  0.1229
 5651TIP3    H138368   6.129   2.979  14.698  3.0810  0.3102 -2.8246
 5651TIP3    H238369   6.239   3.006  14.798  1.4038 -1.7745 -0.2708
 5652TIP3   OH238370   0.805   0.529   1.433 -0.1858 -0.1564 -0.3065
 5652TIP3    H138371   0.758   0.467   1.488  1.2869 -1.3955 -0.3997
 5652TIP3    H238372   0.894   0.529   1.467  0.3610  0.2916 -1.6758
 5653TIP3   OH238373   0.232   5.589   2.934  0.2265  0.1739  1.0132
 5653TIP3    H138374   0.190   5.629   3.010  0.3222  1.1983  0.5490
 5653TIP3    H238375   0.258   5.664   2.879  0.7102 -0.5219  0.2707
 5654TIP3   OH238376   0.548   0.955   2.060 -0.1302  1.0248  0.0091
 5654TIP3    H138377   0.600   0.889   2.105  0.7831  2.1037  0.5901
 5654TIP3    H238378   0.524   0.914   1.977  0.0681 -0.1767  0.5245
 5655TIP3   OH238379   4.117   2.143  14.099  0.2984  0.4947 -0.1456
 5655TIP3    H138380   4.074   2.087  14.035  0.5728  0.6314 -0.4512
 5655TIP3    H238381   4.153   2.215  14.048  0.9393  0.3540  0.0969
 5656TIP3   OH238382   5.451   0.017  14.670 -0.3338  0.0499  0.0184
 5656TIP3    H138383   5.380  -0.047  14.672 -0.7591  0.5176 -0.0065
 5656TIP3    H238384   5.440   0.068  14.750  0.5274 -0.4529  0.4804
 5657TIP3   OH238385   2.466   1.999  11.685 -0.1274  0.3248  0.6054
 5657TIP3    H138386   2.560   1.987  11.699  0.1691 -1.0088 -1.9899
 5657TIP3    H238387   2.425   1.929  11.737  0.3171  0.7036  1.4808
 5658TIP3   OH238388   2.102   3.456   5.858 -0.2520  0.3502  0.3055
 5658TIP3    H138389   2.088   3.414   5.943 -1.2509  0.1765  0.0683
 5658TIP3    H238390   2.161   3.529   5.877  1.7659 -1.3069  0.6793
 5659TIP3   OH238391   0.176   5.945  13.212 -0.8916  0.1600 -0.7107
 5659TIP3    H138392   0.264   5.980  13.203 -1.4846  1.7136 -0.6977
 5659TIP3    H238393   0.137   5.953  13.124 -0.7566 -1.3612 -0.9496
 5660TIP3   OH238394   4.945   4.520  15.057  0.1209 -0.4965  0.0506
 5660TIP3    H138395   4.897   4.440  15.080 -0.0621 -0.8433 -1.4507
 5660TIP3    H238396   4.878   4.580  15.025  0.2540  0.3050  1.2161
 5661TIP3   OH238397   3.896   2.201  15.612 -0.8407 -0.3900  0.4265
 5661TIP3    H138398   3.890   2.284  15.660 -1.1628 -0.1190 -0.0793
 5661TIP3    H238399   3.902   2.227  15.520 -0.1022 -0.9047  0.3182
 5662TIP3   OH238400   2.199   6.574  12.457 -0.5469 -0.5021  0.1975
 5662TIP3    H138401   2.236   6.659  12.483 -1.6952  0.1388 -0.1968
 5662TIP3    H238402   2.205   6.574  12.361 -2.7231  0.2109 -0.0001
 5663TIP3   OH238403   3.455   5.670  16.898 -0.1682 -0.4213  0.2168
 5663TIP3    H138404   3.401   5.713  16.965  0.0891  0.4364 -0.1119
 5663TIP3    H238405   3.455   5.578  16.923 -0.9215 -0.2705  0.8152
 5664TIP3   OH238406   3.348   5.655   5.689  0.0448 -0.0959 -0.6853
 5664TIP3    H138407   3.286   5.725   5.711 -1.3308 -1.0824 -1.2793
 5664TIP3    H238408   3.364   5.665   5.595  1.3026  0.5213 -0.4296
 5665TIP3   OH238409   6.190   0.421  11.955  0.2262 -0.5316 -0.7897
 5665TIP3    H138410   6.104   0.461  11.952  0.1024 -0.7295 -0.0221
 5665TIP3    H238411   6.185   0.348  11.894 -0.3263 -0.8678 -0.3540
 5666TIP3   OH238412   4.083   1.865  13.407 -0.0838  0.3439  0.2766
 5666TIP3    H138413   3.991   1.882  13.387  0.9083  3.0909 -2.7901
 5666TIP3    H238414   4.094   1.896  13.497 -1.3281  4.3465 -0.7615
 5667TIP3   OH238415   0.226   1.751  15.334  0.6442 -0.4678 -0.1254
 5667TIP3    H138416   0.262   1.805  15.404  2.4373 -0.2290 -1.1693
 5667TIP3    H238417   0.302   1.727  15.281 -0.6758 -0.2990 -2.2043
 5668TIP3   OH238418   3.586   5.868  14.218  0.9345  0.2531  0.1530
 5668TIP3    H138419   3.608   5.840  14.307  1.7251  0.4676  0.0284
 5668TIP3    H238420   3.502   5.825  14.200  1.9389 -1.8165  0.0830
 5669TIP3   OH238421   5.116   6.319  16.238 -0.1442 -0.7736 -0.1349
 5669TIP3    H138422   5.068   6.326  16.320  0.1411  0.2498 -0.0463
 5669TIP3    H238423   5.058   6.357  16.172  0.4023  0.2150 -0.0721
 5670TIP3   OH238424   2.908   0.905  11.718  0.4788 -0.4888  0.3820
 5670TIP3    H138425   2.956   0.977  11.679 -0.7677 -0.3203 -0.9244
 5670TIP3    H238426   2.916   0.919  11.812  0.6987  1.0534  0.1626
 5671TIP3   OH238427   5.565   1.791  13.772 -0.3402 -0.2595 -0.0823
 5671TIP3    H138428   5.496   1.797  13.707  0.6082  2.0850 -0.9600
 5671TIP3    H238429   5.595   1.700  13.767  0.3009  0.0261 -3.6029
 5672TIP3   OH238430   3.231   1.954  17.038 -0.1645 -0.0646  0.0135
 5672TIP3    H138431   3.221   2.028  17.098 -0.1137 -0.4491  0.4998
 5672TIP3    H238432   3.301   1.981  16.978  1.3125 -0.5222  1.4479
 5673TIP3   OH238433   1.397   3.051  16.887 -0.3246  0.9235  0.1160
 5673TIP3    H138434   1.405   3.013  16.975 -0.9028  1.2523  0.3162
 5673TIP3    H238435   1.481   3.095  16.872  0.3807 -0.4497 -0.1339
 5674TIP3   OH238436   2.097   6.145  15.240  0.4215  0.0447  0.4951
 5674TIP3    H138437   2.171   6.102  15.284  0.3958 -0.8842 -0.3054
 5674TIP3    H238438   2.039   6.072  15.215 -0.2843  0.6769  0.2651
 5675TIP3   OH238439   4.067   5.545   1.038 -0.0888  0.4415 -0.0753
 5675TIP3    H138440   4.000   5.508   0.980  0.6739  1.2696 -1.5296
 5675TIP3    H238441   4.146   5.495   1.017 -0.1087 -0.2305  1.3166
 5676TIP3   OH238442   4.848   2.638  15.946 -0.9102 -0.0168  0.2450
 5676TIP3    H138443   4.789   2.674  15.880 -0.1670  0.4511 -0.1791
 5676TIP3    H238444   4.848   2.703  16.016 -0.4016  0.3007 -0.0441
 5677TIP3   OH238445   2.017   2.498   4.907 -0.3011 -0.0427  0.3830
 5677TIP3    H138446   1.992   2.576   4.858  1.3223  0.3155  0.0504
 5677TIP3    H238447   2.104   2.518   4.941 -1.4664 -0.0795  3.8159
 5678TIP3   OH238448   0.889   1.139  11.016  0.0665 -0.0615 -1.1777
 5678TIP3    H138449   0.896   1.084  10.938  0.4060  0.6085 -1.6257
 5678TIP3    H238450   0.952   1.210  11.002 -0.6736  0.6886 -0.8109
 5679TIP3   OH238451   0.356   3.683   6.517 -0.1640 -0.3186 -0.2222
 5679TIP3    H138452   0.302   3.758   6.492 -0.8792 -1.1998 -1.4425
 5679TIP3    H238453   0.444   3.706   6.489  0.4171  1.5766  2.7111
 5680TIP3   OH238454   1.038   5.006  16.645  0.6352  0.4831 -0.4612
 5680TIP3    H138455   1.025   4.997  16.740 -0.4223  0.3544 -0.6116
 5680TIP3    H238456   1.117   4.955  16.627 -0.4903 -1.5212 -0.0043
 5681TIP3   OH238457   1.370   2.339  12.957  0.4580  0.4605 -0.1292
 5681TIP3    H138458   1.328   2.340  12.871 -3.5930 -0.8372  1.5846
 5681TIP3    H238459   1.373   2.247  12.981  2.2242  0.7456  0.8869
 5682TIP3   OH238460   2.662   3.480   5.989 -0.4418 -0.1574 -0.7715
 5682TIP3    H138461   2.730   3.462   6.052  0.4350  1.3671 -1.2294
 5682TIP3    H238462   2.608   3.401   5.987 -1.0486  0.0608  2.5068
 5683TIP3   OH238463   4.458   1.945   0.948  0.6611 -0.6223 -0.5642
 5683TIP3    H138464   4.380   1.891   0.935 -0.0078  0.3550 -0.7848
 5683TIP3    H238465   4.453   1.974   1.039 -0.9043  1.8586 -1.3308
 5684TIP3   OH238466   2.479   0.813   1.333  0.1091 -1.0633 -0.4655
 5684TIP3    H138467   2.530   0.890   1.360 -0.3233 -0.9008 -0.0916
 5684TIP3    H238468   2.544   0.747   1.311  0.5375 -0.0920 -2.3307
 5685TIP3   OH238469   1.337   5.696  10.780 -0.4848  0.2447 -0.5232
 5685TIP3    H138470   1.361   5.635  10.850 -1.2001  0.8461  0.2759
 5685TIP3    H238471   1.249   5.726  10.804 -1.0549 -0.0760 -2.0797
 5686TIP3   OH238472   2.587   5.966  12.106  0.5317  0.1479  0.0128
 5686TIP3    H138473   2.576   6.061  12.105  1.2481  0.2375 -0.6372
 5686TIP3    H238474   2.503   5.933  12.138 -0.3652  0.9273 -1.3870
 5687TIP3   OH238475   1.015   3.389  15.785 -0.2928  0.0550  0.1330
 5687TIP3    H138476   1.058   3.470  15.810  0.5644 -0.1058 -0.7706
 5687TIP3    H238477   0.921   3.406  15.797 -0.0058  0.3996  2.1604
 5688TIP3   OH238478   6.042   3.437   1.627  0.6093 -0.0006 -0.3057
 5688TIP3    H138479   6.111   3.378   1.597  2.6406  1.3047  1.4347
 5688TIP3    H238480   6.055   3.442   1.722 -0.7492  1.6866 -0.1567
 5689TIP3   OH238481   3.745   3.942  15.878  0.5582  0.1725 -0.2057
 5689TIP3    H138482   3.832   3.904  15.866  1.1425  1.5126 -0.3759
 5689TIP3    H238483   3.688   3.885  15.826  0.8717 -2.1898  1.8137
 5690TIP3   OH238484   0.814   4.019  13.844 -0.4273 -0.2395 -1.0646
 5690TIP3    H138485   0.907   4.020  13.823 -0.5930  1.5522 -1.9523
 5690TIP3    H238486   0.804   4.086  13.911 -0.8806 -1.4666  0.1305
 5691TIP3   OH238487   5.756   3.929   5.935  0.2966  0.5405  0.6614
 5691TIP3    H138488   5.800   3.983   6.001 -0.9207  0.9762  1.1554
 5691TIP3    H238489   5.781   3.839   5.957  3.1329  0.8619 -0.7535
 5692TIP3   OH238490   5.178   0.268  16.582  0.0182 -0.0444 -0.3258
 5692TIP3    H138491   5.114   0.313  16.637  1.0806  0.6344  0.4062
 5692TIP3    H238492   5.183   0.179  16.617 -0.1663  0.0472 -0.0647
 5693TIP3   OH238493   5.452   4.316  12.482  0.0055 -0.0933  0.2902
 5693TIP3    H138494   5.401   4.394  12.506 -0.0583 -0.1990  0.4971
 5693TIP3    H238495   5.537   4.351  12.456  0.1140  0.0159  0.7794
 5694TIP3   OH238496   4.583   3.513   3.192  0.4641 -0.6156 -0.1351
 5694TIP3    H138497   4.561   3.583   3.130  1.9797  2.2576  2.3048
 5694TIP3    H238498   4.499   3.487   3.230 -0.0403  0.8434 -0.1899
 5695TIP3   OH238499   0.620   5.213  17.176  0.0982  0.0597 -0.8189
 5695TIP3    H138500   0.594   5.281  17.238  0.0803 -1.6151  1.1415
 5695TIP3    H238501   0.553   5.215  17.108 -0.9931  0.7211  0.2432
 5696TIP3   OH238502   1.501   2.772   2.826  0.1492 -0.2589 -0.3213
 5696TIP3    H138503   1.419   2.816   2.847 -0.0105 -0.2442 -0.9524
 5696TIP3    H238504   1.475   2.689   2.787  0.4488 -1.3378  1.6488
 5697TIP3   OH238505   0.974   1.271  13.859 -0.5972  0.2955  0.4285
 5697TIP3    H138506   0.913   1.252  13.930 -0.8917 -0.0024  0.0971
 5697TIP3    H238507   1.017   1.353  13.885 -1.3615  0.6741  0.5189
 5698TIP3   OH238508   3.652   2.676   6.534  0.2050 -0.4000  0.6831
 5698TIP3    H138509   3.681   2.591   6.501  0.2486  0.4052 -1.5038
 5698TIP3    H238510   3.556   2.673   6.527  0.2893  0.8894 -2.7746
 5699TIP3   OH238511   5.490   2.143  15.968  0.2994  0.1612 -0.6811
 5699TIP3    H138512   5.489   2.164  16.061 -0.2518  0.5883 -0.7801
 5699TIP3    H238513   5.583   2.131  15.947  0.6296  2.1169 -0.5305
 5700TIP3   OH238514   0.486   6.076   0.763 -0.1210  0.1181 -0.2715
 5700TIP3    H138515   0.567   6.082   0.713 -1.6067  0.4110 -2.7705
 5700TIP3    H238516   0.506   6.122   0.845  3.0116 -2.0961  0.4407
 5701TIP3   OH238517   0.262   1.801   1.964  0.6618 -0.1194  0.2646
 5701TIP3    H138518   0.328   1.868   1.946 -1.3762  1.5554 -1.6622
 5701TIP3    H238519   0.199   1.845   2.022  0.4511 -1.1753  0.8656
 5702TIP3   OH238520   4.448   6.265   5.199 -0.3516  0.9541  0.4642
 5702TIP3    H138521   4.467   6.353   5.169 -1.4864  1.4181  1.0495
 5702TIP3    H238522   4.477   6.208   5.128  2.4913  1.5966  1.0006
 5703TIP3   OH238523   1.414   3.351   0.307  0.1282  0.1802  0.7780
 5703TIP3    H138524   1.501   3.379   0.333  0.2865 -0.2055  0.6740
 5703TIP3    H238525   1.421   3.256   0.297  0.1611  0.3375 -1.0284
 5704TIP3   OH238526   2.445   6.024  16.419 -0.0697  0.2374  0.1304
 5704TIP3    H138527   2.389   6.056  16.490  0.0641 -0.9346  0.7862
 5704TIP3    H238528   2.383   5.995  16.352 -0.2026  0.8481 -0.0233
 5705TIP3   OH238529   2.660   1.650  13.485 -0.1018  0.0117 -0.2468
 5705TIP3    H138530   2.651   1.734  13.440 -0.2407  0.0222 -0.1996
 5705TIP3    H238531   2.744   1.657  13.530  0.5207 -0.3794 -1.3026
 5706TIP3   OH238532   3.284   2.079  13.355 -0.0883 -0.4295  0.1162
 5706TIP3    H138533   3.312   2.106  13.442 -1.4246  1.1720  0.0919
 5706TIP3    H238534   3.194   2.111  13.347 -0.0402 -0.6411 -1.8171
 5707TIP3   OH238535   1.162   2.846  17.051  0.8077  0.5481 -0.5541
 5707TIP3    H138536   1.252   2.853  17.083  0.9172  1.2054 -0.9834
 5707TIP3    H238537   1.134   2.937  17.039 -0.3220  0.3823  0.6782
 5708TIP3   OH238538   4.330   2.794  13.084 -0.3326  0.2332 -0.2961
 5708TIP3    H138539   4.328   2.750  12.999 -0.7025 -0.7421  0.1973
 5708TIP3    H238540   4.388   2.741  13.137 -1.5975 -0.2872  0.6212
 5709TIP3   OH238541   1.632   6.165   5.350  0.3788  0.1377  0.2162
 5709TIP3    H138542   1.613   6.257   5.330 -0.6010  0.7457  3.4354
 5709TIP3    H238543   1.694   6.169   5.423  1.3462 -1.8270 -0.4318
 5710TIP3   OH238544   4.143   5.405  10.931  0.1977 -0.9096 -0.3616
 5710TIP3    H138545   4.232   5.436  10.918  0.0677 -0.2511  0.2429
 5710TIP3    H238546   4.093   5.446  10.861  0.0875 -0.0012  0.2396
 5711TIP3   OH238547   5.810   1.388   0.712  0.7789 -0.0872  0.3275
 5711TIP3    H138548   5.722   1.352   0.701  0.0383  1.6331  0.2999
 5711TIP3    H238549   5.852   1.374   0.627  0.0055  0.3939 -0.1486
 5712TIP3   OH238550   1.145   6.487   3.118  0.5776 -0.0882  0.0887
 5712TIP3    H138551   1.203   6.454   3.049  0.2244 -2.4121  0.7886
 5712TIP3    H238552   1.150   6.420   3.187 -0.9125  0.9619  1.2874
 5713TIP3   OH238553   3.847   6.443  13.714 -0.0691  0.4491  0.5884
 5713TIP3    H138554   3.927   6.425  13.762  0.4745  0.4123 -0.3055
 5713TIP3    H238555   3.818   6.357  13.683 -1.0356  0.3250  1.7782
 5714TIP3   OH238556   0.670   0.658   3.377  0.2527  0.0697  0.0699
 5714TIP3    H138557   0.693   0.577   3.332  0.9695  1.4334 -2.2192
 5714TIP3    H238558   0.754   0.698   3.399 -0.0800 -0.4342  2.5659
 5715TIP3   OH238559   0.025   2.629  12.511  0.0968 -0.4837  0.0810
 5715TIP3    H138560   0.044   2.612  12.603 -0.9986 -0.9096  0.2528
 5715TIP3    H238561   0.042   2.722  12.499 -2.5340  0.2820  1.5126
 5716TIP3   OH238562   3.184   6.020  13.892  0.0366 -0.6123 -0.1974
 5716TIP3    H138563   3.128   6.057  13.960  3.1129  0.1444  2.1595
 5716TIP3    H238564   3.176   5.926  13.903 -1.2418 -0.5453 -0.3801
 5717TIP3   OH238565   5.739   2.090  16.252 -0.4392  0.1658  0.0363
 5717TIP3    H138566   5.740   2.165  16.312  2.5646 -0.1024  0.4567
 5717TIP3    H238567   5.697   2.020  16.302  2.8829 -0.3487  2.4077
 5718TIP3   OH238568   1.521   1.421  16.838 -0.1735  0.4527 -0.1783
 5718TIP3    H138569   1.453   1.402  16.902  0.0816  0.9505  0.2502
 5718TIP3    H238570   1.477   1.419  16.754 -1.2902  3.2610  0.2453
 5719TIP3   OH238571   4.312   0.529   6.227 -0.0849 -0.4151  0.1211
 5719TIP3    H138572   4.258   0.601   6.192  0.4979  0.3000  0.6781
 5719TIP3    H238573   4.248   0.464   6.256 -0.6422  0.1194  0.1198
 5720TIP3   OH238574   1.561   5.905  16.344 -0.5549  0.0520  0.4214
 5720TIP3    H138575   1.650   5.908  16.378 -0.2664  0.6406 -0.3388
 5720TIP3    H238576   1.527   5.993  16.358 -0.6820  0.0965 -0.1331
 5721TIP3   OH238577   2.561   0.445  10.551  0.2925 -0.4316 -0.3683
 5721TIP3    H138578   2.545   0.535  10.578  2.5170 -0.8492  2.9119
 5721TIP3    H238579   2.651   0.445  10.518  0.4468 -1.4698  0.0049
 5722TIP3   OH238580   0.533   1.909  11.236 -0.4519 -0.2521 -0.0973
 5722TIP3    H138581   0.516   1.924  11.329 -3.5022  0.9484 -0.7192
 5722TIP3    H238582   0.446   1.900  11.197  0.6309  0.8923 -3.0697
 5723TIP3   OH238583   6.439   2.823  10.456  0.5266  0.3749 -0.0986
 5723TIP3    H138584   6.445   2.733  10.424  2.1519  0.0852  0.9333
 5723TIP3    H238585   6.486   2.874  10.390 -0.3798  0.5030 -0.6751
 5724TIP3   OH238586   0.196   2.750  12.957 -0.4289  0.1341 -0.1375
 5724TIP3    H138587   0.266   2.791  13.009 -0.9699  0.6898  0.1774
 5724TIP3    H238588   0.240   2.684  12.904  0.4507  0.9857 -0.5004
 5725TIP3   OH238589   5.823   4.141  14.609 -0.0709  0.0449 -0.1219
 5725TIP3    H138590   5.738   4.098  14.598  0.6819 -1.2494 -1.0761
 5725TIP3    H238591   5.802   4.223  14.653 -2.0049  0.3610 -1.4782
 5726TIP3   OH238592   3.073   2.688  13.429  0.4562  0.5620  0.4567
 5726TIP3    H138593   2.990   2.643  13.439  0.6218 -0.3384 -1.8170
 5726TIP3    H238594   3.131   2.646  13.492  0.0616 -1.0757 -0.2390
 5727TIP3   OH238595   3.037   6.610  13.853  0.7668 -0.1232 -0.4931
 5727TIP3    H138596   2.952   6.616  13.808  0.3415  0.2069  0.3381
 5727TIP3    H238597   3.096   6.573  13.787 -0.6798 -3.2202 -0.2354
 5728TIP3   OH238598   4.946   5.231  13.780  0.0387  0.0502  0.0893
 5728TIP3    H138599   4.986   5.295  13.839  1.1092 -0.9440  0.4825
 5728TIP3    H238600   4.852   5.252  13.782  0.0917  0.2588  1.8868
 5729TIP3   OH238601   5.802   2.678   0.471  0.1023  0.0981  0.5248
 5729TIP3    H138602   5.838   2.754   0.515  2.0150  0.1668 -1.0273
 5729TIP3    H238603   5.869   2.610   0.481  0.3054 -0.0769 -1.6022
 5730TIP3   OH238604   2.119   2.099   6.510  0.2826 -0.2370 -0.3173
 5730TIP3    H138605   2.032   2.117   6.474  0.6752 -0.4331 -1.4022
 5730TIP3    H238606   2.129   2.162   6.581 -1.6998 -1.8079  1.4666
 5731TIP3   OH238607   2.325   4.092   2.513  0.0163 -0.1912 -0.0914
 5731TIP3    H138608   2.412   4.121   2.488 -0.1718 -0.6490 -1.3878
 5731TIP3    H238609   2.324   4.096   2.608  0.7837  1.6947 -0.1178
 5732TIP3   OH238610   2.604   4.754   2.718 -0.8807  0.1942  0.5934
 5732TIP3    H138611   2.660   4.693   2.765 -0.0605  1.4446  1.2756
 5732TIP3    H238612   2.608   4.725   2.627  1.4631  0.6654  0.4989
 5733TIP3   OH238613   0.920   5.118   0.691  0.0299 -0.0153  0.4437
 5733TIP3    H138614   0.843   5.063   0.680  0.9619 -1.4027  0.5257
 5733TIP3    H238615   0.969   5.106   0.610 -0.4787  1.9532 -0.1922
 5734TIP3   OH238616   4.192   4.838  13.425 -0.5030  0.6476 -0.0876
 5734TIP3    H138617   4.225   4.853  13.336 -1.0811 -0.8166 -0.5779
 5734TIP3    H238618   4.097   4.841  13.415 -0.6426 -1.6876  0.0171
 5735TIP3   OH238619   2.213   0.351   4.659  0.1405 -0.2837  0.0583
 5735TIP3    H138620   2.179   0.343   4.570  2.0079  0.4292 -0.7537
 5735TIP3    H238621   2.307   0.367   4.649  0.2685  0.6976  2.1240
 5736TIP3   OH238622   4.503   5.113   4.262  0.1552 -0.2994 -0.3521
 5736TIP3    H138623   4.491   5.187   4.323 -0.4263 -0.5472 -0.1574
 5736TIP3    H238624   4.414   5.084   4.242  0.3340 -3.1349  2.2453
 5737TIP3   OH238625   3.524   4.622  12.364  0.7054  0.1081  0.0451
 5737TIP3    H138626   3.536   4.540  12.316  0.9220  0.4771 -0.5341
 5737TIP3    H238627   3.431   4.643  12.354  0.6956  0.0461  0.0056
 5738TIP3   OH238628   3.445   2.876  12.248 -0.0467  0.0448 -0.5706
 5738TIP3    H138629   3.535   2.906  12.234  0.1322 -0.9199 -1.5685
 5738TIP3    H238630   3.398   2.955  12.277  0.7565  0.9358 -1.6157
 5739TIP3   OH238631   6.112   4.368  13.140 -0.1169 -0.2634 -0.0506
 5739TIP3    H138632   6.116   4.456  13.177 -0.5808 -0.1903 -0.1627
 5739TIP3    H238633   6.045   4.374  13.072  0.7945 -0.3561 -0.9919
 5740TIP3   OH238634   4.771   0.473   5.254  0.4332 -0.4072 -0.4480
 5740TIP3    H138635   4.778   0.420   5.333 -0.9817 -0.6493 -0.4605
 5740TIP3    H238636   4.849   0.528   5.255  0.5814 -0.6078  0.9723
 5741TIP3   OH238637   5.109   0.025  15.507  0.5917 -0.4270  0.4368
 5741TIP3    H138638   5.047   0.075  15.560 -0.0716  0.3509 -0.9969
 5741TIP3    H238639   5.056  -0.044  15.468  0.8403 -0.3752  0.0015
 5742TIP3   OH238640   4.823   1.699  16.544 -0.4293  0.1652  0.6135
 5742TIP3    H138641   4.917   1.690  16.560 -0.4065 -2.1270 -0.4299
 5742TIP3    H238642   4.783   1.690  16.631  0.2209 -0.9998  0.8102
 5743TIP3   OH238643   5.061   5.151   1.402 -0.7789  0.4594 -0.2512
 5743TIP3    H138644   4.979   5.196   1.381 -0.8595  1.4575  1.8863
 5743TIP3    H238645   5.049   5.120   1.492  0.0925 -2.0768 -0.9311
 5744TIP3   OH238646   0.830   1.168  12.479  0.3600 -0.3450 -0.1429
 5744TIP3    H138647   0.786   1.102  12.425  0.7507 -1.0497  0.3889
 5744TIP3    H238648   0.797   1.152  12.568 -0.3111  0.8306 -0.1548
 5745TIP3   OH238649   3.205   5.139   1.647 -0.0637 -0.0449  0.0972
 5745TIP3    H138650   3.161   5.056   1.665  1.2748 -0.2892  2.6461
 5745TIP3    H238651   3.159   5.203   1.702  0.0598  0.5581 -0.4826
 5746TIP3   OH238652   1.128   4.410  14.308  0.3302 -0.5660 -0.0467
 5746TIP3    H138653   1.108   4.477  14.242  1.0674  0.4054  0.6768
 5746TIP3    H238654   1.147   4.460  14.387  1.3057 -1.6199  0.4113
 5747TIP3   OH238655   0.485   0.592  16.699  0.2177  0.0144  0.8637
 5747TIP3    H138656   0.487   0.506  16.742  1.4425 -0.0560  0.7142
 5747TIP3    H238657   0.510   0.574  16.608 -0.1859  0.4433  0.6649
 5748TIP3   OH238658   0.400   4.018   4.175 -0.7381  0.2127  0.1451
 5748TIP3    H138659   0.339   3.959   4.219  0.4178 -1.5265 -0.4744
 5748TIP3    H238660   0.430   4.078   4.244  1.1171 -2.4912  1.8861
 5749TIP3   OH238661   3.191   6.701   0.285 -0.2610 -0.6135 -0.5913
 5749TIP3    H138662   3.241   6.620   0.294 -1.1656 -0.9062  3.4452
 5749TIP3    H238663   3.102   6.678   0.310 -0.5075  1.6079  0.8612
 5750TIP3   OH238664   2.549   5.285  12.056 -0.2796  0.4833  0.4728
 5750TIP3    H138665   2.534   5.340  12.133 -1.6844  1.7402 -0.6292
 5750TIP3    H238666   2.575   5.200  12.092 -2.0553  0.6597  2.4037
 5751TIP3   OH238667   0.943   4.052  16.628 -0.1119  0.5289  0.1383
 5751TIP3    H138668   0.881   4.097  16.570  0.5744  1.9060  0.4417
 5751TIP3    H238669   1.029   4.078  16.596  0.2950 -0.0189  0.7586
 5752TIP3   OH238670   2.948   4.135  11.529  0.9394  0.0728 -0.1608
 5752TIP3    H138671   2.898   4.191  11.470  1.2681 -0.6234 -1.1327
 5752TIP3    H238672   3.003   4.082  11.471  1.5259 -0.3923  0.7917
 5753TIP3   OH238673   4.601   1.843  14.604 -0.3234  0.7385 -0.1928
 5753TIP3    H138674   4.553   1.799  14.535 -1.3415 -0.0575  0.9951
 5753TIP3    H238675   4.634   1.773  14.660 -0.0626  1.3896  0.4913
 5754TIP3   OH238676   1.913   5.784  12.480  0.0700 -0.7997 -0.1005
 5754TIP3    H138677   2.006   5.775  12.501  0.0695  0.2477  0.4511
 5754TIP3    H238678   1.911   5.797  12.385  0.8075  2.1156  0.1654
 5755TIP3   OH238679   3.332   1.550  14.773 -0.4344  0.3120  0.3648
 5755TIP3    H138680   3.311   1.459  14.753  0.1812 -0.2271  2.0159
 5755TIP3    H238681   3.383   1.580  14.697  0.5284 -1.1565  0.3800
 5756TIP3   OH238682   0.911   4.637   2.895  0.3049  0.7085 -0.2576
 5756TIP3    H138683   0.984   4.614   2.837 -0.9556 -1.4362 -1.1478
 5756TIP3    H238684   0.880   4.553   2.928 -2.6992  1.3298 -1.1633
 5757TIP3   OH238685   6.192   0.121  14.648  0.1875  0.3033  0.2880
 5757TIP3    H138686   6.241   0.042  14.629 -1.2524 -0.8985  1.3725
 5757TIP3    H238687   6.123   0.094  14.708 -1.0485  2.1510 -0.1809
 5758TIP3   OH238688   0.241   1.160   5.364  0.2346  0.2608  0.5895
 5758TIP3    H138689   0.259   1.239   5.414  1.5491  0.1694  0.2762
 5758TIP3    H238690   0.188   1.106   5.424 -0.6620  1.3405  0.8088
 5759TIP3   OH238691   6.251   0.332  12.222 -0.0348  0.2647 -0.0116
 5759TIP3    H138692   6.206   0.355  12.140 -0.9441  1.6679  0.8532
 5759TIP3    H238693   6.281   0.415  12.258  1.6935 -0.4822  0.3596
 5760TIP3   OH238694   3.384   3.824  12.020  0.6530  0.3597 -0.2236
 5760TIP3    H138695   3.299   3.780  12.025 -0.0312  1.1593 -2.9735
 5760TIP3    H238696   3.422   3.813  12.107 -2.4631  0.3880  1.2736
 5761TIP3   OH238697   3.674   5.662   5.157 -0.3304 -0.0598 -0.1475
 5761TIP3    H138698   3.755   5.618   5.180 -0.7724 -0.4998  0.5977
 5761TIP3    H238699   3.605   5.609   5.197 -1.0642 -0.2410 -1.5634
 5762TIP3   OH238700   1.719   2.563  12.444 -0.5081 -0.4091  0.0685
 5762TIP3    H138701   1.696   2.514  12.365  0.3222 -1.4028  0.4279
 5762TIP3    H238702   1.814   2.557  12.450 -0.1183  2.6994 -0.7842
 5763TIP3   OH238703   3.188   5.198  14.089  0.3593  0.0810  0.0413
 5763TIP3    H138704   3.258   5.235  14.035  0.6902 -1.1057 -0.3680
 5763TIP3    H238705   3.231   5.135  14.146 -0.5118 -1.7588 -1.2280
 5764TIP3   OH238706   5.059   6.744   4.149  0.1751  0.0023 -0.0297
 5764TIP3    H138707   5.143   6.699   4.153 -0.0138 -0.3228  0.4845
 5764TIP3    H238708   4.999   6.687   4.198 -0.2541  0.4197 -0.0586
 5765TIP3   OH238709   3.473   6.119  15.037  0.0363  0.0864  0.1243
 5765TIP3    H138710   3.432   6.039  15.069 -1.5515  0.6371 -0.4317
 5765TIP3    H238711   3.499   6.166  15.116 -0.3967 -0.2846  0.4961
 5766TIP3   OH238712   0.481   3.888   0.481 -0.3639  0.4984  0.4364
 5766TIP3    H138713   0.449   3.907   0.392  1.7008 -2.5662 -1.1695
 5766TIP3    H238714   0.543   3.958   0.500  0.4432  0.3482 -1.3536
 5767TIP3   OH238715   2.861   6.569   5.199 -0.4148  0.1637  0.5249
 5767TIP3    H138716   2.841   6.516   5.276 -0.4245  0.7548  0.9329
 5767TIP3    H238717   2.817   6.524   5.127  1.5152 -1.7084  0.4464
 5768TIP3   OH238718   4.355   6.009   1.899  0.0873  0.0663  0.3574
 5768TIP3    H138719   4.307   5.974   1.974  1.5790  1.5869  2.1223
 5768TIP3    H238720   4.396   5.933   1.858 -1.6543 -0.9166  0.3579
 5769TIP3   OH238721   3.521   0.631   5.429 -0.1431 -0.6034  0.4738
 5769TIP3    H138722   3.615   0.643   5.439 -0.4165  0.9195  1.5060
 5769TIP3    H238723   3.500   0.560   5.490  0.0664  0.3736  1.7248
 5770TIP3   OH238724   4.928   0.398  15.015 -0.1457  0.2109  0.3665
 5770TIP3    H138725   4.981   0.320  14.998  0.4855  0.5071  0.9423
 5770TIP3    H238726   4.837   0.366  15.014  0.0928 -0.4776  0.3435
 5771TIP3   OH238727   0.895   1.915   3.074 -0.4444 -0.4647  0.3529
 5771TIP3    H138728   0.908   1.858   3.150 -1.7279 -0.0659  0.9088
 5771TIP3    H238729   0.805   1.946   3.083  0.2092  1.6675  0.0769
 5772TIP3   OH238730   0.395   3.430  14.668  0.2097 -0.1428  0.0897
 5772TIP3    H138731   0.357   3.424  14.580 -0.4529  0.8499  0.2944
 5772TIP3    H238732   0.348   3.364  14.719 -0.8402  0.6574  0.1852
 5773TIP3   OH238733   4.748   0.072  17.032  0.3232  0.5348  0.1237
 5773TIP3    H138734   4.829   0.029  17.061 -0.4334 -1.1816 -0.1698
 5773TIP3    H238735   4.777   0.156  16.998  2.1890 -0.5405 -1.1502
 5774TIP3   OH238736   2.244   5.651   6.217 -0.1101  0.1132  0.1178
 5774TIP3    H138737   2.291   5.731   6.194 -0.1050 -0.2474 -1.2055
 5774TIP3    H238738   2.297   5.611   6.287 -0.8746  1.9452  1.8504
 5775TIP3   OH238739   3.325   4.037  13.731 -0.3014 -0.3403  0.3506
 5775TIP3    H138740   3.264   4.091  13.680 -2.7730 -1.1541  2.2411
 5775TIP3    H238741   3.323   3.951  13.688  0.2284 -0.1294 -0.1054
 5776TIP3   OH238742   0.807   4.068   1.927  0.4143 -0.2894 -0.6788
 5776TIP3    H138743   0.872   4.108   1.869  2.0387 -1.3983  0.2914
 5776TIP3    H238744   0.856   4.043   2.005 -1.4614  0.0196  0.6761
 5777TIP3   OH238745   2.070   4.598  16.959 -0.1481  0.1349  0.5697
 5777TIP3    H138746   2.145   4.574  16.904 -0.6929 -0.3492  0.0274
 5777TIP3    H238747   2.061   4.693  16.947 -2.0937 -0.3132 -2.5928
 5778TIP3   OH238748   5.853   1.713   2.799  0.4902  0.1268 -1.1935
 5778TIP3    H138749   5.796   1.777   2.841  0.5316  0.5186 -1.7236
 5778TIP3    H238750   5.855   1.639   2.860 -0.2729  0.2623 -0.9894
 5779TIP3   OH238751   3.367   4.372  12.100  0.3879  0.4334  0.0893
 5779TIP3    H138752   3.330   4.419  12.174  1.2487 -1.2533  1.6870
 5779TIP3    H238753   3.372   4.436  12.029 -3.5340  1.2868  0.3882
 5780TIP3   OH238754   2.558   4.237  15.478  0.6921 -1.1515 -0.1015
 5780TIP3    H138755   2.643   4.279  15.467 -0.5751  2.2966  1.5040
 5780TIP3    H238756   2.512   4.253  15.395  0.8008 -0.7511 -0.0885
 5781TIP3   OH238757   6.252   3.714   4.990 -0.2072 -0.2620 -0.1595
 5781TIP3    H138758   6.316   3.646   5.012  0.3306  0.9832  2.4932
 5781TIP3    H238759   6.187   3.668   4.936 -0.1425 -3.0600  1.9013
 5782TIP3   OH238760   2.816   0.981   6.306 -0.7625  0.1097 -0.0348
 5782TIP3    H138761   2.727   0.966   6.337 -0.7266  0.3035  0.1664
 5782TIP3    H238762   2.808   1.051   6.241 -0.9190 -0.6999 -0.9170
 5783TIP3   OH238763   1.267   1.278   5.696  0.4278 -0.4741  0.5612
 5783TIP3    H138764   1.184   1.270   5.648 -0.9321 -0.7349  2.8420
 5783TIP3    H238765   1.283   1.372   5.701 -0.1682 -0.3821  0.8107
 5784TIP3   OH238766   2.888   3.694  15.394  0.0548  0.2407 -0.1385
 5784TIP3    H138767   2.949   3.620  15.396 -2.0478 -1.5988 -0.4205
 5784TIP3    H238768   2.852   3.698  15.482  0.0350  0.8323 -0.1692
 5785TIP3   OH238769   3.259   6.369  15.018 -0.3136 -0.3571 -0.2691
 5785TIP3    H138770   3.237   6.372  15.111  1.8165 -2.1892  0.3784
 5785TIP3    H238771   3.179   6.395  14.974 -2.1204 -1.6306  2.0109
 5786TIP3   OH238772   4.018   5.193   5.461  0.6133 -0.5002 -0.2709
 5786TIP3    H138773   4.090   5.190   5.399  1.1905 -1.1680  0.4154
 5786TIP3    H238774   3.985   5.282   5.455  1.1733 -0.3314 -0.9550
 5787TIP3   OH238775   1.742   3.480  17.181  0.5519  0.0361  0.4356
 5787TIP3    H138776   1.799   3.556  17.184 -2.2395  2.3071  0.4923
 5787TIP3    H238777   1.694   3.483  17.264 -0.8751 -0.6994 -0.3214
 5788TIP3   OH238778   1.062   6.364   4.814 -0.4744 -0.1034  0.0499
 5788TIP3    H138779   1.130   6.382   4.749  0.8144 -2.2240  0.6812
 5788TIP3    H238780   1.050   6.446   4.861  1.2084  0.5010 -0.5172
 5789TIP3   OH238781   4.667   0.731   3.529 -0.3423  0.2435  0.2640
 5789TIP3    H138782   4.574   0.722   3.550  0.0398  0.2376  2.1598
 5789TIP3    H238783   4.686   0.656   3.473 -1.6027  0.6299 -0.7462
 5790TIP3   OH238784   6.022   2.578  15.735 -0.5499  0.6369  0.3793
 5790TIP3    H138785   6.074   2.498  15.724 -1.6545 -0.0561  0.0147
 5790TIP3    H238786   5.960   2.577  15.662  0.2786  2.5425 -0.4143
 5791TIP3   OH238787   2.328   2.641   0.653  0.0249 -0.1049  0.2256
 5791TIP3    H138788   2.271   2.715   0.676  0.9069  0.1614  1.6848
 5791TIP3    H238789   2.282   2.564   0.687  1.2450  0.2673  3.0365
 5792TIP3   OH238790   4.105   4.039  12.574 -0.1350  0.3815 -0.1262
 5792TIP3    H138791   4.152   4.067  12.653 -2.3004  2.0207  0.6977
 5792TIP3    H238792   4.118   4.111  12.512 -0.1684  0.0875 -0.4723
 5793TIP3   OH238793   5.738   5.604  12.569  0.0116 -1.0467 -0.0368
 5793TIP3    H138794   5.716   5.678  12.512  0.6508 -0.6715  0.1904
 5793TIP3    H238795   5.823   5.574  12.537 -0.1006 -1.4915  0.0719
 5794TIP3   OH238796   1.695   1.043   5.911 -0.4298 -0.0985  0.3690
 5794TIP3    H138797   1.625   1.098   5.948 -1.1822 -1.6217  1.3136
 5794TIP3    H238798   1.649   0.972   5.868  0.5386 -0.2638 -0.4236
 5795TIP3   OH238799   4.006   1.702   4.597 -0.4658  0.4315 -0.0189
 5795TIP3    H138800   3.952   1.726   4.522  1.1546  0.5184 -1.2210
 5795TIP3    H238801   3.946   1.705   4.672 -1.6953  2.4165 -0.9747
 5796TIP3   OH238802   4.751   5.779   3.668  0.1838 -0.1976  0.2701
 5796TIP3    H138803   4.721   5.799   3.579 -0.4956 -1.2447  0.2491
 5796TIP3    H238804   4.792   5.861   3.698  1.0445 -0.0222 -1.2476
 5797TIP3   OH238805   1.810   5.828   4.814 -0.4441 -0.0452  0.5414
 5797TIP3    H138806   1.863   5.844   4.893 -1.4365  0.6856  1.0868
 5797TIP3    H238807   1.836   5.741   4.785  2.3246  0.9160 -0.2168
 5798TIP3   OH238808   1.992   2.581  12.463 -0.5366 -0.4116  0.2408
 5798TIP3    H138809   2.041   2.562  12.383 -1.1088  0.8143 -0.4248
 5798TIP3    H238810   2.036   2.657  12.501  0.1068 -1.3349  1.4558
 5799TIP3   OH238811   6.471   5.527   5.351 -0.9372  0.0416 -0.1207
 5799TIP3    H138812   6.381   5.515   5.320 -1.3155 -0.8880  1.2167
 5799TIP3    H238813   6.519   5.453   5.313 -1.1299 -0.4054  0.4803
 5800TIP3   OH238814   1.010   5.405   5.075  0.3739  0.0315  0.4570
 5800TIP3    H138815   0.994   5.489   5.032 -0.0520 -0.2951 -0.0339
 5800TIP3    H238816   1.038   5.347   5.004  0.9995 -0.1553  0.8485
 5801TIP3   OH238817   2.255   5.368   5.126 -0.3239  0.5362  0.9931
 5801TIP3    H138818   2.307   5.298   5.087 -1.4625  0.8994 -1.3187
 5801TIP3    H238819   2.319   5.436   5.149  0.4676  0.0094  0.3815
 5802TIP3   OH238820   5.761   4.148  15.004 -0.5733  0.1868 -0.3001
 5802TIP3    H138821   5.715   4.121  15.083  1.0648 -0.0676  0.6130
 5802TIP3    H238822   5.724   4.093  14.935 -2.2765  0.6557  0.1853
 5803TIP3   OH238823   5.407   2.140  11.698  0.4112  0.5592  0.2212
 5803TIP3    H138824   5.333   2.199  11.685 -0.0440  0.1091  0.7417
 5803TIP3    H238825   5.442   2.163  11.784  0.0653 -0.0963  0.5488
 5804TIP3   OH238826   5.053   3.659  13.793 -0.1853  0.0859 -0.3375
 5804TIP3    H138827   5.074   3.728  13.857  0.1268  0.4504 -0.8258
 5804TIP3    H238828   4.995   3.600  13.841  1.1995 -0.4495  0.7577
 5805TIP3   OH238829   4.910   4.255   4.778  0.4070  0.0060  0.3236
 5805TIP3    H138830   4.914   4.323   4.711 -0.5082  1.1958  1.4283
 5805TIP3    H238831   4.968   4.186   4.745 -1.4007 -0.2869 -2.5891
 5806TIP3   OH238832   0.460   4.080  15.284  0.2606 -0.1479 -0.2004
 5806TIP3    H138833   0.379   4.089  15.234  0.1244  1.9839  0.2915
 5806TIP3    H238834   0.435   4.040  15.367 -0.4495  1.1904  0.2514
 5807TIP3   OH238835   6.618   6.101  12.351  0.4949 -0.0502 -0.1698
 5807TIP3    H138836   6.572   6.094  12.267  0.2890  0.2918 -0.0846
 5807TIP3    H238837   6.680   6.028  12.350  1.7085  0.9540 -1.3756
 5808TIP3   OH238838   2.122   6.538  15.482 -0.4620  0.3752 -0.3812
 5808TIP3    H138839   2.093   6.629  15.479 -0.9586  0.2221 -0.2250
 5808TIP3    H238840   2.058   6.493  15.537  0.5762  0.2208  0.7479
 5809TIP3   OH238841   6.725   3.766   0.233  0.6030  0.2623 -0.0196
 5809TIP3    H138842   6.781   3.814   0.173 -0.0537  3.2891  1.5682
 5809TIP3    H238843   6.774   3.764   0.315  0.2191 -1.0321  0.1959
 5810TIP3   OH238844   2.732   1.504   4.505 -0.0535 -0.8886 -0.1344
 5810TIP3    H138845   2.751   1.477   4.595 -0.0027 -0.5981 -0.0549
 5810TIP3    H238846   2.644   1.542   4.510 -1.7751 -4.3482 -0.9376
 5811TIP3   OH238847   6.238   2.346   4.875 -0.1912  0.6548  0.1899
 5811TIP3    H138848   6.177   2.345   4.801  1.0150 -1.5829 -0.8821
 5811TIP3    H238849   6.317   2.304   4.842  0.7420  0.4316  2.4917
 5812TIP3   OH238850   0.896   5.125   0.964 -0.0983 -0.2970 -0.0292
 5812TIP3    H138851   0.914   5.161   0.877 -0.8104  2.4408  0.8499
 5812TIP3    H238852   0.813   5.165   0.990  0.8521  0.2294  2.5125
 5813TIP3   OH238853   4.130   4.573   5.691 -0.5751  0.8366  0.2069
 5813TIP3    H138854   4.128   4.485   5.729  2.4589  0.0657 -1.0695
 5813TIP3    H238855   4.185   4.623   5.751  0.8038  0.7452 -0.9114
 5814TIP3   OH238856   1.915   5.410   3.410 -0.2630  0.3850  0.0205
 5814TIP3    H138857   1.932   5.316   3.408 -1.7306  0.1113 -0.1252
 5814TIP3    H238858   1.966   5.445   3.336 -1.4903 -0.6181 -1.3412
 5815TIP3   OH238859   5.443   1.591   3.944  0.3364  0.0317 -0.3505
 5815TIP3    H138860   5.530   1.626   3.966  0.3008 -0.4729  0.6402
 5815TIP3    H238861   5.383   1.663   3.962  0.6985  1.2138 -3.2305
 5816TIP3   OH238862   2.849   3.665  13.327 -0.1918  0.3181  0.4709
 5816TIP3    H138863   2.806   3.595  13.279  1.1429 -0.0066 -0.3159
 5816TIP3    H238864   2.899   3.621  13.395  0.3007  0.5246  0.2528
 5817TIP3   OH238865   3.582   1.448   3.611  0.4308 -0.0342  0.1738
 5817TIP3    H138866   3.501   1.490   3.580 -1.1183 -2.4831  0.5657
 5817TIP3    H238867   3.634   1.436   3.531 -0.9259 -1.0287 -0.6099
 5818TIP3   OH238868   6.085   5.775  13.051 -0.0455  0.0567  0.3021
 5818TIP3    H138869   6.162   5.761  12.995 -0.1597  1.7904 -0.3399
 5818TIP3    H238870   6.108   5.850  13.106 -1.1979  0.4739  0.2397
 5819TIP3   OH238871   3.855   1.715   4.118  0.1846  0.3887  0.2057
 5819TIP3    H138872   3.834   1.809   4.125  0.8953  0.4688  1.5855
 5819TIP3    H238873   3.771   1.671   4.128 -0.0799  0.8680  0.1447
 5820TIP3   OH238874   1.693   1.660  14.224 -0.2022  0.2102  0.3835
 5820TIP3    H138875   1.671   1.751  14.241 -1.2950 -0.0888  0.6597
 5820TIP3    H238876   1.787   1.653  14.242 -0.2806  1.0908  1.1531
 5821TIP3   OH238877   4.789   4.941   5.467  0.2356 -0.1659 -0.0904
 5821TIP3    H138878   4.862   4.881   5.451 -0.2796 -0.7873 -0.1308
 5821TIP3    H238879   4.782   4.992   5.386  0.8842  0.1837  0.0664
 5822TIP3   OH238880   4.498   5.531  16.206 -0.6233 -0.1545  0.3704
 5822TIP3    H138881   4.558   5.464  16.240 -1.4883 -0.5663  1.1165
 5822TIP3    H238882   4.468   5.495  16.123  1.4473  0.8277 -0.9073
 5823TIP3   OH238883   6.353   5.512   4.179  0.3047  0.1127 -0.6684
 5823TIP3    H138884   6.282   5.499   4.242  0.8899 -0.2873 -0.0783
 5823TIP3    H238885   6.322   5.583   4.123  0.2649  1.3401  0.8201
 5824TIP3   OH238886   2.851   0.613  13.846 -0.1899 -0.0661  0.0792
 5824TIP3    H138887   2.926   0.651  13.892  0.3870  0.1149 -0.9712
 5824TIP3    H238888   2.789   0.685  13.837  0.0194  0.0957 -0.0850
 5825TIP3   OH238889   1.118   1.088   2.177  0.2496  0.1500 -0.2913
 5825TIP3    H138890   1.123   0.999   2.212 -0.3208  0.4586  0.5955
 5825TIP3    H238891   1.210   1.117   2.173  0.3778 -0.2000  0.1223
 5826TIP3   OH238892   6.559   4.054   1.875  0.6210  0.0524 -0.0727
 5826TIP3    H138893   6.582   4.121   1.811  0.4222 -1.5286 -1.9102
 5826TIP3    H238894   6.489   4.092   1.927  1.2818  1.6511 -0.3165
 5827TIP3   OH238895   3.189   4.213   4.724  0.5943  0.1137 -0.2926
 5827TIP3    H138896   3.153   4.136   4.768  0.3911  0.2319 -0.2506
 5827TIP3    H238897   3.113   4.254   4.682  0.8353 -0.1943 -1.0499
 5828TIP3   OH238898   3.080   2.914  15.749  0.9580  0.3715 -0.1773
 5828TIP3    H138899   3.082   3.009  15.749  1.0884  0.4289  2.0000
 5828TIP3    H238900   3.156   2.889  15.802  0.0072 -0.8514  0.6885
 5829TIP3   OH238901   4.617   6.162   2.938 -0.6669 -0.2274  0.4892
 5829TIP3    H138902   4.654   6.162   3.026 -0.8539  1.1116  0.5941
 5829TIP3    H238903   4.691   6.179   2.881 -0.6222 -0.6231  0.4290
 5830TIP3   OH238904   2.120   0.036  12.807 -0.4397  0.0700 -0.3525
 5830TIP3    H138905   2.168   0.091  12.868  0.9290 -0.3735 -0.9675
 5830TIP3    H238906   2.038   0.082  12.791  0.1595  1.3216  0.0680
 5831TIP3   OH238907   0.801   4.216  14.031 -0.4704 -0.0632  0.4505
 5831TIP3    H138908   0.793   4.297  14.082 -0.0830  0.1825  0.1224
 5831TIP3    H238909   0.754   4.151  14.083  0.9772 -0.1105  1.7560
 5832TIP3   OH238910   2.896   2.053   0.790 -0.1669  0.2378 -0.2011
 5832TIP3    H138911   2.924   2.020   0.875  0.5920 -1.0855 -0.9223
 5832TIP3    H238912   2.813   2.098   0.807  1.2932  2.4161  1.6510
 5833TIP3   OH238913   5.925   3.433   2.048 -0.0611  0.3919  0.4512
 5833TIP3    H138914   5.852   3.432   2.109 -1.3742 -0.4441 -1.0556
 5833TIP3    H238915   5.907   3.507   1.990 -0.9863 -1.1277 -1.3161
 5834TIP3   OH238916   6.675   4.359   5.512  0.0865  0.4878 -0.7012
 5834TIP3    H138917   6.759   4.371   5.556  0.2555 -0.0260 -0.8833
 5834TIP3    H238918   6.682   4.274   5.468  0.3316  1.4198 -2.5901
 5835TIP3   OH238919   6.707   6.570  16.919 -0.1967  0.9094  0.5381
 5835TIP3    H138920   6.666   6.655  16.910 -0.7301  0.6966  0.9089
 5835TIP3    H238921   6.667   6.532  16.997  0.6921  0.6889  0.8978
 5836TIP3   OH238922   1.579   4.729   2.670 -0.1273 -0.3013 -0.1080
 5836TIP3    H138923   1.639   4.803   2.669 -1.4124  0.7827  0.5191
 5836TIP3    H238924   1.522   4.744   2.745 -0.7270 -1.6790 -0.2462
 5837TIP3   OH238925   1.786   3.929  17.066  0.0414  0.2568 -0.5889
 5837TIP3    H138926   1.708   3.882  17.096 -0.0462  0.2312 -0.8583
 5837TIP3    H238927   1.843   3.932  17.144 -0.9687  1.8407  0.1288
 5838TIP3   OH238928   4.009   0.009   3.251 -0.0336 -0.5383  0.3338
 5838TIP3    H138929   3.999   0.084   3.309  0.0019 -1.0677  1.0413
 5838TIP3    H238930   3.928   0.005   3.201  0.2495  0.3887 -0.2272
 5839TIP3   OH238931   4.085   3.842   2.998 -0.1741 -0.5731  0.2984
 5839TIP3    H138932   4.075   3.783   2.923 -0.4161  1.4346 -1.3583
 5839TIP3    H238933   4.175   3.874   2.990 -0.8398  1.2499 -0.4600
 5840TIP3   OH238934   2.944   0.627  16.583 -0.5096  0.3124 -0.0654
 5840TIP3    H138935   2.984   0.654  16.501 -2.3162  1.5348 -0.6047
 5840TIP3    H238936   2.875   0.692  16.599  0.5324  0.8524  3.0402
 5841TIP3   OH238937   0.232   4.492   4.826  0.2908  0.8147  0.1626
 5841TIP3    H138938   0.320   4.459   4.845  0.2193  0.4671 -0.0955
 5841TIP3    H238939   0.246   4.583   4.798  0.4842  1.0279  0.9164
 5842TIP3   OH238940   5.571   6.024  11.632 -0.1352 -0.0084  0.1372
 5842TIP3    H138941   5.611   6.071  11.705 -1.0710  0.0611  0.6162
 5842TIP3    H238942   5.585   6.080  11.556 -0.4388  0.6050  0.5336
 5843TIP3   OH238943   0.433   4.332   5.184  0.2544  0.2980 -0.5164
 5843TIP3    H138944   0.441   4.250   5.234  0.6484  0.4054 -0.4044
 5843TIP3    H238945   0.365   4.313   5.119  0.8475 -0.3526 -0.9557
 5844TIP3   OH238946   3.621   1.072   3.583  0.5129  0.5622 -0.4375
 5844TIP3    H138947   3.585   1.112   3.503  0.3249 -0.6182 -0.9639
 5844TIP3    H238948   3.656   0.987   3.554 -0.0037 -0.1050  0.8241
 5845TIP3   OH238949   1.452   5.729  13.521 -0.2459  0.3286  0.2342
 5845TIP3    H138950   1.519   5.696  13.462 -1.4462 -1.1845 -0.3608
 5845TIP3    H238951   1.411   5.651  13.557 -1.6778  1.2003  0.5886
 5846TIP3   OH238952   0.440   5.471   4.933  0.3968 -0.4359  0.4307
 5846TIP3    H138953   0.427   5.537   5.001 -1.0842 -0.5376  0.2801
 5846TIP3    H238954   0.370   5.488   4.870  1.4386 -0.6487 -0.8357
 5847TIP3   OH238955   5.398   1.734  13.565  0.4621 -0.7042  0.5232
 5847TIP3    H138956   5.325   1.768  13.617  0.1189 -1.5451  0.6158
 5847TIP3    H238957   5.405   1.794  13.491 -0.7494 -0.9659  0.1738
 5848TIP3   OH238958   2.569   2.781   4.031 -0.1934  0.2779 -0.0451
 5848TIP3    H138959   2.492   2.829   4.061  0.4614 -0.2431  2.7834
 5848TIP3    H238960   2.544   2.688   4.036  0.5939  0.1038  0.8919
 5849TIP3   OH238961   6.560   6.500  14.342 -0.0491 -0.1798  0.6078
 5849TIP3    H138962   6.595   6.557  14.410  0.7993  0.4280 -0.3146
 5849TIP3    H238963   6.552   6.556  14.265  1.4479 -1.4309 -0.5195
 5850TIP3   OH238964   3.774   0.069   1.478 -0.1883 -0.5901 -0.2354
 5850TIP3    H138965   3.790   0.025   1.562 -0.5002  0.3250  0.3149
 5850TIP3    H238966   3.861   0.081   1.440 -0.1077 -1.9365 -0.5466
 5851TIP3   OH238967   6.083   0.118  13.361  0.3027  0.5267 -0.1536
 5851TIP3    H138968   6.014   0.172  13.323  0.2165 -0.1352 -0.9660
 5851TIP3    H238969   6.067   0.030  13.326 -0.3720 -0.3598  2.1680
 5852TIP3   OH238970   4.974   2.827  11.985  0.1353 -0.0065  0.4897
 5852TIP3    H138971   4.946   2.773  12.059  0.1810 -0.5807  0.0959
 5852TIP3    H238972   5.060   2.793  11.961  0.4668  0.6928  0.6689
 5853TIP3   OH238973   4.463   0.268   5.564 -0.0389 -0.7693 -0.0038
 5853TIP3    H138974   4.470   0.270   5.469  0.0984 -1.5761 -0.0177
 5853TIP3    H238975   4.399   0.336   5.585  2.4801  1.9312 -0.4050
 5854TIP3   OH238976   5.128   4.998  11.925  0.3339  0.3129 -0.2214
 5854TIP3    H138977   5.040   5.022  11.954  0.0252 -1.4336  0.4126
 5854TIP3    H238978   5.186   5.027  11.995  0.1732  0.6420 -0.2215
 5855TIP3   OH238979   5.931   1.706   5.910  0.0617  0.6713  0.0114
 5855TIP3    H138980   5.940   1.621   5.866  1.0439  1.2578 -0.9582
 5855TIP3    H238981   5.839   1.730   5.895  0.0664  0.3015 -0.7074
 5856TIP3   OH238982   0.748   4.359   0.564 -0.3415  0.0682 -0.6784
 5856TIP3    H138983   0.759   4.409   0.483  1.7188  1.7426  0.5065
 5856TIP3    H238984   0.821   4.297   0.564  0.8984  1.4223  0.6982
 5857TIP3   OH238985   5.211   4.529  15.032 -0.3112  0.3607 -0.5915
 5857TIP3    H138986   5.222   4.517  15.126  2.1002 -0.6738 -0.9298
 5857TIP3    H238987   5.118   4.513  15.017 -0.3301 -1.8638  1.3245
 5858TIP3   OH238988   5.099   4.021  12.952 -0.0452 -0.2173 -0.5867
 5858TIP3    H138989   5.109   4.111  12.921  1.4846 -0.3163 -0.4454
 5858TIP3    H238990   5.018   4.022  13.003 -0.5133  0.8614 -1.3176
 5859TIP3   OH238991   5.487   5.744  16.641  0.3662  0.1427  0.6654
 5859TIP3    H138992   5.538   5.819  16.672 -0.6700  1.0295  0.3030
 5859TIP3    H238993   5.548   5.694  16.587  0.5073  1.9615 -0.9582
 5860TIP3   OH238994   2.701   2.590   5.278  0.0116  0.4185  0.0855
 5860TIP3    H138995   2.761   2.647   5.230  0.9842  0.1725  0.9834
 5860TIP3    H238996   2.743   2.577   5.363 -0.1470 -1.7192 -0.1198
 5861TIP3   OH238997   5.919   4.556   2.907  0.2105  0.2125  0.4540
 5861TIP3    H138998   5.880   4.477   2.869  0.3910  1.3037 -2.2200
 5861TIP3    H238999   5.998   4.525   2.951 -0.2806 -1.2223  0.3930
 5862TIP3   OH239000   3.482   3.230  11.919  0.6703 -0.1272 -0.0377
 5862TIP3    H139001   3.499   3.237  12.013 -2.5613  1.8990  0.5395
 5862TIP3    H239002   3.431   3.150  11.910  4.5555 -2.7820 -0.8810
 5863TIP3   OH239003   0.841   3.909  12.315  0.4751 -0.2601  0.2083
 5863TIP3    H139004   0.747   3.896  12.303  0.5909  0.0563 -1.1843
 5863TIP3    H239005   0.882   3.837  12.267  0.9656  0.8275 -1.0691
 5864TIP3   OH239006   2.165   4.567  16.616  0.5279  0.0401 -0.6523
 5864TIP3    H139007   2.108   4.643  16.632  0.3766 -0.1540 -0.2587
 5864TIP3    H239008   2.125   4.523  16.541 -1.6309 -1.7825  1.4127
 5865TIP3   OH239009   0.362   5.170  14.525  0.0242  0.6270  0.6346
 5865TIP3    H139010   0.344   5.143  14.435  0.1596 -0.3985  0.9032
 5865TIP3    H239011   0.431   5.111  14.554 -0.0100  0.9611  1.4055
 5866TIP3   OH239012   1.593   0.607   3.268  0.2689 -0.0182  0.1282
 5866TIP3    H139013   1.592   0.648   3.354 -1.0430  0.2118  0.0273
 5866TIP3    H239014   1.518   0.645   3.222  0.6411 -0.5129 -0.9399
 5867TIP3   OH239015   5.133   4.884  15.090  0.6136 -0.7806 -0.1476
 5867TIP3    H139016   5.202   4.820  15.106  1.1268  0.0654  1.1875
 5867TIP3    H239017   5.087   4.892  15.173 -0.4131 -0.5326 -0.7212
 5868TIP3   OH239018   2.646   1.356   2.420 -0.2991  0.4157 -0.0666
 5868TIP3    H139019   2.566   1.307   2.441  0.6077 -1.4236 -0.6959
 5868TIP3    H239020   2.678   1.387   2.504 -1.6574  1.2032  0.1983
 5869TIP3   OH239021   0.557   2.398   1.714  0.0948 -0.3044 -0.3814
 5869TIP3    H139022   0.575   2.462   1.645 -0.2823  0.7676  0.4868
 5869TIP3    H239023   0.618   2.421   1.784  0.1250 -1.0661 -0.1511
 5870TIP3   OH239024   4.542   0.412   2.409 -0.3207 -0.0440 -0.1201
 5870TIP3    H139025   4.521   0.492   2.457 -1.6100  0.2103 -1.0742
 5870TIP3    H239026   4.530   0.341   2.473 -1.9215  0.2970 -0.0202
 5871TIP3   OH239027   6.546   0.454   5.427  0.2455 -0.1769 -0.7217
 5871TIP3    H139028   6.491   0.459   5.349  0.2510 -2.0054 -0.8937
 5871TIP3    H239029   6.493   0.491   5.497  0.7088  2.6697 -1.7621
 5872TIP3   OH239030   4.233   0.845   5.474 -0.0246 -0.1329  0.3823
 5872TIP3    H139031   4.260   0.910   5.539  1.2384  0.7510 -0.9684
 5872TIP3    H239032   4.137   0.847   5.476  0.0022  1.2769  0.8415
 5873TIP3   OH239033   1.600   5.635   1.454  0.2471 -0.3016  0.4915
 5873TIP3    H139034   1.587   5.566   1.389 -0.7406  0.8328 -0.5738
 5873TIP3    H239035   1.538   5.614   1.524 -1.2886  0.3872 -0.6103
 5874TIP3   OH239036   4.941   4.477   2.552 -0.0581 -0.0383  0.2227
 5874TIP3    H139037   4.889   4.451   2.476  0.9406  0.1788 -0.5587
 5874TIP3    H239038   4.963   4.395   2.595 -1.9843 -0.0752  1.2327
 5875TIP3   OH239039   2.727   6.099  11.847  0.3020 -0.1915  0.0594
 5875TIP3    H139040   2.710   6.080  11.939  0.2041  1.1128  0.3390
 5875TIP3    H239041   2.719   6.194  11.841 -1.9048 -0.4030 -1.7306
 5876TIP3   OH239042   2.578   0.965   0.976  0.0945  0.9888  0.1485
 5876TIP3    H139043   2.671   0.951   0.992 -0.1303 -2.2887 -0.7759
 5876TIP3    H239044   2.575   1.039   0.915  2.0908  0.9089 -0.0928
 5877TIP3   OH239045   0.029   0.903   4.155 -0.0092 -0.0091 -0.0948
 5877TIP3    H139046  -0.032   0.868   4.220  0.9119 -2.7541 -0.5745
 5877TIP3    H239047   0.116   0.877   4.187  0.6751  0.9134 -1.1114
 5878TIP3   OH239048   2.397   0.595  13.065  0.3100  0.0326 -0.0785
 5878TIP3    H139049   2.362   0.567  12.980  0.2479  2.0471 -0.7656
 5878TIP3    H239050   2.328   0.572  13.127 -1.0951  1.3950 -1.0438
 5879TIP3   OH239051   3.415   3.193   2.624  0.1688 -0.1998 -0.3853
 5879TIP3    H139052   3.391   3.227   2.537  3.0359 -1.8512 -1.9998
 5879TIP3    H239053   3.376   3.105   2.627 -0.5669  0.1369  0.3810
 5880TIP3   OH239054   5.295   2.775   3.970 -0.1325 -0.5223  0.4174
 5880TIP3    H139055   5.390   2.764   3.977  0.0550  0.3830 -0.4707
 5880TIP3    H239056   5.282   2.870   3.967 -1.1106 -0.6266  1.0144
 5881TIP3   OH239057   4.499   2.989  12.608  0.4371  0.1959 -0.1599
 5881TIP3    H139058   4.568   2.968  12.545  1.1496  0.3168  0.5703
 5881TIP3    H239059   4.539   3.052  12.668 -0.2151  0.0371  0.4533
 5882TIP3   OH239060   4.910   0.856  14.408 -1.1287  0.5335  0.4868
 5882TIP3    H139061   4.913   0.792  14.479  0.5432  1.0096  0.8972
 5882TIP3    H239062   4.918   0.805  14.328 -1.1613  0.1309  0.7409
 5883TIP3   OH239063   0.804   5.128  15.242  0.5670 -0.1244  0.1479
 5883TIP3    H139064   0.794   5.063  15.311 -1.8226 -1.1967 -1.1139
 5883TIP3    H239065   0.732   5.190  15.257  0.5655  0.1282 -0.8353
 5884TIP3   OH239066   1.848   3.157   1.711 -0.6776 -0.1119  0.3592
 5884TIP3    H139067   1.912   3.222   1.681 -0.8474 -0.0331  0.1715
 5884TIP3    H239068   1.771   3.209   1.735  0.1136  0.0787  2.8507
 5885TIP3   OH239069   2.746   0.487   4.936 -0.2963 -0.2566  0.2973
 5885TIP3    H139070   2.758   0.450   4.849 -0.0187 -0.7837  0.5549
 5885TIP3    H239071   2.657   0.463   4.960 -0.2584 -0.3989  0.2955
 5886TIP3   OH239072   1.963   6.578  16.149  0.1027 -0.1075  0.0663
 5886TIP3    H139073   1.885   6.523  16.151  0.3827 -0.6269 -1.5858
 5886TIP3    H239074   2.031   6.524  16.190 -0.0744 -0.2184  0.2157
 5887TIP3   OH239075   1.689   6.466   5.575  0.2541  0.2020 -0.4209
 5887TIP3    H139076   1.603   6.501   5.553 -0.2567  0.1845  1.4401
 5887TIP3    H239077   1.748   6.541   5.572 -0.2026  0.5857  0.2717
 5888TIP3   OH239078   2.304   1.383  12.068  0.0433  0.3941  0.2959
 5888TIP3    H139079   2.300   1.436  11.988 -0.0275 -1.2389 -0.8369
 5888TIP3    H239080   2.350   1.303  12.042 -1.8247 -1.1084  1.3225
 5889TIP3   OH239081   2.699   2.533  16.760  0.2498  0.1849 -0.5254
 5889TIP3    H139082   2.674   2.530  16.668  1.7054  0.4183 -0.9456
 5889TIP3    H239083   2.703   2.441  16.786 -0.5085  0.1273 -0.5795
 5890TIP3   OH239084   2.470   3.088   2.358 -0.4053 -0.0034  0.3692
 5890TIP3    H139085   2.522   3.140   2.419  0.6125  0.1195 -0.5735
 5890TIP3    H239086   2.381   3.092   2.393 -0.2830  2.0327  0.5347
 5891TIP3   OH239087   6.279   2.800  15.597  0.5327  0.7249  0.2149
 5891TIP3    H139088   6.270   2.854  15.519 -0.3201 -0.9732 -0.9277
 5891TIP3    H239089   6.191   2.799  15.636  1.0917  2.0705  1.5857
 5892TIP3   OH239090   5.588   0.362  16.700  0.2711  0.1123 -0.8831
 5892TIP3    H139091   5.581   0.386  16.793  1.5853  1.0665 -0.9987
 5892TIP3    H239092   5.655   0.293  16.698  0.1326 -0.0147 -1.0968
 5893TIP3   OH239093   6.568   0.257  13.672  0.1516  0.2090 -0.7347
 5893TIP3    H139094   6.608   0.334  13.633  2.0603 -0.7428 -0.7515
 5893TIP3    H239095   6.611   0.183  13.629 -0.7064 -0.8690  0.2015
 5894TIP3   OH239096   1.837   4.940  14.985 -0.0878  0.3413 -0.3474
 5894TIP3    H139097   1.858   5.000  14.914 -0.0066  0.7841  0.0435
 5894TIP3    H239098   1.920   4.895  15.003  0.3720  1.5593  0.6981
 5895TIP3   OH239099   0.947   0.165   6.575 -0.0717 -0.2236 -1.0311
 5895TIP3    H139100   0.903   0.238   6.532  1.3623  0.9419 -0.5913
 5895TIP3    H239101   1.030   0.157   6.530  0.5184 -0.4209  0.0546
 5896TIP3   OH239102   2.081   3.854   2.825 -0.1040 -0.1769  0.1347
 5896TIP3    H139103   2.066   3.936   2.872 -0.7202  0.3564 -0.9284
 5896TIP3    H239104   2.143   3.877   2.756 -0.5906 -0.4952 -0.4207
 5897TIP3   OH239105   5.049   2.908   3.259  0.3572  0.3373 -0.1256
 5897TIP3    H139106   5.067   2.998   3.231  0.9358  0.6313  1.1312
 5897TIP3    H239107   5.131   2.879   3.298  0.2146 -0.7968 -0.6554
 5898TIP3   OH239108   0.021   6.071   6.700  0.1507  0.0375 -0.3825
 5898TIP3    H139109   0.082   6.034   6.764  1.0324  1.8131 -0.1299
 5898TIP3    H239110   0.010   6.162   6.728 -1.0309  0.3023 -1.6231
 5899TIP3   OH239111   5.154   0.393  16.144 -0.0143 -0.2280 -0.1204
 5899TIP3    H139112   5.182   0.467  16.089  0.1579  1.0286  1.5571
 5899TIP3    H239113   5.112   0.435  16.219 -0.2564 -1.8793  0.6933
 5900TIP3   OH239114   5.036   2.424  13.125  0.5734 -0.3461  0.2627
 5900TIP3    H139115   5.042   2.330  13.112  1.4824 -0.2365 -0.1640
 5900TIP3    H239116   4.943   2.441  13.138  0.2321 -1.1182 -1.0837
 5901TIP3   OH239117   3.953   5.443   5.844  0.1472 -0.8631  0.6222
 5901TIP3    H139118   4.041   5.479   5.852 -0.4441  1.5315 -1.9520
 5901TIP3    H239119   3.965   5.349   5.856  2.5774 -0.3736  2.9600
 5902TIP3   OH239120   2.425   1.987  11.404  0.0384 -0.3639  0.5973
 5902TIP3    H139121   2.329   1.984  11.401 -0.0004 -3.5386  1.6828
 5902TIP3    H239122   2.447   1.968  11.495  1.7382 -0.4936  0.1995
 5903TIP3   OH239123   0.618   2.444   3.932  0.3603  0.1733  0.1091
 5903TIP3    H139124   0.702   2.462   3.891 -0.3275  0.2253 -1.3764
 5903TIP3    H239125   0.566   2.523   3.916 -0.4625 -0.4485 -0.4131
 5904TIP3   OH239126   5.770   5.537  16.771 -0.1665  0.0012 -0.0697
 5904TIP3    H139127   5.750   5.589  16.694  1.2737 -0.9638 -1.1362
 5904TIP3    H239128   5.803   5.600  16.835  0.8060  0.5115 -1.0604
 5905TIP3   OH239129   3.210   3.364  17.300  0.5756  0.3036  0.5407
 5905TIP3    H139130   3.153   3.340  17.227  0.2199  1.4694  0.4107
 5905TIP3    H239131   3.167   3.440  17.340  1.5096  0.5719  1.0791
 5906TIP3   OH239132   2.505   0.188  12.369  0.7149 -0.3396  0.7140
 5906TIP3    H139133   2.580   0.248  12.365  1.5539 -1.2416  1.8210
 5906TIP3    H239134   2.531   0.114  12.314  0.9197 -0.9120  1.5453
 5907TIP3   OH239135   3.401   1.945  12.937 -0.1635  0.5056  0.0918
 5907TIP3    H139136   3.421   1.936  12.844 -0.9313  1.3554 -0.1667
 5907TIP3    H239137   3.441   1.868  12.977  0.4511  0.2939 -0.8909
 5908TIP3   OH239138   4.628   3.599   2.940  0.1172 -0.3295 -0.0445
 5908TIP3    H139139   4.656   3.672   2.886 -0.6968 -0.7971 -1.1467
 5908TIP3    H239140   4.709   3.559   2.971  0.5780  0.9308  0.4625
 5909TIP3   OH239141   4.203   1.430  11.383 -0.9056 -0.1443 -0.0794
 5909TIP3    H139142   4.132   1.421  11.448 -0.9097 -2.3775 -0.3236
 5909TIP3    H239143   4.160   1.468  11.306 -1.0868  1.6774  0.8548
 5910TIP3   OH239144   1.675   4.152   1.010 -0.6512  0.5137 -0.1423
 5910TIP3    H139145   1.594   4.119   0.972 -0.4019 -0.9058  0.4655
 5910TIP3    H239146   1.708   4.079   1.063  0.1937  1.6191  0.9215
 5911TIP3   OH239147   3.273   2.167   1.214 -0.1029 -0.7509 -0.4411
 5911TIP3    H139148   3.282   2.157   1.119  2.2151  1.6442 -0.5907
 5911TIP3    H239149   3.191   2.216   1.225  2.1221  3.8428 -1.8355
 5912TIP3   OH239150   0.783   5.960   1.281  0.2246  0.0700  0.2723
 5912TIP3    H139151   0.780   5.893   1.350  0.9076 -2.0656 -1.6643
 5912TIP3    H239152   0.724   5.927   1.213  0.9643  1.1976 -0.9447
 5913TIP3   OH239153   6.640   1.986  17.308  0.0408  0.1385 -0.4219
 5913TIP3    H139154   6.683   2.014  17.389 -0.1396 -1.2826  0.1857
 5913TIP3    H239155   6.569   2.048  17.296  0.3252  0.6165  0.2732
 5914TIP3   OH239156   1.439   2.011  16.468  0.2798 -0.0239 -0.3258
 5914TIP3    H139157   1.474   1.922  16.460 -2.7659 -1.2216 -2.3814
 5914TIP3    H239158   1.345   1.999  16.476 -0.2663  3.0540 -0.7350
 5915TIP3   OH239159   4.052   0.412   5.946 -0.1778 -0.0774 -0.0072
 5915TIP3    H139160   4.017   0.498   5.971  0.2748 -0.1837  1.0717
 5915TIP3    H239161   4.143   0.414   5.976  0.2575 -0.4342 -1.2302
 5916TIP3   OH239162   1.822   1.321  13.167 -0.2528  0.1606 -0.1943
 5916TIP3    H139163   1.788   1.245  13.119 -1.5680  0.2734  0.5299
 5916TIP3    H239164   1.917   1.310  13.164 -0.4123 -1.9705  0.5905
 5917TIP3   OH239165   3.801   4.584  15.487  0.4585  0.0563  0.1619
 5917TIP3    H139166   3.742   4.652  15.520 -1.6465 -2.2302  1.4933
 5917TIP3    H239167   3.776   4.571  15.396  1.2133  1.3408 -0.2477
 5918TIP3   OH239168   0.535   3.663   4.205 -0.3973 -0.3563 -0.2501
 5918TIP3    H139169   0.526   3.727   4.276 -0.3523  0.1037 -0.6600
 5918TIP3    H239170   0.550   3.715   4.127 -2.6581 -0.7203 -1.0062
 5919TIP3   OH239171   4.940   2.926  13.367 -0.0862 -0.0450 -0.3639
 5919TIP3    H139172   4.958   2.943  13.460  1.6912  0.0869 -0.7001
 5919TIP3    H239173   4.889   2.845  13.368  0.4328 -0.3838  0.7021
 5920TIP3   OH239174   4.741   3.730  14.133  0.2434  0.1057 -0.7040
 5920TIP3    H139175   4.828   3.690  14.141  0.6028  0.9101 -0.5371
 5920TIP3    H239176   4.755   3.822  14.152 -0.3651  0.5505 -2.2418
 5921TIP3   OH239177   4.541   0.027  15.177  0.9500  0.5436 -0.0588
 5921TIP3    H139178   4.535   0.014  15.271 -2.2095 -0.4328 -0.2847
 5921TIP3    H239179   4.590  -0.049  15.145 -1.2854 -1.2028  0.4830
 5922TIP3   OH239180   2.684   0.586  15.658 -0.5473 -0.2429 -0.3283
 5922TIP3    H139181   2.724   0.590  15.745  0.6491  0.3684 -0.8704
 5922TIP3    H239182   2.619   0.516  15.664  0.5138 -1.1936  0.6591
 5923TIP3   OH239183   1.360   5.892   4.288  0.6404  0.2851 -0.4218
 5923TIP3    H139184   1.324   5.872   4.201  4.2079 -0.9131 -1.8104
 5923TIP3    H239185   1.362   5.808   4.332 -0.0353  0.6964  0.4306
 5924TIP3   OH239186   6.759   5.422  16.426 -0.0977  0.6248 -0.0931
 5924TIP3    H139187   6.685   5.378  16.470  1.3656 -1.8901  0.0354
 5924TIP3    H239188   6.829   5.420  16.491  0.5840  1.4638 -0.7920
 5925TIP3   OH239189   0.457   6.038  14.742 -0.3242 -0.0414  0.4609
 5925TIP3    H139190   0.410   6.037  14.825  0.9163 -0.1174  1.1822
 5925TIP3    H239191   0.446   6.127  14.708 -0.3261  0.1653  1.0059
 5926TIP3   OH239192   6.280   0.936  13.335  0.1140  0.1852  0.4739
 5926TIP3    H139193   6.235   0.857  13.305 -3.3716  2.1687 -0.0201
 5926TIP3    H239194   6.252   0.946  13.426  1.6908  0.1649  0.9920
 5927TIP3   OH239195   5.428   4.482  12.842 -0.9192 -0.6234 -0.3635
 5927TIP3    H139196   5.401   4.399  12.880 -0.3449 -0.7624 -0.2587
 5927TIP3    H239197   5.360   4.544  12.868 -0.8291 -0.8461  0.3982
 5928TIP3   OH239198   6.105   1.094   5.382 -0.3581 -0.4628 -0.2406
 5928TIP3    H139199   6.145   1.097   5.295 -0.5930 -1.1741 -0.3818
 5928TIP3    H239200   6.179   1.094   5.443 -0.1882 -0.1440 -0.4480
 5929TIP3   OH239201   2.797   1.586   0.084 -0.5992 -0.4543 -0.1884
 5929TIP3    H139202   2.778   1.678   0.067 -0.8871 -0.4348  0.2228
 5929TIP3    H239203   2.891   1.584   0.103 -0.6412 -0.2101  0.0442
 5930TIP3   OH239204   3.088   3.083  16.887 -1.1365  0.1769 -0.5697
 5930TIP3    H139205   3.072   3.061  16.795 -0.9229 -0.3561 -0.4810
 5930TIP3    H239206   3.183   3.077  16.898 -0.7838  3.1578 -1.0418
 5931TIP3   OH239207   5.219   0.469  15.371 -0.0883 -0.2304 -0.0176
 5931TIP3    H139208   5.314   0.465  15.370  0.1117  1.9219  2.2850
 5931TIP3    H239209   5.194   0.433  15.457 -1.2455  0.4936 -0.0247
 5932TIP3   OH239210   5.132   3.851   3.889  0.1283 -0.5780 -0.4034
 5932TIP3    H139211   5.130   3.773   3.945  2.5101 -0.0682  0.4964
 5932TIP3    H239212   5.056   3.902   3.916 -1.4131 -2.4621 -0.9182
 5933TIP3   OH239213   5.604   4.161   3.368 -0.1601 -0.5691 -0.0919
 5933TIP3    H139214   5.529   4.175   3.427 -1.9925  0.5890 -2.4875
 5933TIP3    H239215   5.680   4.158   3.425 -2.0054 -1.7062  2.4883
 5934TIP3   OH239216   6.187   1.322  16.541 -0.5945  0.1754  0.0348
 5934TIP3    H139217   6.254   1.291  16.603  0.3726  1.4220 -0.3484
 5934TIP3    H239218   6.154   1.242  16.500  0.1708 -0.5180  0.7254
 5935TIP3   OH239219   3.485   3.538  12.117  0.3672  0.1831 -0.0917
 5935TIP3    H139220   3.496   3.446  12.143  1.2230  0.0746 -0.8149
 5935TIP3    H239221   3.546   3.586  12.173 -0.1970  0.3420  0.4006
 5936TIP3   OH239222   2.158   2.926  11.274 -0.0950  0.5112 -0.0549
 5936TIP3    H139223   2.066   2.940  11.296 -0.1118  1.5796 -0.7411
 5936TIP3    H239224   2.168   2.831  11.274 -0.9548  0.4081  0.9798
 5937TIP3   OH239225   0.276   0.564   2.273 -0.1917  0.6903  0.0167
 5937TIP3    H139226   0.200   0.562   2.331  0.6119 -1.3305  1.0888
 5937TIP3    H239227   0.326   0.486   2.296 -0.1286 -0.6049 -3.8185
 5938TIP3   OH239228   3.409   5.492   1.610  0.3347 -0.0237  0.1647
 5938TIP3    H139229   3.410   5.444   1.692  1.4035  1.3665  0.9973
 5938TIP3    H239230   3.485   5.550   1.614  0.1606  0.4097 -1.6094
 5939TIP3   OH239231   5.262   3.428  17.177  0.4432 -0.1805  0.4085
 5939TIP3    H139232   5.268   3.450  17.270 -1.2963  0.5157  0.3995
 5939TIP3    H239233   5.190   3.483  17.144  0.8981 -0.5545 -1.3053
 5940TIP3   OH239234   1.679   3.266  15.744  0.4825 -0.3484 -0.2545
 5940TIP3    H139235   1.620   3.215  15.689 -0.6176  1.6819 -1.0788
 5940TIP3    H239236   1.714   3.334  15.686  0.0089  1.2960  1.2623
 5941TIP3   OH239237   4.505   0.494   1.395 -0.5601  0.1431  0.0383
 5941TIP3    H139238   4.465   0.418   1.352 -0.7327  0.0476  0.3647
 5941TIP3    H239239   4.598   0.486   1.376 -0.7396  0.6147 -1.1201
 5942TIP3   OH239240   4.969   1.098  16.839  0.3750  0.0584  0.3547
 5942TIP3    H139241   5.034   1.075  16.773  2.2215 -1.5799  2.5761
 5942TIP3    H239242   5.019   1.141  16.908 -1.1246 -0.0239  1.5365
 5943TIP3   OH239243   1.526   1.047   3.402 -0.4163  0.1117  0.3454
 5943TIP3    H139244   1.514   1.106   3.477 -0.3761  0.1229  0.3430
 5943TIP3    H239245   1.621   1.034   3.396 -0.4137  0.1705  0.2502
 5944TIP3   OH239246   1.499   1.957   5.094  0.6059 -0.3845 -0.2057
 5944TIP3    H139247   1.432   1.899   5.131  0.3171  1.5903  2.7619
 5944TIP3    H239248   1.579   1.934   5.143  0.6848  1.0452  0.3874
 5945TIP3   OH239249   3.403   3.579  15.186 -0.3663 -0.3407 -0.1215
 5945TIP3    H139250   3.461   3.548  15.116 -0.1888 -0.8618  0.2464
 5945TIP3    H239251   3.433   3.668  15.204  1.3939 -1.1229  1.1444
 5946TIP3   OH239252   1.190   1.349   3.494  0.2070 -0.1645  0.5235
 5946TIP3    H139253   1.139   1.270   3.482 -0.3698  0.5463 -2.4364
 5946TIP3    H239254   1.128   1.413   3.528 -0.1174 -0.1581 -0.0686
 5947TIP3   OH239255   4.275   2.578  15.808 -0.4064 -0.1152  0.9299
 5947TIP3    H139256   4.197   2.605  15.857 -1.6858 -0.7659 -0.6437
 5947TIP3    H239257   4.259   2.486  15.788  1.5502 -0.7170  1.9317
 5948TIP3   OH239258   4.303   1.963  15.409  0.1053 -0.3027 -0.5167
 5948TIP3    H139259   4.332   1.953  15.500  0.0092  1.8439 -0.1827
 5948TIP3    H239260   4.299   1.874  15.374  1.8750 -1.0484  1.0368
 5949TIP3   OH239261   4.608   3.251  15.703 -0.3762  1.0279  0.3230
 5949TIP3    H139262   4.676   3.189  15.680 -1.8595 -0.8015  0.6106
 5949TIP3    H239263   4.634   3.286  15.788 -1.1017 -1.7353  1.7693
 5950TIP3   OH239264   0.421   1.937   2.277 -0.0109 -0.5202  0.5982
 5950TIP3    H139265   0.454   1.959   2.365 -0.8202 -0.2017  0.8352
 5950TIP3    H239266   0.497   1.946   2.220  0.6858 -1.3308  1.3485
 5951TIP3   OH239267   6.151   6.508   6.947 -0.0562  0.5562 -0.5921
 5951TIP3    H139268   6.184   6.462   6.870 -0.3223  0.8019 -0.8529
 5951TIP3    H239269   6.130   6.438   7.009 -0.6961  0.3039 -1.0810
 5952TIP3   OH239270   1.347   1.644   3.309  0.2536  0.3876  0.3182
 5952TIP3    H139271   1.308   1.561   3.281  1.8797  0.1194 -1.3655
 5952TIP3    H239272   1.323   1.706   3.240  0.3753  0.9346  0.7606
 5953TIP3   OH239273   4.309   3.064  15.216  0.1771  0.3982  0.0877
 5953TIP3    H139274   4.374   3.113  15.265 -0.1642 -0.3584  1.3375
 5953TIP3    H239275   4.277   2.997  15.277 -2.6798  1.5139  0.0006
 5954TIP3   OH239276   0.790   0.938   2.965 -0.0357 -0.1457  0.3167
 5954TIP3    H139277   0.840   0.897   2.894  1.1061 -0.0663  1.0489
 5954TIP3    H239278   0.731   0.868   2.994 -0.3488 -0.2554 -0.5360
 5955TIP3   OH239279   6.444   4.680   4.819 -0.4369 -0.0581 -0.0179
 5955TIP3    H139280   6.401   4.661   4.903  1.4798 -0.6656  0.8826
 5955TIP3    H239281   6.537   4.678   4.839  0.0760 -0.2780 -2.1997
 5956TIP3   OH239282   2.639   1.313   4.934 -0.1799 -0.2812 -0.2974
 5956TIP3    H139283   2.664   1.347   4.848  1.0206  2.5755  1.0336
 5956TIP3    H239284   2.599   1.388   4.979  0.4092 -1.2906  2.0854
 5957TIP3   OH239285   0.573   2.607  17.254 -0.3580 -0.3148  0.6589
 5957TIP3    H139286   0.644   2.553  17.218 -1.9868 -0.5498 -2.5811
 5957TIP3    H239287   0.615   2.689  17.278  1.3428 -1.2025  0.8834
 5958TIP3   OH239288   1.809   1.207   5.177 -0.0459 -0.5286 -0.4792
 5958TIP3    H139289   1.856   1.126   5.198  0.6437 -0.2716 -1.0142
 5958TIP3    H239290   1.878   1.272   5.162 -0.5871  0.2688  0.3147
 5959TIP3   OH239291   6.035   0.740  15.068 -0.2068  0.0821  0.4978
 5959TIP3    H139292   5.970   0.700  15.126  0.3504 -0.6323  0.6472
 5959TIP3    H239293   6.081   0.803  15.123 -1.3413  1.2442  0.1642
 5960TIP3   OH239294   4.404   3.283  16.237  0.8078 -0.4311  0.1425
 5960TIP3    H139295   4.470   3.311  16.300  1.2742  0.2413 -0.6110
 5960TIP3    H239296   4.320   3.305  16.278  1.1238  0.7358  0.2072
 5961TIP3   OH239297   1.492   3.612  11.568 -0.1521 -0.8790  0.6031
 5961TIP3    H139298   1.580   3.610  11.531  0.1153 -2.0211  1.2580
 5961TIP3    H239299   1.505   3.637  11.660 -0.4569 -1.4987  0.8198
 5962TIP3   OH239300   1.039   2.945  14.472 -0.1402  0.3849 -0.4254
 5962TIP3    H139301   1.026   2.867  14.417  0.3348 -0.9920  1.3025
 5962TIP3    H239302   0.956   2.955  14.518  0.4530 -0.3662  0.8495
 5963TIP3   OH239303   4.907   0.556  17.093  0.1178  0.2797 -0.8839
 5963TIP3    H139304   4.960   0.631  17.065  0.2911  1.3792  1.9865
 5963TIP3    H239305   4.838   0.549  17.027  0.8722  2.1229 -1.9551
 5964TIP3   OH239306   4.919   1.831   5.220  0.0181  0.1158 -0.6404
 5964TIP3    H139307   4.962   1.804   5.138  2.3390  4.5222 -1.1751
 5964TIP3    H239308   4.839   1.875   5.191 -1.3317 -1.7938 -0.0831
 5965TIP3   OH239309   6.577   1.702  12.848  0.5442  0.8107  0.1082
 5965TIP3    H139310   6.668   1.694  12.820  0.7557 -0.7590  1.1535
 5965TIP3    H239311   6.536   1.758  12.782  2.1932  1.3074 -0.5216
 5966TIP3   OH239312   1.270   0.910  17.000 -0.2910 -0.3056  0.7981
 5966TIP3    H139313   1.206   0.967  16.958  1.1426  0.7821 -0.0339
 5966TIP3    H239314   1.290   0.843  16.935 -1.6007 -1.5123  1.5889
 5967TIP3   OH239315   5.681   4.374   3.885 -0.2760  0.1225  0.3212
 5967TIP3    H139316   5.748   4.371   3.816 -2.5970 -0.7954 -2.0503
 5967TIP3    H239317   5.726   4.341   3.963  1.7357 -1.5263 -1.4167
 5968TIP3   OH239318   4.282   1.518   5.611 -0.2626  0.2481 -0.1992
 5968TIP3    H139319   4.309   1.581   5.678 -0.8668 -0.4340  0.7214
 5968TIP3    H239320   4.360   1.503   5.558  0.6385 -0.2268  1.2060
 5969TIP3   OH239321   4.253   5.218   6.132 -0.0890 -0.3109  0.1379
 5969TIP3    H139322   4.218   5.208   6.220 -0.5576 -0.4208 -0.0608
 5969TIP3    H239323   4.270   5.312   6.124  0.8796 -0.4229  0.6904
 5970TIP3   OH239324   5.879   5.759   5.833  0.0866  0.0539  0.3776
 5970TIP3    H139325   5.881   5.783   5.740 -1.5889  0.8002  0.5134
 5970TIP3    H239326   5.806   5.808   5.869  1.6255  0.9660  2.4470
 5971TIP3   OH239327   0.719   4.697   0.956 -0.3033  1.4634  0.4792
 5971TIP3    H139328   0.677   4.658   1.033  1.0334 -1.2072 -0.0172
 5971TIP3    H239329   0.812   4.686   0.972  0.0428 -1.5898 -2.5208
 5972TIP3   OH239330   0.937   3.514   5.497 -0.3528 -0.0028 -0.4012
 5972TIP3    H139331   0.943   3.493   5.590 -1.3367 -0.1169 -0.3576
 5972TIP3    H239332   0.966   3.434   5.453  1.7350  0.5843 -0.2125
 5973TIP3   OH239333   5.703   0.888   0.261 -0.0396  0.1972 -0.3126
 5973TIP3    H139334   5.782   0.939   0.245  0.7479 -1.3867 -1.6787
 5973TIP3    H239335   5.666   0.872   0.175 -2.0054  1.0753  0.3118
 5974TIP3   OH239336   3.606   5.413   0.980 -0.0019 -0.0768 -0.7476
 5974TIP3    H139337   3.585   5.439   1.070 -0.0748  0.4305 -0.9073
 5974TIP3    H239338   3.622   5.319   0.986 -0.7068 -0.1823 -0.3258
 5975TIP3   OH239339   3.178   3.022  13.868  0.1455 -0.5127  0.2753
 5975TIP3    H139340   3.223   3.045  13.787 -0.4500 -0.7421 -0.1318
 5975TIP3    H239341   3.113   3.092  13.880  0.0593 -0.6152  0.4105
 5976TIP3   OH239342   0.856   5.698   5.228  0.4712 -0.3336  0.4741
 5976TIP3    H139343   0.951   5.683   5.230  0.5046 -0.2161 -0.0523
 5976TIP3    H239344   0.847   5.791   5.204  0.2145 -0.8325 -1.5478
 5977TIP3   OH239345   5.564   0.425   2.426 -0.3183  0.3253  0.1359
 5977TIP3    H139346   5.529   0.364   2.361 -0.6204  0.0691  0.5412
 5977TIP3    H239347   5.597   0.498   2.373 -0.9755  0.3293 -0.2851
 5978TIP3   OH239348   1.157   2.099   2.033 -0.1366 -0.4617  0.3017
 5978TIP3    H139349   1.241   2.053   2.032 -0.1703 -0.5178  0.1513
 5978TIP3    H239350   1.179   2.190   2.012 -0.0517 -0.3782  0.7367
 5979TIP3   OH239351   6.175   1.524  15.493 -0.8002  0.1041  0.1811
 5979TIP3    H139352   6.186   1.545  15.401 -0.5361 -0.2526  0.1309
 5979TIP3    H239353   6.212   1.600  15.540 -0.0562 -0.1401  0.0004
 5980TIP3   OH239354   3.118   5.421   1.735 -0.1557  0.2728 -0.3315
 5980TIP3    H139355   3.062   5.463   1.800  0.9914  0.5655  0.5131
 5980TIP3    H239356   3.199   5.402   1.782  0.9096  0.9628 -1.8032
 5981TIP3   OH239357   5.495   5.591   5.618  0.0962  0.7186  0.3417
 5981TIP3    H139358   5.428   5.573   5.552  0.3462 -1.9158  0.7150
 5981TIP3    H239359   5.578   5.584   5.570  0.2124  0.9110  0.5116
 5982TIP3   OH239360   2.267   2.343  12.434  0.6005 -0.5708 -0.0508
 5982TIP3    H139361   2.216   2.341  12.515 -0.3386  2.3431 -0.4340
 5982TIP3    H239362   2.220   2.405  12.378  2.1798 -1.1692 -2.1645
 5983TIP3   OH239363   0.990   5.218   2.326 -0.6218  0.2322 -0.0933
 5983TIP3    H139364   1.040   5.234   2.247 -0.7419 -0.0866 -0.2346
 5983TIP3    H239365   0.989   5.303   2.371 -1.1815  0.6047 -0.7903
 5984TIP3   OH239366   1.423   4.358   1.889  0.0970  0.1359  0.1633
 5984TIP3    H139367   1.411   4.272   1.848 -0.2982  0.4990 -0.4935
 5984TIP3    H239368   1.343   4.372   1.939 -0.3349  0.6126 -0.6454
 5985TIP3   OH239369   2.081   0.521  15.859 -0.1649  0.1043  0.0439
 5985TIP3    H139370   1.999   0.569  15.872  0.5740  1.4343 -0.0759
 5985TIP3    H239371   2.147   0.573  15.903  0.3722 -1.9140  1.8117
 5986TIP3   OH239372   2.955   0.507  12.314 -0.1713 -0.1717  0.0480
 5986TIP3    H139373   2.921   0.418  12.326  0.9053 -0.7277 -0.7365
 5986TIP3    H239374   3.033   0.494  12.260  1.2358  1.0288  1.6965
 5987TIP3   OH239375   0.415   2.299  13.918 -0.5372 -0.3297  0.4101
 5987TIP3    H139376   0.479   2.284  13.849  0.6059 -0.5940  1.4988
 5987TIP3    H239377   0.341   2.340  13.874  0.3617 -0.0573 -0.8751
 5988TIP3   OH239378   5.556   3.026   3.867  0.2458  0.5499 -0.0793
 5988TIP3    H139379   5.581   2.938   3.894 -1.0528 -0.1888 -1.1584
 5988TIP3    H239380   5.471   3.041   3.909 -0.1005  0.8052 -0.8521
 5989TIP3   OH239381   5.549   0.754   0.452  0.0815  0.1100  0.5430
 5989TIP3    H139382   5.608   0.804   0.395 -0.0629  0.0577  0.3468
 5989TIP3    H239383   5.605   0.723   0.523  0.2175  0.3629  0.5483
 5990TIP3   OH239384   4.046   3.232  13.256  0.0497  0.4518  0.2214
 5990TIP3    H139385   4.120   3.173  13.271 -0.0097  0.6164  1.2683
 5990TIP3    H239386   4.078   3.295  13.192  1.0142  0.8457  1.0645
 5991TIP3   OH239387   0.551   4.375  16.422 -0.4756  0.1138  0.0654
 5991TIP3    H139388   0.464   4.375  16.383  0.4513  0.3343 -2.1189
 5991TIP3    H239389   0.548   4.305  16.488 -2.3035  0.1742  0.0802
 5992TIP3   OH239390   1.285   3.759  14.840 -0.1156  0.5915  0.0193
 5992TIP3    H139391   1.285   3.795  14.751  1.5914  0.0458 -0.2353
 5992TIP3    H239392   1.203   3.790  14.878 -0.3902  1.7123 -1.3866
 5993TIP3   OH239393   5.957   0.634   3.798 -0.5087  1.0653  0.3356
 5993TIP3    H139394   5.871   0.592   3.802 -0.3714  0.8435  1.1058
 5993TIP3    H239395   5.964   0.664   3.708  0.2072 -2.3105 -0.8929
 5994TIP3   OH239396   2.795   4.368   0.543  0.4515 -0.1282 -0.1077
 5994TIP3    H139397   2.744   4.363   0.624  2.1811 -1.4808  0.9841
 5994TIP3    H239398   2.817   4.277   0.523 -0.1139  0.1552 -2.2704
 5995TIP3   OH239399   4.562   1.063   2.148  0.2639  0.2189  0.3413
 5995TIP3    H139400   4.578   0.979   2.105 -0.4964  0.5815 -0.6956
 5995TIP3    H239401   4.599   1.052   2.236 -0.7760 -1.5883  0.6181
 5996TIP3   OH239402   0.699   2.030  13.003 -0.2610 -0.3507 -0.0749
 5996TIP3    H139403   0.761   1.972  13.047  0.6513  1.0485  0.5472
 5996TIP3    H239404   0.631   2.047  13.068 -0.0914 -0.0766  0.0338
 5997TIP3   OH239405   3.551   4.454  17.159 -0.1667 -0.2523 -0.0968
 5997TIP3    H139406   3.613   4.426  17.092 -1.4393 -1.1966 -0.9375
 5997TIP3    H239407   3.541   4.377  17.216  0.1912  0.2316  0.6354
 5998TIP3   OH239408   5.165   4.081  11.402 -0.0390 -0.2033  0.4289
 5998TIP3    H139409   5.118   3.998  11.415  0.5562 -0.8101 -0.9548
 5998TIP3    H239410   5.257   4.054  11.390 -0.2260  0.2675 -3.0905
 5999TIP3   OH239411   5.623   2.786   4.379  0.6713 -0.0415  0.0905
 5999TIP3    H139412   5.631   2.704   4.331  2.8811  0.2726 -0.2120
 5999TIP3    H239413   5.589   2.848   4.314 -0.5277 -0.5786  0.1850
 6000TIP3   OH239414   5.533   4.453   1.866 -0.0923 -0.0114 -0.2056
 6000TIP3    H139415   5.580   4.401   1.932  0.3105  1.8515  1.0514
 6000TIP3    H239416   5.444   4.419   1.869  0.0675 -0.4046  0.8605
 6001TIP3   OH239417   2.906   6.656  16.148  0.2066  0.1544  0.1374
 6001TIP3    H139418   2.883   6.735  16.198 -1.0671  1.0899 -1.8011
 6001TIP3    H239419   2.849   6.588  16.184 -0.7780  0.8366 -0.0771
 6002TIP3   OH239420   0.123   5.316   1.903  0.1252  0.0045  0.1345
 6002TIP3    H139421   0.200   5.260   1.902 -1.1622 -1.8557 -0.6042
 6002TIP3    H239422   0.070   5.285   1.830 -1.3575  1.1831  0.6601
 6003TIP3   OH239423   3.036   4.022   2.970 -0.3296 -0.6123 -0.2560
 6003TIP3    H139424   2.991   3.991   3.048  0.8443 -0.9939  0.2776
 6003TIP3    H239425   3.086   3.946   2.938  0.4555 -0.0252 -0.4615
 6004TIP3   OH239426   1.630   5.740  14.125 -0.4522 -0.3017  0.1914
 6004TIP3    H139427   1.617   5.826  14.164  0.8395 -0.3886  0.8466
 6004TIP3    H239428   1.621   5.678  14.198 -1.9383 -0.7983 -0.3682
 6005TIP3   OH239429   4.989   6.405  16.469  0.5116 -0.1987  0.3638
 6005TIP3    H139430   4.927   6.377  16.536  2.0989  1.2896  2.5916
 6005TIP3    H239431   4.965   6.497  16.451  1.1982 -0.0505  0.1912
 6006TIP3   OH239432   1.877   2.807   5.066 -0.4710  0.1261 -0.0677
 6006TIP3    H139433   1.835   2.872   5.122  1.4383  0.9653  0.4501
 6006TIP3    H239434   1.840   2.723   5.094 -0.8346  0.7102  1.2315
 6007TIP3   OH239435   5.915   1.231  11.184  0.1942  0.0769  0.1758
 6007TIP3    H139436   5.947   1.146  11.214 -0.1745 -0.5608 -1.1358
 6007TIP3    H239437   5.920   1.288  11.261 -0.1169 -1.2800  1.2360
 6008TIP3   OH239438   3.537   5.327   4.293  0.2827 -0.0303 -0.1454
 6008TIP3    H139439   3.477   5.295   4.225  2.1403  1.6535 -2.8135
 6008TIP3    H239440   3.519   5.421   4.297  0.7991  0.0264  1.1245
 6009TIP3   OH239441   2.912   6.648   3.916  0.4219 -0.3277 -0.8479
 6009TIP3    H139442   2.924   6.564   3.872 -0.2647 -0.4850 -0.7502
 6009TIP3    H239443   2.924   6.628   4.009  1.4336 -0.0800 -0.9078
 6010TIP3   OH239444   2.775   1.497   0.512  1.0445  0.3255 -0.4153
 6010TIP3    H139445   2.795   1.590   0.528 -1.9817  0.8004  1.4172
 6010TIP3    H239446   2.705   1.499   0.447  0.1695 -0.6054  0.4844
 6011TIP3   OH239447   2.112   4.831  12.126  0.2144 -0.3268  0.2234
 6011TIP3    H139448   2.096   4.923  12.107  0.3980  0.2682  2.6248
 6011TIP3    H239449   2.170   4.832  12.202  1.8302 -2.4527 -0.8841
 6012TIP3   OH239450   3.304   5.625   0.208 -0.3210 -0.2906 -0.2598
 6012TIP3    H139451   3.337   5.537   0.190 -0.9170 -0.7991  0.9530
 6012TIP3    H239452   3.370   5.684   0.171  1.3841 -1.2547  1.0412
 6013TIP3   OH239453   4.084   4.158   0.352 -0.4647 -0.6821 -0.1442
 6013TIP3    H139454   4.114   4.193   0.268  0.1076 -0.5830  0.0921
 6013TIP3    H239455   4.075   4.064   0.338 -0.3120 -0.6739 -0.2998
 6014TIP3   OH239456   2.107   2.530   4.204  0.0302  0.0199 -0.3454
 6014TIP3    H139457   2.070   2.442   4.197 -0.1776 -0.0581  1.2755
 6014TIP3    H239458   2.067   2.566   4.284  0.3132  1.4869 -0.8434
 6015TIP3   OH239459   0.353   2.048   0.169  0.0262 -0.1696 -0.3502
 6015TIP3    H139460   0.418   2.027   0.237 -1.2216 -0.0936  0.9031
 6015TIP3    H239461   0.338   2.142   0.180  1.2456  0.2717 -2.0600
 6016TIP3   OH239462   6.169   5.885   1.056  1.2686  0.0918 -0.3293
 6016TIP3    H139463   6.140   5.859   1.144  1.7485 -0.5771 -0.3537
 6016TIP3    H239464   6.264   5.898   1.066  1.3988 -0.4423 -0.8499
 6017TIP3   OH239465   3.653   3.755  15.340  0.4712 -0.3356 -0.2226
 6017TIP3    H139466   3.719   3.811  15.380  0.8718 -0.5566 -0.5715
 6017TIP3    H239467   3.596   3.815  15.292 -0.0092 -0.0675  0.6511
 6018TIP3   OH239468   4.760   1.941   0.151  0.0134 -0.5013 -0.5958
 6018TIP3    H139469   4.746   2.032   0.177 -0.8207 -0.5149 -0.9538
 6018TIP3    H239470   4.679   1.896   0.177  0.8832 -1.3952  0.6567
 6019TIP3   OH239471   2.487   4.532  13.983  0.3337 -0.1665 -0.1027
 6019TIP3    H139472   2.573   4.559  14.015  0.2595 -0.4483  0.3376
 6019TIP3    H239473   2.471   4.589  13.908  0.8231  0.0131 -0.0760
 6020TIP3   OH239474   0.106   4.913   1.299  0.1447 -0.2655 -0.1675
 6020TIP3    H139475   0.128   4.972   1.371 -1.9573  0.7949 -0.3489
 6020TIP3    H239476   0.084   4.830   1.343 -1.1154  0.3699  0.4316
 6021TIP3   OH239477   5.175   3.096  13.354 -0.0432 -0.0180 -0.1017
 6021TIP3    H139478   5.123   3.022  13.385  1.2250 -0.4049  1.2097
 6021TIP3    H239479   5.175   3.086  13.259 -0.4299 -1.3566  0.0122
 6022TIP3   OH239480   3.118   0.000   1.098 -0.1402 -0.4017 -0.6085
 6022TIP3    H139481   3.183   0.058   1.138 -0.6751 -0.5120  0.4692
 6022TIP3    H239482   3.049   0.060   1.068 -0.1275 -0.3811 -0.5971
 6023TIP3   OH239483   1.133   0.174   2.115  0.0153 -0.3996 -0.2586
 6023TIP3    H139484   1.227   0.160   2.103  0.1397  0.5098 -0.3747
 6023TIP3    H239485   1.117   0.151   2.207  0.5044  0.2365 -0.0113
 6024TIP3   OH239486   0.302   2.341  14.393  0.1120  0.4790  0.2842
 6024TIP3    H139487   0.383   2.329  14.442  0.7376  1.6874 -0.4087
 6024TIP3    H239488   0.314   2.423  14.345 -1.2859  0.3814 -0.3016
 6025TIP3   OH239489   5.430   2.573   3.674  0.1862  0.2590 -0.1600
 6025TIP3    H139490   5.359   2.631   3.702  0.3110  0.5637 -0.4738
 6025TIP3    H239491   5.442   2.593   3.581  0.4224 -0.0656 -0.1984
 6026TIP3   OH239492   6.374   3.276   5.246  0.2680  0.0778 -0.3217
 6026TIP3    H139493   6.301   3.279   5.184 -0.9691  1.5398  1.1013
 6026TIP3    H239494   6.449   3.312   5.198 -0.0966 -0.7921 -1.5889
 6027TIP3   OH239495   3.791   3.909   6.029  0.4884  0.6323  0.1966
 6027TIP3    H139496   3.883   3.903   6.058  0.5209  1.2491  0.2455
 6027TIP3    H239497   3.792   3.875   5.940  1.1548  2.4156 -0.5459
 6028TIP3   OH239498   5.182   0.663   2.309 -0.1858  0.8165  0.5851
 6028TIP3    H139499   5.204   0.704   2.393  1.5869  2.1598 -0.4530
 6028TIP3    H239500   5.263   0.621   2.281 -0.9471 -0.1965 -0.1435
 6029TIP3   OH239501   1.658   4.027  14.634  0.0857 -0.6976  0.2615
 6029TIP3    H139502   1.737   3.984  14.602 -0.0560 -0.2209 -0.7689
 6029TIP3    H239503   1.649   3.997  14.724  1.7205 -0.3537  0.5641
 6030TIP3   OH239504   2.703   6.748  12.429 -0.0598  0.2685  0.4440
 6030TIP3    H139505   2.632   6.739  12.366  1.4149  1.2946 -1.4576
 6030TIP3    H239506   2.726   6.658  12.452 -1.7297 -0.0756  0.8364
 6031TIP3   OH239507   6.443   1.026   4.257  0.4211 -0.2169 -0.3753
 6031TIP3    H139508   6.467   0.971   4.182 -0.2116 -0.0960 -0.6738
 6031TIP3    H239509   6.396   1.099   4.218  1.4349  0.6544 -0.0001
 6032TIP3   OH239510   2.363   4.750  13.461 -0.0267  0.0184  0.1613
 6032TIP3    H139511   2.329   4.832  13.426  1.4361  0.2766 -0.7890
 6032TIP3    H239512   2.392   4.702  13.383 -1.3937 -1.6806  0.6494
 6033TIP3   OH239513   0.011   6.112   1.705 -0.0882  0.5835 -0.0342
 6033TIP3    H139514  -0.074   6.069   1.716 -0.3394  0.9617 -0.4440
 6033TIP3    H239515  -0.009   6.205   1.711  0.5631  0.6522  1.6533
 6034TIP3   OH239516   5.483   5.682   2.277 -0.0202  0.2965  0.0268
 6034TIP3    H139517   5.462   5.598   2.318  0.3082 -0.3567 -1.1101
 6034TIP3    H239518   5.401   5.733   2.283 -0.7222 -0.7038 -0.7059
 6035TIP3   OH239519   2.865   1.420  11.934 -0.1479  0.1925  0.1930
 6035TIP3    H139520   2.922   1.436  11.858 -0.3191  0.1341  0.0513
 6035TIP3    H239521   2.778   1.410  11.896  0.2329 -3.4382 -0.0060
 6036TIP3   OH239522   5.359   4.239  12.935 -0.2657  0.2317 -0.4929
 6036TIP3    H139523   5.276   4.216  12.893 -1.7922  1.6097  1.5971
 6036TIP3    H239524   5.396   4.155  12.962 -0.7246 -0.4393 -1.8622
 6037TIP3   OH239525   3.989   3.288  15.394  0.3172 -0.5079  0.0183
 6037TIP3    H139526   4.084   3.283  15.386  0.3113 -1.0692  0.2655
 6037TIP3    H239527   3.962   3.200  15.422 -0.1892 -0.1237  0.7896
 6038TIP3   OH239528   3.075   3.513  11.616 -0.6114  0.2668 -0.0433
 6038TIP3    H139529   3.087   3.526  11.710  0.4353  0.6247 -0.2171
 6038TIP3    H239530   3.089   3.599  11.578 -1.8417  0.2951 -0.4648
 6039TIP3   OH239531   3.348   0.704  15.062  0.0668 -0.1973  0.6862
 6039TIP3    H139532   3.273   0.646  15.044  1.2146 -1.0088 -1.9291
 6039TIP3    H239533   3.309   0.791  15.071 -1.3775 -0.8790  1.4457
 6040TIP3   OH239534   4.167   4.023  13.226 -0.0429  0.0724 -0.1651
 6040TIP3    H139535   4.107   4.090  13.258  1.4449  1.9606 -1.1661
 6040TIP3    H239536   4.254   4.054  13.249  0.7140 -1.3933 -0.8963
 6041TIP3   OH239537   2.718   1.212  16.082  0.1978  0.0140 -0.0925
 6041TIP3    H139538   2.710   1.298  16.041  0.7572 -1.2916 -3.2700
 6041TIP3    H239539   2.660   1.155  16.030 -0.3819 -1.5095  2.0833
 6042TIP3   OH239540   3.409   3.648   2.388 -0.5667  0.3753 -0.0187
 6042TIP3    H139541   3.360   3.651   2.306 -0.9304  0.2651  0.1898
 6042TIP3    H239542   3.451   3.734   2.395 -0.6839  0.4492 -0.2264
 6043TIP3   OH239543   0.948   3.444  12.846 -0.0026 -0.2413 -0.2308
 6043TIP3    H139544   0.919   3.527  12.807 -0.0743 -1.1011 -2.1321
 6043TIP3    H239545   0.892   3.378  12.806  0.9936 -1.3716  0.1720
 6044TIP3   OH239546   3.486   0.936   4.955 -0.5409 -0.4403 -0.3317
 6044TIP3    H139547   3.455   0.854   4.917 -0.3808 -1.2122  1.1089
 6044TIP3    H239548   3.453   0.934   5.045  0.4402  0.5336  0.0751
 6045TIP3   OH239549   0.515   1.835  13.641  0.1494  0.9428 -0.6465
 6045TIP3    H139550   0.563   1.839  13.723 -0.4537 -0.3680 -0.2104
 6045TIP3    H239551   0.572   1.881  13.578  0.8031  1.5971  0.3903
 6046TIP3   OH239552   1.767   5.522   4.535  0.3917  0.5101  0.1914
 6046TIP3    H139553   1.845   5.577   4.534 -0.5683  2.0911  2.6261
 6046TIP3    H239554   1.762   5.489   4.624 -0.8132 -1.0065 -0.3837
 6047TIP3   OH239555   2.889   0.943   0.995  0.0918 -0.3840 -0.0962
 6047TIP3    H139556   2.932   0.933   0.909 -0.2867  1.4419 -0.5413
 6047TIP3    H239557   2.944   1.005   1.042  0.3280 -1.4216  1.0469
 6048TIP3   OH239558   0.520   0.262   2.056 -0.0014  1.0152  0.1499
 6048TIP3    H139559   0.592   0.302   2.006 -0.0022 -1.7527 -2.2986
 6048TIP3    H239560   0.560   0.187   2.099 -0.9022  0.9934  0.9644
 6049TIP3   OH239561   1.779   6.688  14.247  0.1568 -0.0516 -0.0075
 6049TIP3    H139562   1.735   6.760  14.290 -1.1015 -0.4403 -0.6068
 6049TIP3    H239563   1.772   6.707  14.154 -0.7216 -1.2331 -0.1987
 6050TIP3   OH239564   5.218   5.446  15.666  0.1042 -0.0881 -0.6923
 6050TIP3    H139565   5.216   5.494  15.749 -1.1023  0.1886 -0.8653
 6050TIP3    H239566   5.129   5.453  15.632  0.5625 -0.2565 -1.9835
 6051TIP3   OH239567   1.454   6.655  16.769  0.0022 -0.2689  0.6351
 6051TIP3    H139568   1.406   6.734  16.793 -0.0544  0.0539 -0.5068
 6051TIP3    H239569   1.533   6.657  16.824 -0.7098 -0.2090  1.6900
 6052TIP3   OH239570   1.478   5.180   2.600 -0.0863  0.3875  0.7497
 6052TIP3    H139571   1.412   5.139   2.655  0.0017 -0.8811 -0.0474
 6052TIP3    H239572   1.554   5.122   2.607 -0.7121 -0.9856 -2.2366
 6053TIP3   OH239573   4.353   3.808   0.888  0.4886  0.2135  0.1514
 6053TIP3    H139574   4.312   3.895   0.884  1.4890  0.6888 -0.2725
 6053TIP3    H239575   4.398   3.807   0.972  0.4577  0.0950  0.1665
 6054TIP3   OH239576   6.513   2.032  11.930 -0.5864 -0.1185 -0.4409
 6054TIP3    H139577   6.526   1.966  11.998  0.3406 -0.6711 -1.1386
 6054TIP3    H239578   6.574   2.102  11.952  0.8677 -0.9934 -1.5527
 6055TIP3   OH239579   5.573   1.860  11.688  0.6980  0.6137 -0.5609
 6055TIP3    H139580   5.663   1.885  11.709 -0.0298  1.6073  1.7397
 6055TIP3    H239581   5.525   1.943  11.682  0.0021  0.1404 -2.4204
 6056TIP3   OH239582   1.032   0.277   5.172 -0.4694  0.1245 -0.1681
 6056TIP3    H139583   0.947   0.278   5.216  1.0052 -1.0973  2.9507
 6056TIP3    H239584   1.051   0.370   5.154 -0.7225  0.8389  2.8320
 6057TIP3   OH239585   4.895   3.484  11.470 -0.1183  0.4921 -0.1156
 6057TIP3    H139586   4.833   3.413  11.485 -0.8768  0.3628 -3.2246
 6057TIP3    H239587   4.849   3.563  11.499 -1.0216  0.1865 -0.6744
 6058TIP3   OH239588   4.227   1.364  14.393  0.0314  0.0886  0.2008
 6058TIP3    H139589   4.283   1.373  14.317  0.3826  1.2055  0.5825
 6058TIP3    H239590   4.177   1.284  14.376  0.3962  0.0961 -1.0022
 6059TIP3   OH239591   3.874   2.759  12.047 -0.0628  0.4929  0.1991
 6059TIP3    H139592   3.887   2.847  12.011  0.4036  0.8946  1.2736
 6059TIP3    H239593   3.856   2.775  12.140  1.7606 -0.5924  0.7973
 6060TIP3   OH239594   0.075   4.876   2.157  0.7474 -0.7237  0.1841
 6060TIP3    H139595   0.154   4.927   2.140  0.0115  0.1649 -0.6823
 6060TIP3    H239596   0.042   4.909   2.240  0.8612 -0.5544  0.1616
 6061TIP3   OH239597   5.595   3.227  15.751 -0.5850  0.2744 -0.8922
 6061TIP3    H139598   5.506   3.206  15.724 -0.1551 -3.1703 -0.0693
 6061TIP3    H239599   5.590   3.234  15.847  0.3916 -2.8746 -0.5049
 6062TIP3   OH239600   2.758   1.548   3.382  0.4191 -0.8669 -0.0803
 6062TIP3    H139601   2.697   1.482   3.348  0.6807 -1.5571  0.7544
 6062TIP3    H239602   2.713   1.632   3.367  0.9022 -1.0038 -2.9478
 6063TIP3   OH239603   1.902   5.745   5.387 -0.2500 -0.5751 -0.2502
 6063TIP3    H139604   1.909   5.803   5.311  0.7070 -0.4164 -0.0528
 6063TIP3    H239605   1.890   5.657   5.349 -1.3126 -0.3258 -0.5512
 6064TIP3   OH239606   2.746   2.429  15.016 -0.4381  0.1498  0.0911
 6064TIP3    H139607   2.699   2.460  14.939  0.1708 -0.0480 -0.3693
 6064TIP3    H239608   2.757   2.507  15.071 -0.2501  0.4407 -0.3548
 6065TIP3   OH239609   6.312   0.116   2.284 -0.1973 -0.2341 -0.3196
 6065TIP3    H139610   6.240   0.060   2.254  0.9257 -1.8809 -0.1020
 6065TIP3    H239611   6.339   0.077   2.367  0.8961  0.3835 -0.3704
 6066TIP3   OH239612   5.584   2.767   1.359 -0.0403  0.4330 -0.3381
 6066TIP3    H139613   5.500   2.810   1.378  0.2832  0.7793  0.3456
 6066TIP3    H239614   5.649   2.837   1.366  0.2950  0.2033 -1.0361
 6067TIP3   OH239615   6.127   3.946  10.897  0.1780  0.3517  0.1806
 6067TIP3    H139616   6.164   3.949  10.809 -0.5972  0.8322 -0.1452
 6067TIP3    H239617   6.036   3.917  10.883  0.3824 -0.6977  0.9381
 6068TIP3   OH239618   5.716   3.930   0.564 -0.3099 -0.3386 -0.1198
 6068TIP3    H139619   5.694   3.903   0.475 -0.2054 -0.7352 -0.0294
 6068TIP3    H239620   5.794   3.879   0.586  0.8456  1.1951 -0.5147
 6069TIP3   OH239621   5.995   2.655   5.097 -0.2288  0.2124  0.1044
 6069TIP3    H139622   5.982   2.750   5.086  1.3373  0.5881  1.1084
 6069TIP3    H239623   6.090   2.645   5.103  0.0196 -1.8919 -3.7007
 6070TIP3   OH239624   5.137   4.570  15.306  0.0173 -0.2215  0.1759
 6070TIP3    H139625   5.046   4.591  15.287  0.0199  0.6878  1.0293
 6070TIP3    H239626   5.177   4.655  15.328  1.2032 -0.5246 -0.6950
 6071TIP3   OH239627   4.828   5.646   2.476 -0.4903 -0.1417 -0.1637
 6071TIP3    H139628   4.876   5.637   2.394 -0.0861  1.3882 -0.1236
 6071TIP3    H239629   4.850   5.567   2.525  2.7681  0.8572  0.2172
 6072TIP3   OH239630   4.404   4.070   1.382  0.1619  0.1048  0.2439
 6072TIP3    H139631   4.458   4.101   1.309 -0.2835  0.4080  0.0439
 6072TIP3    H239632   4.394   3.976   1.365 -0.2265  0.2368 -0.2747
 6073TIP3   OH239633   5.510   2.191  17.284 -0.2426  0.3405  0.2016
 6073TIP3    H139634   5.496   2.154  17.197  1.3026  1.5352 -0.5885
 6073TIP3    H239635   5.451   2.267  17.287 -0.3214  0.2790  0.2198
 6074TIP3   OH239636   3.542   2.364  15.900 -0.5094  0.0319  0.4789
 6074TIP3    H139637   3.513   2.426  15.966 -1.0455  0.7097 -0.3751
 6074TIP3    H239638   3.471   2.361  15.836  0.2733 -0.1086 -0.4090
 6075TIP3   OH239639   2.855   2.827  13.109  0.3850  0.1920 -0.0528
 6075TIP3    H139640   2.815   2.883  13.175  0.6023  1.0303 -0.6040
 6075TIP3    H239641   2.784   2.772  13.078  0.2657 -0.1576  0.8170
 6076TIP3   OH239642   5.102   5.318   4.195 -0.5521  0.2692  0.2371
 6076TIP3    H139643   5.052   5.246   4.156 -0.1720  0.3185 -0.3635
 6076TIP3    H239644   5.103   5.386   4.127 -0.0475  0.4412  0.4109
 6077TIP3   OH239645   0.463   6.689   3.632  0.0143 -0.5003 -0.2547
 6077TIP3    H139646   0.414   6.622   3.586 -2.6834  0.0539  1.5505
 6077TIP3    H239647   0.425   6.772   3.603  0.1997 -0.0057  0.8409
 6078TIP3   OH239648   2.583   5.286  14.674  0.0843 -0.0177  0.7605
 6078TIP3    H139649   2.534   5.353  14.721 -2.8491 -0.4015 -1.4762
 6078TIP3    H239650   2.606   5.221  14.741 -3.6597 -0.4410  1.8661
 6079TIP3   OH239651   1.468   3.456   5.438  0.1311 -0.0192 -0.2600
 6079TIP3    H139652   1.511   3.392   5.495  0.9878  0.9132  0.1775
 6079TIP3    H239653   1.503   3.437   5.351 -0.4862 -0.8602 -0.3339
 6080TIP3   OH239654   1.689   4.906   3.243  0.2389  0.7587  0.3638
 6080TIP3    H139655   1.607   4.954   3.252 -0.3473 -0.2875  0.9147
 6080TIP3    H239656   1.685   4.868   3.155  1.6819  3.3841 -0.9301
 6081TIP3   OH239657   5.122   1.907  16.212  0.1349  0.1898  0.4976
 6081TIP3    H139658   5.154   1.955  16.288 -1.4126  0.6817  0.8665
 6081TIP3    H239659   5.050   1.854  16.246  0.8626 -1.3024 -0.1941
 6082TIP3   OH239660   3.541   5.043   4.734  0.2315  0.2980 -0.0986
 6082TIP3    H139661   3.461   5.000   4.704 -0.5486  0.9468  0.9948
 6082TIP3    H239662   3.585   4.976   4.787  0.9417 -0.3972 -1.5224
 6083TIP3   OH239663   4.957   4.087  13.850 -0.9150  0.1189 -0.5674
 6083TIP3    H139664   4.986   4.174  13.877  1.1073 -0.1355 -1.7370
 6083TIP3    H239665   4.981   4.030  13.924 -0.9565  0.3285 -0.3897
 6084TIP3   OH239666   3.082   3.457  14.207  0.5093 -0.1701 -0.2008
 6084TIP3    H139667   3.132   3.485  14.284 -1.0789 -0.3337  0.9477
 6084TIP3    H239668   3.059   3.539  14.163 -1.8541  0.3110  1.6861
 6085TIP3   OH239669   1.753   4.085  13.911  0.8019  0.0858  0.2139
 6085TIP3    H139670   1.752   4.002  13.959  0.3320 -0.9308 -1.4672
 6085TIP3    H239671   1.798   4.065  13.829 -1.2035  0.8948 -1.1757
 6086TIP3   OH239672   6.256   3.576  12.245 -0.4255  0.3167  0.2354
 6086TIP3    H139673   6.179   3.552  12.296  0.9029 -3.0684  0.9477
 6086TIP3    H239674   6.233   3.554  12.154 -0.9180  1.1301  0.1569
 6087TIP3   OH239675   3.666   2.108  15.724 -0.3070  0.0684  0.4926
 6087TIP3    H139676   3.677   2.058  15.805 -0.9226 -1.2918 -0.2247
 6087TIP3    H239677   3.737   2.078  15.667 -1.3323 -0.8642 -0.3451
 6088TIP3   OH239678   1.609   3.156   0.496  0.3437  0.5639 -0.0866
 6088TIP3    H139679   1.696   3.188   0.518  0.0414  1.5168 -0.2279
 6088TIP3    H239680   1.622   3.106   0.416  0.7792  0.6350 -0.0641
 6089TIP3   OH239681   1.735   2.954  10.904 -0.6516 -0.1689 -0.0981
 6089TIP3    H139682   1.811   3.006  10.930 -0.5750 -0.0310 -0.5892
 6089TIP3    H239683   1.772   2.872  10.872 -0.2587  1.4860 -4.6489
 6090TIP3   OH239684   5.154   5.191   1.839  0.3513  0.0502 -0.4718
 6090TIP3    H139685   5.176   5.232   1.755  0.7318 -1.2039 -1.0082
 6090TIP3    H239686   5.238   5.175   1.881  0.2844 -1.2735 -0.8137
 6091TIP3   OH239687   0.957   2.556   1.237  0.0746 -0.0987  0.1329
 6091TIP3    H139688   1.028   2.532   1.177  0.9401  2.2930  0.0871
 6091TIP3    H239689   0.905   2.476   1.247 -0.6140 -0.4787 -4.4390
 6092TIP3   OH239690   0.043   4.111  11.056 -0.0116  0.2397 -0.6332
 6092TIP3    H139691  -0.015   4.058  11.001  1.5811 -0.4908 -1.6776
 6092TIP3    H239692  -0.016   4.170  11.103 -1.6937 -1.2241 -0.7949
 6093TIP3   OH239693   0.355   2.996  16.858 -0.9863  0.0813  0.0283
 6093TIP3    H139694   0.370   2.921  16.915 -0.1465 -0.0609 -0.3689
 6093TIP3    H239695   0.261   3.008  16.859 -1.0378 -0.2747  0.9950
 6094TIP3   OH239696   6.758   6.274  13.724 -0.3278  0.5118  0.0325
 6094TIP3    H139697   6.745   6.182  13.748  0.3186  0.2694 -0.5182
 6094TIP3    H239698   6.713   6.284  13.639  0.2607  0.5018 -0.2854
 6095TIP3   OH239699   4.079   3.131  16.368 -0.6481 -0.4130 -0.1205
 6095TIP3    H139700   4.132   3.204  16.335  0.2471 -1.3172 -0.7780
 6095TIP3    H239701   4.008   3.172  16.417  0.0318  0.8787 -0.1789
 6096TIP3   OH239702   5.362   5.021  11.526  0.5572  0.3923 -0.3364
 6096TIP3    H139703   5.295   4.956  11.504  0.3714  0.2514  0.5886
 6096TIP3    H239704   5.342   5.046  11.616  1.3292  0.8689 -0.2903
 6097TIP3   OH239705   2.464   4.556  15.227 -0.4113 -0.7489  0.5120
 6097TIP3    H139706   2.467   4.651  15.215  1.1180 -0.9266 -0.8615
 6097TIP3    H239707   2.385   4.541  15.278 -1.1707  1.1831  0.0028
 6098TIP3   OH239708   2.512   4.484  13.682 -0.0977 -0.1427 -0.3011
 6098TIP3    H139709   2.522   4.391  13.704  2.5471  0.5046  1.7451
 6098TIP3    H239710   2.577   4.500  13.614  1.0795  0.6289  0.9641
 6099TIP3   OH239711   3.497   4.840  14.084  0.7545 -0.0302  0.7764
 6099TIP3    H139712   3.580   4.808  14.118 -0.4431 -0.7740  3.2451
 6099TIP3    H239713   3.513   4.853  13.990  3.0145 -2.1815  0.7526
 6100TIP3   OH239714   6.759   1.189  12.868 -0.5598  0.5233 -0.2226
 6100TIP3    H139715   6.696   1.132  12.912 -0.2050 -0.4174 -0.9091
 6100TIP3    H239716   6.730   1.191  12.777 -0.1897  0.9106 -0.3328
 6101TIP3   OH239717   0.878   2.228   2.584  0.1337 -0.1901  0.9950
 6101TIP3    H139718   0.890   2.134   2.570 -0.2152 -0.0731 -0.2019
 6101TIP3    H239719   0.808   2.253   2.524  1.2356  1.1047  0.1883
 6102TIP3   OH239720   1.078   6.397   5.307 -0.3234 -0.5082 -0.1199
 6102TIP3    H139721   1.090   6.492   5.319  1.3046 -0.6840 -0.1565
 6102TIP3    H239722   1.140   6.374   5.237 -1.1741 -1.4953 -0.5674
 6103TIP3   OH239723   1.970   2.365  16.732  0.1827 -0.1905 -0.1459
 6103TIP3    H139724   2.019   2.284  16.721  1.0215  0.4823 -1.7749
 6103TIP3    H239725   1.891   2.340  16.780 -0.4203 -2.2825 -2.0829
 6104TIP3   OH239726   0.258   2.610   1.884  0.3394  0.8792  0.2258
 6104TIP3    H139727   0.310   2.688   1.903  0.9165  0.8285 -1.0257
 6104TIP3    H239728   0.232   2.620   1.793  1.3062 -0.8700 -0.2949
 6105TIP3   OH239729   6.457   4.514   2.079  0.5410  0.6961  0.0699
 6105TIP3    H139730   6.375   4.522   2.029 -0.9724  0.7413  2.4262
 6105TIP3    H239731   6.515   4.580   2.039 -0.9357  1.4380 -0.9603
 6106TIP3   OH239732   4.971   1.442  14.356  0.2473 -0.2348  0.4327
 6106TIP3    H139733   4.977   1.444  14.260  1.0919  2.4871  0.4496
 6106TIP3    H239734   4.904   1.376  14.374 -1.1739  0.3404 -2.1145
 6107TIP3   OH239735   5.037   3.077   1.214 -0.0284  0.5104 -0.2163
 6107TIP3    H139736   4.978   3.112   1.148 -1.1344  1.2241  1.0909
 6107TIP3    H239737   4.991   3.091   1.297  1.3929 -0.1648  0.7272
 6108TIP3   OH239738   1.917   0.821   1.201  0.2903 -0.0163 -0.0305
 6108TIP3    H139739   1.967   0.884   1.254 -0.4141  0.8149 -0.3240
 6108TIP3    H239740   1.938   0.736   1.239  0.5245  0.4781  0.9884
 6109TIP3   OH239741   4.532   3.285  12.972 -0.5993  0.6695  0.6438
 6109TIP3    H139742   4.533   3.191  12.957  0.3035  0.6372  0.8128
 6109TIP3    H239743   4.554   3.295  13.064 -3.6531  0.9559  1.4399
 6110TIP3   OH239744   3.389   0.488  12.610  0.5714  0.3481  0.1600
 6110TIP3    H139745   3.408   0.417  12.550  0.0050  0.2446  0.0976
 6110TIP3    H239746   3.337   0.550  12.559  0.8765  0.6975  0.2753
 6111TIP3   OH239747   0.487   2.069   5.045  0.4107  0.0513  0.2782
 6111TIP3    H139748   0.418   2.089   5.108 -1.3821 -0.1825 -1.5319
 6111TIP3    H239749   0.472   1.978   5.021  1.5746 -0.1084  0.0895
 6112TIP3   OH239750   4.492   6.417   6.559 -0.4351 -0.4471  0.2526
 6112TIP3    H139751   4.519   6.470   6.484  0.3773  0.5278  1.2163
 6112TIP3    H239752   4.558   6.434   6.626 -0.9776 -1.5474  1.0959
 6113TIP3   OH239753   5.780   1.104  13.827 -0.0957 -0.0539  0.1842
 6113TIP3    H139754   5.729   1.148  13.759 -0.8368  0.2437  0.9304
 6113TIP3    H239755   5.723   1.034  13.859  0.4493 -0.5220  0.1551
 6114TIP3   OH239756   1.729   4.247  15.868 -0.0332  0.5680 -0.0263
 6114TIP3    H139757   1.760   4.211  15.951  3.5860  1.2028 -0.9134
 6114TIP3    H239758   1.728   4.172  15.808  1.0423  0.7024 -0.2484
 6115TIP3   OH239759   4.898   6.274   2.205 -0.1009 -1.0351 -0.2628
 6115TIP3    H139760   4.857   6.232   2.129  1.7376 -0.6368 -1.5235
 6115TIP3    H239761   4.959   6.337   2.168  1.1680 -1.1239  1.5466
 6116TIP3   OH239762   6.636   6.465  15.676 -0.1221  0.1450  0.0062
 6116TIP3    H139763   6.628   6.557  15.698 -0.6986  0.4416 -1.3042
 6116TIP3    H239764   6.552   6.427  15.703  0.3784 -0.1539  1.1819
 6117TIP3   OH239765   6.189   5.328  11.711  0.4660 -0.0509 -0.3008
 6117TIP3    H139766   6.128   5.270  11.666 -0.9473  1.6299 -0.6470
 6117TIP3    H239767   6.243   5.364  11.641 -0.2828  0.8894 -0.4115
 6118TIP3   OH239768   4.532   5.432  17.261 -0.0709 -0.6000 -0.4046
 6118TIP3    H139769   4.618   5.461  17.289 -0.4015  0.0435 -0.0475
 6118TIP3    H239770   4.519   5.474  17.176 -0.1485 -0.4716 -0.3294
 6119TIP3   OH239771   3.011   0.353  16.561 -0.0646 -0.2243  0.1188
 6119TIP3    H139772   2.988   0.337  16.469  0.7192  0.8891 -0.2956
 6119TIP3    H239773   3.043   0.443  16.562  0.4256 -0.3955  1.3964
 6120TIP3   OH239774   6.152   5.625  13.800  0.1041  0.2726  0.2791
 6120TIP3    H139775   6.065   5.585  13.810  0.8107 -1.6858 -0.8979
 6120TIP3    H239776   6.151   5.662  13.711  0.5333  0.1066  0.2056
 6121TIP3   OH239777   1.903   4.658   4.143 -0.0609  1.1988  0.4820
 6121TIP3    H139778   1.944   4.606   4.212  0.1172  0.9609  0.1960
 6121TIP3    H239779   1.955   4.641   4.065  0.2798  2.1651  0.4784
 6122TIP3   OH239780   0.538   4.416   1.053  0.4598 -0.4177  0.0824
 6122TIP3    H139781   0.562   4.393   0.964  0.3776 -0.1550 -0.0065
 6122TIP3    H239782   0.620   4.413   1.102  0.3220 -1.8993  0.2926
 6123TIP3   OH239783   6.357   1.351   2.567  0.5250 -0.5523  0.1953
 6123TIP3    H139784   6.334   1.296   2.643  0.3780  0.9138  1.2588
 6123TIP3    H239785   6.451   1.337   2.555  1.2626  1.4717  2.6655
 6124TIP3   OH239786   6.320   2.135   2.033  0.0898 -0.1077 -0.5723
 6124TIP3    H139787   6.337   2.109   1.942 -2.0279  0.2032 -1.0919
 6124TIP3    H239788   6.230   2.166   2.033  0.9359  2.7169  1.0375
 6125TIP3   OH239789   2.856   5.164  14.450 -0.5585  0.1531  0.5596
 6125TIP3    H139790   2.853   5.070  14.432 -1.8049 -0.1148  1.9694
 6125TIP3    H239791   2.940   5.177  14.493 -0.3445 -0.3096  0.2891
 6126TIP3   OH239792   1.526   5.350   3.831  0.1711 -0.5445 -0.1534
 6126TIP3    H139793   1.450   5.310   3.874 -0.6834  0.7540 -0.4156
 6126TIP3    H239794   1.507   5.341   3.737 -0.1644  0.6711 -0.2190
 6127TIP3   OH239795   1.370   5.293  12.193 -0.0064 -0.2949 -0.1318
 6127TIP3    H139796   1.333   5.267  12.109  0.9813 -3.2251  0.2088
 6127TIP3    H239797   1.450   5.241  12.201  1.7353  2.3358  1.1978
 6128TIP3   OH239798   1.121   6.153   4.312 -0.3250  0.2720 -0.4415
 6128TIP3    H139799   1.036   6.194   4.328  0.6224  2.2071 -0.1149
 6128TIP3    H239800   1.109   6.061   4.338 -2.5362  0.2746 -1.2433
 6129TIP3   OH239801   1.715   3.209   2.171 -0.1500  0.1393  0.0257
 6129TIP3    H139802   1.628   3.185   2.140 -0.3321 -1.1551  1.4303
 6129TIP3    H239803   1.774   3.181   2.101 -0.8030  0.7883 -0.8178
 6130TIP3   OH239804   5.851   6.539  13.874  0.1941 -0.3170  0.0877
 6130TIP3    H139805   5.834   6.481  13.949  0.1078  0.7275  0.9041
 6130TIP3    H239806   5.796   6.615  13.890  0.3985  0.0567 -0.9041
 6131TIP3   OH239807   2.391   5.402  12.293  0.1799 -0.4776  0.5409
 6131TIP3    H139808   2.412   5.418  12.385  0.3276  0.8725  0.3002
 6131TIP3    H239809   2.434   5.474  12.246 -2.6650  0.8845 -0.2282
 6132TIP3   OH239810   6.586   5.876  14.878  0.5729  0.2460 -0.0698
 6132TIP3    H139811   6.661   5.817  14.872  1.8077  1.7897 -0.5353
 6132TIP3    H239812   6.609   5.938  14.947 -0.5951  0.3466  0.2586
 6133TIP3   OH239813   3.624   1.978   1.266  1.2440 -0.3469  0.9878
 6133TIP3    H139814   3.616   1.885   1.289  2.9621 -0.7171  0.2791
 6133TIP3    H239815   3.564   2.023   1.325  0.5883 -1.8799  1.5366
 6134TIP3   OH239816   5.791   1.098   0.813  0.6147  0.4014  0.4016
 6134TIP3    H139817   5.807   1.152   0.891  1.3149 -0.7188  1.0618
 6134TIP3    H239818   5.865   1.117   0.755  1.1850 -0.2887  0.8925
 6135TIP3   OH239819   6.225   4.492  16.567 -0.8466  0.8704 -0.3142
 6135TIP3    H139820   6.133   4.466  16.569 -0.6893  0.0418 -1.9217
 6135TIP3    H239821   6.252   4.480  16.476  0.8242  1.2315  0.0822
 6136TIP3   OH239822   5.327   1.817   3.359 -0.2748 -0.8779  0.2735
 6136TIP3    H139823   5.268   1.892   3.347 -0.4056 -0.7403  1.6326
 6136TIP3    H239824   5.303   1.756   3.289 -2.2678 -0.9653  0.9655
 6137TIP3   OH239825   1.875   5.890  15.731  0.2289 -0.1628  0.2322
 6137TIP3    H139826   1.907   5.975  15.761  0.1409  0.3667 -1.1065
 6137TIP3    H239827   1.955   5.838  15.720  0.4662  0.4067 -0.8678
 6138TIP3   OH239828   2.423   2.074   1.154  0.5305 -0.9300 -0.1775
 6138TIP3    H139829   2.440   2.069   1.060 -1.5763 -0.9958 -0.6115
 6138TIP3    H239830   2.475   2.003   1.191  0.0417 -2.0458 -1.5247
 6139TIP3   OH239831   5.623   3.071   4.713  0.3167  0.0747 -0.3036
 6139TIP3    H139832   5.557   3.116   4.662 -1.1660 -0.7394  0.8186
 6139TIP3    H239833   5.651   3.135   4.779 -0.2917  0.0395  0.0001
 6140TIP3   OH239834   5.523   2.450   1.948  0.4658 -0.5699  0.6538
 6140TIP3    H139835   5.527   2.372   2.003 -1.9658 -0.3260  1.2788
 6140TIP3    H239836   5.511   2.416   1.859  2.7065 -0.9245  0.4411
 6141TIP3   OH239837   4.202   0.824   3.513  0.2251  0.7458  0.0470
 6141TIP3    H139838   4.173   0.735   3.492  1.8972  0.2128 -0.1725
 6141TIP3    H239839   4.228   0.818   3.605  4.0315 -0.1256 -0.9260
 6142TIP3   OH239840   6.523   6.465   0.727  1.0464 -0.0381  0.1329
 6142TIP3    H139841   6.491   6.434   0.812 -0.1152  0.8424  0.0434
 6142TIP3    H239842   6.553   6.554   0.744  0.1911  0.3847 -0.4897
 6143TIP3   OH239843   1.794   1.678   1.259  0.0274  0.6134 -0.2851
 6143TIP3    H139844   1.823   1.767   1.239 -0.3762  0.9276  0.5261
 6143TIP3    H239845   1.706   1.687   1.294 -0.0570 -0.1176 -0.2776
 6144TIP3   OH239846   3.230   3.408   4.514  0.2720 -0.5706 -0.3602
 6144TIP3    H139847   3.292   3.426   4.444 -1.4934 -0.8123 -2.0703
 6144TIP3    H239848   3.189   3.493   4.533 -2.2158 -1.1226 -2.6630
 6145TIP3   OH239849   4.853   0.258   1.929  0.0915 -0.1345  0.0750
 6145TIP3    H139850   4.765   0.289   1.908 -0.7675 -2.6716 -0.3344
 6145TIP3    H239851   4.874   0.302   2.012 -1.0705  1.3368 -0.3544
 6146TIP3   OH239852   3.104   4.470  10.453 -0.5751  0.3594  0.0888
 6146TIP3    H139853   3.016   4.489  10.485 -0.1553 -0.5551  1.9236
 6146TIP3    H239854   3.161   4.524  10.508  0.1842 -1.2794  0.9767
 6147TIP3   OH239855   0.353   3.573  11.400 -0.4263 -0.0621 -0.3689
 6147TIP3    H139856   0.290   3.576  11.471  0.3205  0.0870  0.3096
 6147TIP3    H239857   0.394   3.487  11.407  1.3587  0.8290  0.9468
 6148TIP3   OH239858   6.342   2.826   3.779  0.3147 -0.1833 -0.1565
 6148TIP3    H139859   6.378   2.837   3.867 -0.0054  0.4957 -0.1020
 6148TIP3    H239860   6.285   2.902   3.767 -0.4596 -0.8105 -0.5530
 6149TIP3   OH239861   1.315   6.386  14.321  0.1681 -0.0391  0.2750
 6149TIP3    H139862   1.326   6.407  14.228 -0.1171 -0.6633  0.0883
 6149TIP3    H239863   1.403   6.393  14.358 -0.0393  2.4261  0.4684
 6150TIP3   OH239864   5.648   2.543  15.255 -0.0636 -0.0995 -0.0942
 6150TIP3    H139865   5.659   2.523  15.348  0.0453  1.4857  0.2658
 6150TIP3    H239866   5.553   2.546  15.242 -0.0818  0.0439  0.0610
 6151TIP3   OH239867   1.434   1.903   4.765  0.4778  0.2736 -0.0383
 6151TIP3    H139868   1.432   1.922   4.671  0.7392  1.7418  0.2354
 6151TIP3    H239869   1.377   1.826   4.775  1.3740 -0.6254 -1.5411
 6152TIP3   OH239870   5.052   4.712   4.367  0.2000 -0.0318 -0.7175
 6152TIP3    H139871   5.073   4.801   4.341 -0.5905 -0.0037 -1.2897
 6152TIP3    H239872   4.957   4.713   4.382  0.0693 -0.9240 -1.3898
 6153TIP3   OH239873   1.338   6.713  12.387  0.0446 -0.0288 -0.3115
 6153TIP3    H139874   1.421   6.684  12.423  0.3120  1.2937  0.1673
 6153TIP3    H239875   1.360   6.791  12.335 -0.8828  0.3540 -0.1539
 6154TIP3   OH239876   1.611   0.316   5.872 -0.1392 -0.0574 -0.3447
 6154TIP3    H139877   1.533   0.272   5.905  0.0629 -0.2934 -0.1783
 6154TIP3    H239878   1.582   0.359   5.791 -0.5666  0.2967 -0.0056
 6155TIP3   OH239879   3.380   6.067  16.560  0.9601  0.2121 -0.0403
 6155TIP3    H139880   3.428   5.994  16.521 -1.5305 -1.4500 -0.1993
 6155TIP3    H239881   3.348   6.034  16.643  0.5537  1.4581  0.3240
 6156TIP3   OH239882   6.373   2.687   4.220  0.5142 -0.1886 -0.0326
 6156TIP3    H139883   6.351   2.773   4.184  0.2764  0.9735  2.6313
 6156TIP3    H239884   6.466   2.694   4.242  0.3304 -0.3362  0.8307
 6157TIP3   OH239885   6.375   3.113  14.422  0.4366 -0.1468  0.4047
 6157TIP3    H139886   6.355   3.057  14.346  0.5016 -0.1985  0.4251
 6157TIP3    H239887   6.418   3.054  14.484  0.2136 -0.1485  0.5602
 6158TIP3   OH239888   4.823   6.627   6.047  0.6105 -0.1366  0.2812
 6158TIP3    H139889   4.755   6.688   6.075  0.7370  0.8737 -1.4236
 6158TIP3    H239890   4.775   6.554   6.007  0.4834  0.2665 -0.3276
 6159TIP3   OH239891   1.262   1.196   1.841 -0.3696 -0.2269  0.0630
 6159TIP3    H139892   1.203   1.253   1.890  1.4373  0.9659  0.9565
 6159TIP3    H239893   1.330   1.173   1.904  2.5727  2.0926 -1.9953
 6160TIP3   OH239894   5.855   0.577  11.443 -0.0396  0.2090  0.2731
 6160TIP3    H139895   5.889   0.488  11.438 -0.1281  0.0747  1.7298
 6160TIP3    H239896   5.760   0.565  11.444 -0.0439  0.2970  0.8481
 6161TIP3   OH239897   4.771   1.278   4.881  0.6745  0.5725  0.1930
 6161TIP3    H139898   4.760   1.183   4.875  1.2343  0.4346  1.2000
 6161TIP3    H239899   4.685   1.311   4.907  0.6028  0.2983  0.3068
 6162TIP3   OH239900   1.615   6.324   0.491  0.9561 -1.2681 -0.1222
 6162TIP3    H139901   1.661   6.268   0.553  3.8707  1.6855  0.6674
 6162TIP3    H239902   1.603   6.407   0.538 -1.1562 -0.4555 -1.9245
 6163TIP3   OH239903   5.112   3.089   4.791 -0.4484  0.4884  0.2000
 6163TIP3    H139904   5.182   3.027   4.769  2.1661  3.3529 -0.2852
 6163TIP3    H239905   5.037   3.060   4.739  1.0360 -1.4658 -1.0048
 6164TIP3   OH239906   5.236   2.332   0.239 -0.2762  0.3563  0.2186
 6164TIP3    H139907   5.321   2.369   0.264 -0.4774  0.8533  0.1885
 6164TIP3    H239908   5.176   2.407   0.244 -0.6016  0.1302 -0.2968
 6165TIP3   OH239909   4.466   0.123   2.245  0.3475 -0.5064 -0.7165
 6165TIP3    H139910   4.431   0.128   2.334  0.8278 -1.3629 -0.4731
 6165TIP3    H239911   4.507   0.208   2.230  0.6154 -0.4972  0.0318
 6166TIP3   OH239912   5.832   3.370   1.230  0.7769  0.4368 -0.1273
 6166TIP3    H139913   5.907   3.316   1.256  1.2369  1.0664 -0.1373
 6166TIP3    H239914   5.792   3.321   1.158  1.2503  0.1516 -0.2048
 6167TIP3   OH239915   6.391   6.555   2.451  0.8154 -0.0641  0.0189
 6167TIP3    H139916   6.484   6.571   2.432  0.4648  0.2058 -1.6157
 6167TIP3    H239917   6.361   6.636   2.492  0.1186  2.0308 -4.1699
 6168TIP3   OH239918   5.330   0.156  11.358 -0.4380  0.6847 -0.2212
 6168TIP3    H139919   5.293   0.079  11.314  0.9092  0.0020 -0.2031
 6168TIP3    H239920   5.417   0.128  11.386 -0.3113  1.9085  0.6820
 6169TIP3   OH239921   3.391   6.616   5.515 -0.2117  0.0229 -0.2430
 6169TIP3    H139922   3.453   6.586   5.581  1.7985  0.9763 -1.6254
 6169TIP3    H239923   3.428   6.589   5.431 -2.8932 -1.4805 -1.0501
 6170TIP3   OH239924   6.723   6.683  13.678 -0.0396 -0.0083 -0.1814
 6170TIP3    H139925   6.738   6.685  13.583  0.8470 -0.6076 -0.0621
 6170TIP3    H239926   6.785   6.746  13.714  0.1310 -0.3133  0.0642
 6171TIP3   OH239927   6.248   3.787  11.346  0.1647 -0.2579 -0.2750
 6171TIP3    H139928   6.330   3.804  11.301  1.1282 -0.2580  1.4001
 6171TIP3    H239929   6.264   3.707  11.397 -0.6776  0.0206  0.4631
 6172TIP3   OH239930   6.564   0.834  13.960  0.0231  0.1326  0.2214
 6172TIP3    H139931   6.643   0.885  13.980 -0.6121  0.4225  2.2243
 6172TIP3    H239932   6.510   0.893  13.907  1.2493 -0.2017 -1.4873
 6173TIP3   OH239933   5.185   6.652  14.671  0.5881 -0.0715  0.2180
 6173TIP3    H139934   5.160   6.741  14.645 -2.7013 -0.9146  0.0474
 6173TIP3    H239935   5.140   6.638  14.755  0.3701 -1.8055 -0.1473
 6174TIP3   OH239936   0.720   3.311  12.664  0.1562 -0.2868  0.1588
 6174TIP3    H139937   0.639   3.279  12.626 -0.3919 -0.6339  1.5690
 6174TIP3    H239938   0.784   3.304  12.593 -0.7016 -1.4168 -0.5401
 6175TIP3   OH239939   1.051   6.075  16.680  0.3861  0.1172 -0.0893
 6175TIP3    H139940   1.104   6.117  16.747 -0.3557  0.6472  0.1756
 6175TIP3    H239941   0.960   6.096  16.703  0.0227 -1.0834 -0.3121
 6176TIP3   OH239942   2.691   6.388   2.397 -0.1599 -0.0669  0.4469
 6176TIP3    H139943   2.760   6.353   2.453 -1.3392 -0.5236  1.6599
 6176TIP3    H239944   2.738   6.436   2.329  1.3623  2.6395  3.1362
 6177TIP3   OH239945   4.282   5.757   6.085  0.6022 -0.5657  0.3783
 6177TIP3    H139946   4.218   5.797   6.145  0.4401 -1.1205  0.5744
 6177TIP3    H239947   4.236   5.757   6.000  0.6609 -0.2015  0.3415
 6178TIP3   OH239948   4.169   4.904   5.120  0.2520  0.1943 -0.1759
 6178TIP3    H139949   4.119   4.824   5.102 -0.7472  1.2065 -2.3130
 6178TIP3    H239950   4.103   4.973   5.126  1.2542  1.3154 -1.4472
 6179TIP3   OH239951   3.250   3.562   1.825 -0.7308  0.3174 -0.0679
 6179TIP3    H139952   3.290   3.631   1.772 -0.8030  0.1121 -0.3913
 6179TIP3    H239953   3.316   3.543   1.892  0.0096 -0.4723 -0.9767
 6180TIP3   OH239954   4.113   0.941   2.474  0.1638  0.4006 -0.2635
 6180TIP3    H139955   4.042   1.005   2.479 -1.4438 -1.3765  1.8251
 6180TIP3    H239956   4.163   0.965   2.396 -1.8421  2.6358 -0.9471
 6181TIP3   OH239957   0.859   0.540  15.736  0.1546  0.1160  0.2633
 6181TIP3    H139958   0.935   0.511  15.786 -0.0009 -0.1146  0.3700
 6181TIP3    H239959   0.798   0.572  15.802 -0.3768 -0.9250  0.3079
 6182TIP3   OH239960   2.970   0.896   4.016  0.2649 -0.1964 -0.4344
 6182TIP3    H139961   2.901   0.882   3.952  0.1426  0.9643 -0.5848
 6182TIP3    H239962   3.013   0.977   3.988  0.4851  0.0989  0.6832
 6183TIP3   OH239963   6.043   3.139   4.851  0.7050  0.1403  0.5243
 6183TIP3    H139964   6.123   3.152   4.799  0.1771  1.8757  0.0692
 6183TIP3    H239965   6.016   3.049   4.831  4.0654 -1.6071  2.9602
 6184TIP3   OH239966   5.514   2.673  14.887 -0.1045  0.7651  0.2167
 6184TIP3    H139967   5.481   2.593  14.928 -1.3513  1.9228  1.6556
 6184TIP3    H239968   5.508   2.657  14.793 -0.0874 -0.8978  0.4680
 6185TIP3   OH239969   3.741   3.549  17.339 -0.4511  0.2570  0.2209
 6185TIP3    H139970   3.798   3.474  17.324 -0.1170 -0.0259  2.5413
 6185TIP3    H239971   3.684   3.522  17.411 -0.6680  2.0140  0.7531
 6186TIP3   OH239972   3.849   6.137   2.264 -0.2902  0.0775 -0.5991
 6186TIP3    H139973   3.901   6.165   2.339 -1.5674 -0.8430  0.6934
 6186TIP3    H239974   3.911   6.094   2.206  0.8780  1.5416 -0.4962
 6187TIP3   OH239975   4.169   4.112  15.135  0.1908 -0.3022  0.4809
 6187TIP3    H139976   4.248   4.166  15.139  0.7884 -1.2222  1.4446
 6187TIP3    H239977   4.154   4.084  15.225 -1.2055 -0.1972  0.3024
 6188TIP3   OH239978   5.277   2.264   4.209 -0.0395  0.6265 -0.3243
 6188TIP3    H139979   5.373   2.261   4.203 -0.0971 -1.2926 -0.9566
 6188TIP3    H239980   5.249   2.288   4.121 -0.1789 -0.8901 -0.7077
 6189TIP3   OH239981   5.065   3.334  15.125  0.1997 -0.3634 -0.5527
 6189TIP3    H139982   5.052   3.311  15.033  3.2154  0.3702 -1.2940
 6189TIP3    H239983   5.022   3.419  15.135 -1.5435 -1.1787 -0.7878
 6190TIP3   OH239984   6.304   5.783   5.226  0.5338  0.3974 -0.0825
 6190TIP3    H139985   6.346   5.868   5.226 -2.1440  1.8295 -0.0192
 6190TIP3    H239986   6.265   5.774   5.313 -1.3819  0.3384 -0.8821
 6191TIP3   OH239987   4.089   5.897  13.970 -0.1036 -0.1319  0.7614
 6191TIP3    H139988   4.147   5.938  14.034 -0.5870  1.5275  0.2021
 6191TIP3    H239989   4.146   5.872  13.898 -0.1719  3.0184 -0.5412
 6192TIP3   OH239990   6.739   1.340  16.268  0.3316 -1.0600  0.4723
 6192TIP3    H139991   6.696   1.424  16.285  0.6071 -0.6125 -0.8915
 6192TIP3    H239992   6.828   1.364  16.241  0.2241 -1.7499 -0.5309
 6193TIP3   OH239993   6.724   2.332   4.753  0.2007 -0.1185  0.0730
 6193TIP3    H139994   6.716   2.252   4.805 -1.4029 -0.7132 -0.9795
 6193TIP3    H239995   6.727   2.301   4.662  1.2775  0.9542 -0.2818
 6194TIP3   OH239996   0.486   5.334   4.416  0.8549  0.8906  0.2074
 6194TIP3    H139997   0.529   5.375   4.491 -0.1236  0.1901  1.1855
 6194TIP3    H239998   0.518   5.244   4.416  0.0750  0.6047  0.4161
 6195TIP3   OH239999   1.874   2.003   4.827 -0.1774 -0.3228  0.4506
 6195TIP3    H140000   1.826   1.922   4.814 -0.4858  0.0956 -1.1176
 6195TIP3    H240001   1.895   2.034   4.739 -0.2414  1.4070  1.0009
 6196TIP3   OH240002   6.142   1.240   4.909 -0.5047  0.1213  0.2420
 6196TIP3    H140003   6.175   1.172   4.967 -1.5332 -1.2374 -0.6962
 6196TIP3    H240004   6.199   1.236   4.832  0.3876  1.4024  0.8042
 6197TIP3   OH240005   6.586   1.927  16.695  0.4215  0.8417  0.0898
 6197TIP3    H140006   6.564   1.842  16.734  0.8002  1.3750  1.5407
 6197TIP3    H240007   6.667   1.911  16.647 -0.8929 -0.2040 -1.9421
 6198TIP3   OH240008   2.957   4.013   4.419  0.0884 -0.5884  0.4713
 6198TIP3    H140009   2.938   3.987   4.329  0.0967 -1.8862  0.8133
 6198TIP3    H240010   2.971   3.930   4.465  2.4672  0.0953  1.1589
 6199TIP3   OH240011   3.806   6.623   4.341  0.2655  0.3659  0.1893
 6199TIP3    H140012   3.807   6.711   4.305 -0.4024  1.3579  2.4480
 6199TIP3    H240013   3.727   6.583   4.303  0.9754  0.4316 -1.4281
 6200TIP3   OH240014   2.324   4.539  16.840 -0.2695 -0.7929  0.1726
 6200TIP3    H140015   2.272   4.465  16.870 -1.3256  0.6035  2.0055
 6200TIP3    H240016   2.293   4.556  16.751 -1.2650 -1.4492  0.3789
 6201TIP3   OH240017   1.395   0.324  16.338 -0.4679  0.0494 -0.3943
 6201TIP3    H140018   1.476   0.372  16.354 -1.0662  0.9733 -0.0885
 6201TIP3    H240019   1.407   0.242  16.386  1.2504 -0.8899 -2.2849
 6202TIP3   OH240020   3.527   0.712  13.500 -0.3409 -0.3290 -0.2271
 6202TIP3    H140021   3.581   0.683  13.574 -1.4213 -1.0033  0.3215
 6202TIP3    H240022   3.480   0.789  13.533 -0.4286 -0.3161 -0.3836
 6203TIP3   OH240023   5.344   5.964   5.616  1.3354  0.4923 -0.2768
 6203TIP3    H140024   5.342   6.057   5.591  2.1094  0.3594 -0.8795
 6203TIP3    H240025   5.319   5.917   5.537  0.6148  0.1859  0.1195
 6204TIP3   OH240026   5.869   5.865  11.372  0.2143  0.2523  0.1092
 6204TIP3    H140027   5.937   5.807  11.339  1.5023  1.0593  1.2289
 6204TIP3    H240028   5.792   5.844  11.320  1.2003 -0.9848 -0.9159
 6205TIP3   OH240029   5.081   4.425   3.546 -0.0920  0.2178 -0.2103
 6205TIP3    H140030   5.163   4.465   3.576  0.5901 -1.7167  0.7098
 6205TIP3    H240031   5.105   4.376   3.467 -0.8815  1.4487 -1.2494
 6206TIP3   OH240032   4.616   2.178   0.400 -0.3116 -0.7429  0.6504
 6206TIP3    H140033   4.534   2.220   0.425 -0.3954 -0.0192 -0.7299
 6206TIP3    H240034   4.674   2.191   0.475 -1.0112 -0.0364  1.0830
 6207TIP3   OH240035   6.639   4.948  12.666 -0.1539  0.5856  1.1572
 6207TIP3    H140036   6.603   4.986  12.745  1.8088  3.4693  0.8105
 6207TIP3    H240037   6.659   4.857  12.689 -2.9218  0.2949  2.7676
 6208TIP3   OH240038   3.919   4.589   2.575 -0.5581  0.7633 -0.4211
 6208TIP3    H140039   3.922   4.565   2.668 -0.1254  1.6269 -0.2014
 6208TIP3    H240040   3.979   4.664   2.568  0.3268 -0.0227 -1.6201
 6209TIP3   OH240041   3.316   4.043   0.127  0.9023 -0.7787 -0.2885
 6209TIP3    H140042   3.253   4.086   0.183  0.6032  0.0627 -1.2334
 6209TIP3    H240043   3.400   4.084   0.148  0.5361  0.7733 -1.5865
 6210TIP3   OH240044   1.485   6.649   1.281  0.8266  0.6029 -0.0115
 6210TIP3    H140045   1.510   6.565   1.321  2.2430  1.4719  1.0266
 6210TIP3    H240046   1.413   6.680   1.335 -0.7421 -0.6071 -1.3156
 6211TIP3   OH240047   2.871   4.789  12.324  0.0192 -0.1737 -0.0955
 6211TIP3    H140048   2.900   4.709  12.369  0.9591 -0.5493 -1.2998
 6211TIP3    H240049   2.809   4.757  12.259 -0.6493  0.2561  0.3226
 6212TIP3   OH240050   5.719   5.860   1.395  0.6450 -0.1602  0.6765
 6212TIP3    H140051   5.735   5.810   1.474  0.6908  1.0815  1.4814
 6212TIP3    H240052   5.685   5.796   1.332  0.1712 -1.0835  1.8389
 6213TIP3   OH240053   5.773   2.503  14.350  0.4307  0.3173 -0.3557
 6213TIP3    H140054   5.846   2.560  14.373 -0.3420  0.5555  1.6556
 6213TIP3    H240055   5.709   2.561  14.309  0.9529  0.2729 -1.2690
 6214TIP3   OH240056   3.475   1.986  14.039  0.0446 -0.2737 -0.5324
 6214TIP3    H140057   3.463   1.980  14.134 -1.3011  1.1917 -0.5704
 6214TIP3    H240058   3.432   2.068  14.015  0.4931 -0.5526 -2.4045
 6215TIP3   OH240059   1.476   2.276  17.195  0.1661 -0.2000 -0.0912
 6215TIP3    H140060   1.444   2.281  17.285  1.4422 -0.0966  0.3822
 6215TIP3    H240061   1.517   2.361  17.180 -1.7095  0.5053 -1.4594
 6216TIP3   OH240062   1.355   6.514  12.050  0.2288 -0.3578 -0.0290
 6216TIP3    H140063   1.260   6.505  12.056 -0.0736  1.1670 -1.6872
 6216TIP3    H240064   1.388   6.482  12.134 -1.7598 -0.6573  0.6822
 6217TIP3   OH240065   6.096   4.631  15.894  0.0913 -0.4993 -0.2607
 6217TIP3    H140066   6.132   4.666  15.975  0.3064 -1.0732 -0.1003
 6217TIP3    H240067   6.157   4.562  15.869 -1.5325 -2.4092  0.7381
 6218TIP3   OH240068   0.984   1.273   0.230  0.3253 -0.4431 -0.5204
 6218TIP3    H140069   1.062   1.234   0.270  0.7367 -0.1643 -1.0477
 6218TIP3    H240070   1.018   1.335   0.166 -0.3157  0.6617  0.1695
 6219TIP3   OH240071   6.616   4.739   4.538 -0.7329  0.0129 -0.1947
 6219TIP3    H140072   6.605   4.644   4.540 -0.1681 -0.0533 -0.1180
 6219TIP3    H240073   6.700   4.753   4.496 -0.3979  0.4436  0.5890
 6220TIP3   OH240074   2.881   3.930   1.235  0.0638 -0.9586 -0.1659
 6220TIP3    H140075   2.931   4.004   1.270  0.9096 -2.2182  1.4034
 6220TIP3    H240076   2.910   3.921   1.144  0.2734  0.3390 -0.2417
 6221TIP3   OH240077   2.679   2.780  16.882  0.0652 -0.5676  0.3409
 6221TIP3    H140078   2.754   2.840  16.885 -0.6937  0.4150  0.0843
 6221TIP3    H240079   2.718   2.694  16.868  1.1809 -0.1373  0.7168
 6222TIP3   OH240080   3.285   5.734   1.733  0.0548  0.2619  0.2538
 6222TIP3    H140081   3.203   5.781   1.718  0.9150  1.5981 -0.4652
 6222TIP3    H240082   3.260   5.657   1.783 -1.8119  0.0385 -0.9236
 6223TIP3   OH240083   6.634   0.084  17.011  0.0840 -0.3070  0.2805
 6223TIP3    H140084   6.581   0.163  17.027 -0.8225 -1.0542  1.1134
 6223TIP3    H240085   6.570   0.014  17.002  0.7080 -0.5699 -3.3060
 6224TIP3   OH240086   0.426   0.110   2.769 -0.0826  0.4933 -0.0993
 6224TIP3    H140087   0.430   0.022   2.731  1.3141  0.7214 -0.5489
 6224TIP3    H240088   0.385   0.164   2.701  0.2814  0.4429 -0.3616
 6225TIP3   OH240089   5.327   2.628  10.708 -0.5011  0.0190  0.1723
 6225TIP3    H140090   5.266   2.558  10.685  0.1299 -1.1602  1.8947
 6225TIP3    H240091   5.408   2.583  10.732 -0.0315  1.3372  1.2196
 6226TIP3   OH240092   0.854   2.483   4.183 -0.8735  0.0156 -0.4775
 6226TIP3    H140093   0.843   2.473   4.089 -1.8264 -0.8787 -0.2792
 6226TIP3    H240094   0.892   2.571   4.193 -1.0411  0.2405 -1.6624
 6227TIP3   OH240095   1.496   2.417   5.313  0.2633  0.1004  0.0061
 6227TIP3    H140096   1.497   2.329   5.352 -0.9976  1.0992  2.5871
 6227TIP3    H240097   1.467   2.403   5.223  0.2008 -2.1383  0.3130
 6228TIP3   OH240098   5.895   4.878  15.852 -0.1128  0.1702 -0.1605
 6228TIP3    H140099   5.966   4.837  15.802  0.5631 -0.6028  1.3472
 6228TIP3    H240100   5.920   4.971  15.857  0.0975  0.1477 -0.7708
 6229TIP3   OH240101   3.145   3.957   0.450 -0.1957 -0.1890 -0.0635
 6229TIP3    H140102   3.221   4.003   0.487 -1.0693  0.4034  1.0593
 6229TIP3    H240103   3.160   3.865   0.472 -0.3644  0.0686  1.2461
 6230TIP3   OH240104   0.950   3.582  13.787 -0.3889  0.0642  0.3604
 6230TIP3    H140105   1.021   3.644  13.805  2.1897 -2.1910 -1.1931
 6230TIP3    H240106   0.877   3.636  13.757  0.6325  2.5098  1.9267
 6231TIP3   OH240107   5.260   3.541  11.810 -0.4682  0.3763 -0.2473
 6231TIP3    H140108   5.211   3.618  11.783  0.4420  0.9324 -0.3297
 6231TIP3    H240109   5.213   3.468  11.769 -0.2000  1.0419 -1.8280
 6232TIP3   OH240110   3.605   3.996  14.960 -0.3070  0.4081 -0.0579
 6232TIP3    H140111   3.526   3.989  14.906  0.4422 -1.4846 -0.9855
 6232TIP3    H240112   3.573   3.985  15.050 -1.1382  0.0003 -0.3932
 6233TIP3   OH240113   1.750   2.693   2.503  0.0810  0.1401 -0.9140
 6233TIP3    H140114   1.835   2.667   2.467 -0.4503 -1.1522 -1.3010
 6233TIP3    H240115   1.731   2.777   2.461  0.9344  0.1991 -1.2003
 6234TIP3   OH240116   2.481   1.636   2.733 -0.0659 -0.4045  0.6093
 6234TIP3    H140117   2.545   1.581   2.688  1.3640  1.2444  0.5086
 6234TIP3    H240118   2.483   1.606   2.824  1.7311  0.3352  0.8537
 6235TIP3   OH240119   0.706   1.152   6.083 -0.3153 -0.0724 -0.2546
 6235TIP3    H140120   0.753   1.196   6.012  3.7084 -2.3765  0.6815
 6235TIP3    H240121   0.752   1.179   6.162 -1.3729 -1.5356  0.9146
 6236TIP3   OH240122   0.360   5.295   0.551 -0.3062  0.6274  0.2427
 6236TIP3    H140123   0.301   5.221   0.565 -0.9737  1.4424  2.0182
 6236TIP3    H240124   0.308   5.358   0.499 -1.1583  1.4412  1.9936
 6237TIP3   OH240125   4.232   4.486   6.036  0.2578 -0.2956  0.1739
 6237TIP3    H140126   4.322   4.463   6.012  0.0654 -1.0757  0.1844
 6237TIP3    H240127   4.242   4.544   6.112  0.7174 -1.7324  1.2697
 6238TIP3   OH240128   2.399   3.015   1.740 -0.4373  0.6425  0.0534
 6238TIP3    H140129   2.399   2.949   1.809 -0.0274  1.2022  0.5977
 6238TIP3    H240130   2.331   3.078   1.766 -1.5390 -0.0633 -0.9742
 6239TIP3   OH240131   1.645   1.933  14.265  0.1490 -0.4303 -0.0214
 6239TIP3    H140132   1.661   2.025  14.286  2.2250 -0.7039 -0.1689
 6239TIP3    H240133   1.721   1.907  14.212 -0.0408 -2.4197  0.6020
 6240TIP3   OH240134   6.103   6.532  13.751  0.4230 -0.0060 -0.0168
 6240TIP3    H140135   6.150   6.615  13.746 -0.3930  0.4296 -0.8849
 6240TIP3    H240136   6.040   6.543  13.823 -1.0324  0.8935 -1.3528
 6241TIP3   OH240137   2.022   3.568  11.405  0.5479  0.1376 -0.3473
 6241TIP3    H140138   2.061   3.498  11.353  0.3360  0.1574 -0.5320
 6241TIP3    H240139   2.052   3.649  11.364 -0.1907  0.1542 -0.8687
 6242TIP3   OH240140   3.134   4.418  10.979 -0.0632 -0.5250 -0.3644
 6242TIP3    H140141   3.229   4.429  10.978 -0.1613  0.4529 -2.0176
 6242TIP3    H240142   3.119   4.354  11.048  1.7052  0.0552  0.6242
 6243TIP3   OH240143   6.051   3.677   3.800 -0.2332  0.4521 -0.2294
 6243TIP3    H140144   6.099   3.594   3.809 -3.0997 -1.2971 -0.0146
 6243TIP3    H240145   6.042   3.709   3.890  0.3826  0.7450 -0.2627
 6244TIP3   OH240146   5.942   0.432   0.680 -0.6120 -0.2476 -0.1503
 6244TIP3    H140147   6.021   0.470   0.718 -0.3732 -0.5917 -0.3034
 6244TIP3    H240148   5.909   0.501   0.622  0.3956 -0.6422 -1.2312
 6245TIP3   OH240149   5.435   6.154   0.023 -0.3261 -0.3176 -0.2413
 6245TIP3    H140150   5.363   6.119  -0.030  0.2269 -0.7532 -0.7141
 6245TIP3    H240151   5.448   6.089   0.092 -0.3383 -0.2728 -0.1968
 6246TIP3   OH240152   1.664   2.320   3.842  0.1168 -0.1700 -0.3851
 6246TIP3    H140153   1.634   2.358   3.759  2.9814  0.7695 -1.1045
 6246TIP3    H240154   1.608   2.360   3.908  0.3250  2.1770 -1.5382
 6247TIP3   OH240155   4.736   5.741  11.913  0.4208 -0.1657  0.1356
 6247TIP3    H140156   4.690   5.724  11.996  0.5820 -0.3822  0.1843
 6247TIP3    H240157   4.667   5.762  11.851  0.2373 -0.6564  0.1676
 6248TIP3   OH240158   5.998   5.821   1.261  0.6141  0.3039  0.2660
 6248TIP3    H140159   6.037   5.781   1.339 -0.0410  0.6327  0.7739
 6248TIP3    H240160   5.931   5.880   1.295  0.0476  0.1603 -0.5644
 6249TIP3   OH240161   2.298   0.185  13.352  0.2868 -0.4597 -0.3748
 6249TIP3    H140162   2.228   0.119  13.349 -0.3559  0.1419  0.9728
 6249TIP3    H240163   2.342   0.176  13.267 -1.2545 -1.0221 -1.1454
 6250TIP3   OH240164   5.725   4.561   4.631 -0.3213  0.1165 -0.0002
 6250TIP3    H140165   5.693   4.532   4.716 -0.7839 -2.4072 -0.9513
 6250TIP3    H240166   5.655   4.539   4.569 -0.2686  2.4656 -1.0289
 6251TIP3   OH240167   1.792   3.359  16.494  0.1342 -0.6647  0.3426
 6251TIP3    H140168   1.799   3.433  16.554 -0.8227 -1.9374  2.1317
 6251TIP3    H240169   1.763   3.286  16.549  1.4133 -2.4930 -1.2523
 6252TIP3   OH240170   4.060   3.499  14.516  0.0902 -0.5764  0.5583
 6252TIP3    H140171   4.054   3.587  14.552  1.6944  0.3169 -1.2030
 6252TIP3    H240172   4.106   3.448  14.583  2.3825  0.8639  0.1763
 6253TIP3   OH240173   1.719   1.500  13.371  0.4216 -0.0406  0.3617
 6253TIP3    H140174   1.759   1.467  13.290 -1.6349 -0.4173 -0.5827
 6253TIP3    H240175   1.755   1.445  13.440  0.7896 -0.9899 -0.5617
 6254TIP3   OH240176   3.252   2.878  13.463  0.1445  0.6296 -0.2600
 6254TIP3    H140177   3.180   2.829  13.423  1.0542 -0.6843 -0.3591
 6254TIP3    H240178   3.329   2.851  13.414  0.9676  0.6407  0.9994
 6255TIP3   OH240179   2.854   0.806   0.283 -0.3092 -0.2390 -0.0892
 6255TIP3    H140180   2.853   0.785   0.190  0.8820 -3.9525  0.5464
 6255TIP3    H240181   2.884   0.896   0.287 -1.8301  0.5442 -3.2882
 6256TIP3   OH240182   3.281   6.064   5.029 -0.0908  0.2334  0.1033
 6256TIP3    H140183   3.353   6.003   5.039 -0.9880 -1.1436 -1.4133
 6256TIP3    H240184   3.234   6.059   5.113  1.4365  1.0585  1.0611
 6257TIP3   OH240185   4.885   5.631   5.083 -0.1018  0.3374  0.0492
 6257TIP3    H140186   4.857   5.668   5.000  0.3797  1.0495  0.1954
 6257TIP3    H240187   4.841   5.684   5.149  0.8324  0.8496  0.2655
 6258TIP3   OH240188   0.316   4.129  16.477  0.2239  0.3806 -0.1979
 6258TIP3    H140189   0.277   4.173  16.401 -0.5531 -1.5544 -0.9650
 6258TIP3    H240190   0.249   4.070  16.508  1.2603 -0.3270  0.7660
 6259TIP3   OH240191   5.602   2.476  15.661  0.4519 -0.2441 -0.3005
 6259TIP3    H140192   5.550   2.429  15.725 -0.8542  2.6592  0.9591
 6259TIP3    H240193   5.539   2.526  15.610  1.7888  1.0881 -0.7308
 6260TIP3   OH240194   1.656   5.324   3.217  0.3895  0.4829 -0.2251
 6260TIP3    H140195   1.636   5.359   3.305 -0.8667 -0.2389 -0.2006
 6260TIP3    H240196   1.750   5.307   3.219  0.2148 -0.5021  1.3609
 6261TIP3   OH240197   0.825   5.265  12.053  0.1986  0.0501  0.0247
 6261TIP3    H140198   0.767   5.319  12.107 -0.6041  1.0158 -1.7409
 6261TIP3    H240199   0.766   5.218  11.994  1.0281 -1.3194  0.2451
 6262TIP3   OH240200   0.898   2.557   3.892 -0.1938  0.0212 -0.0054
 6262TIP3    H140201   0.955   2.479   3.886 -2.3845 -1.6100 -0.8869
 6262TIP3    H240202   0.919   2.606   3.813 -0.0286 -0.5774 -0.3461
 6263TIP3   OH240203   5.106   3.068   0.607  0.3862 -0.4178 -0.4586
 6263TIP3    H140204   5.050   3.049   0.532 -1.5346  0.2113  0.7664
 6263TIP3    H240205   5.169   3.133   0.574  0.8925 -1.6441 -2.0341
 6264TIP3   OH240206   3.089   2.851   4.540  0.8131 -0.1289  0.0380
 6264TIP3    H140207   2.995   2.832   4.548  0.4004  0.3482 -2.8508
 6264TIP3    H240208   3.131   2.768   4.560 -0.3593 -0.9438 -0.7305
 6265TIP3   OH240209   6.181   2.530   2.213 -0.1612  0.4233 -0.2981
 6265TIP3    H140210   6.223   2.477   2.280  0.7829 -0.1348 -1.2993
 6265TIP3    H240211   6.196   2.620   2.241 -0.3716  0.1979  0.5785
 6266TIP3   OH240212   1.989   6.457   0.914  0.2543 -0.1627  0.2415
 6266TIP3    H140213   2.033   6.452   0.998  0.1442 -1.1940  0.2574
 6266TIP3    H240214   1.965   6.366   0.894  1.2784 -0.1147 -1.4333
 6267TIP3   OH240215   0.937   2.295   4.776  0.2593 -0.2661  0.5732
 6267TIP3    H140216   0.934   2.349   4.855  0.4218 -1.2733  1.2886
 6267TIP3    H240217   0.848   2.298   4.741  0.3528  0.7566  0.3781
 6268TIP3   OH240218   1.201   2.159   0.443  0.4990  0.0362 -0.1620
 6268TIP3    H140219   1.155   2.076   0.434 -0.2453  0.6409 -2.6206
 6268TIP3    H240220   1.236   2.177   0.356 -0.5186  2.9297 -0.0850
 6269TIP3   OH240221   1.529   5.855   1.027 -0.5780  0.9682  1.3493
 6269TIP3    H140222   1.540   5.783   0.964  0.5829  0.0916  2.4832
 6269TIP3    H240223   1.473   5.819   1.095  0.9959  0.6439  2.5470
 6270TIP3   OH240224   6.550   1.107   6.453 -0.4353 -0.1390  0.0978
 6270TIP3    H140225   6.622   1.089   6.513 -1.9766  0.5662  2.2802
 6270TIP3    H240226   6.508   1.185   6.490 -1.7784 -0.0051 -1.6209
 6271TIP3   OH240227   5.064   2.491  10.979  0.1485  0.2191  0.4274
 6271TIP3    H140228   5.129   2.440  11.027  0.8720  0.3162 -0.4151
 6271TIP3    H240229   4.984   2.440  10.986  0.1917  0.3168  1.8580
 6272TIP3   OH240230   5.547   2.722  13.764  0.3053  0.1434 -0.3604
 6272TIP3    H140231   5.627   2.680  13.796 -0.5952 -0.9365  0.5730
 6272TIP3    H240232   5.573   2.812  13.746  1.4368  0.1907  1.2274
 6273TIP3   OH240233   5.728   3.836  17.153 -0.5201 -0.6504 -0.6299
 6273TIP3    H140234   5.640   3.858  17.123  0.6436  2.2757 -2.3088
 6273TIP3    H240235   5.782   3.837  17.074  1.3650 -0.4084  0.5929
 6274TIP3   OH240236   1.239   1.455  13.188 -0.3089  0.6096 -0.2241
 6274TIP3    H140237   1.306   1.517  13.217 -1.5567  2.3726 -0.9444
 6274TIP3    H240238   1.180   1.447  13.263 -0.1448  0.2656 -0.1282
 6275TIP3   OH240239   5.874   4.955  14.577  0.2120  0.1757  0.1476
 6275TIP3    H140240   5.930   5.025  14.543 -1.0528  1.4361  0.5847
 6275TIP3    H240241   5.843   4.987  14.662 -0.2759 -0.9778  0.4231
 6276TIP3   OH240242   4.336   0.792  16.419  0.1055  0.2686  0.0609
 6276TIP3    H140243   4.289   0.709  16.421 -1.4894  1.0102 -1.9452
 6276TIP3    H240244   4.307   0.838  16.498 -1.8439  0.2671 -0.5817
 6277TIP3   OH240245   2.085   5.612  16.912 -0.0495 -0.1546  0.0904
 6277TIP3    H140246   2.105   5.706  16.909 -0.3259 -0.0125  1.6399
 6277TIP3    H240247   2.018   5.600  16.845 -0.0686  0.7755 -0.0769
 6278TIP3   OH240248   5.660   0.027  12.630 -0.2586 -0.0423 -0.7884
 6278TIP3    H140249   5.568   0.011  12.607  0.5430 -2.8426 -2.5274
 6278TIP3    H240250   5.695   0.078  12.557 -0.1533 -0.0033 -0.7110
 6279TIP3   OH240251   2.530   3.587  14.870 -0.1567  0.4232 -0.3539
 6279TIP3    H140252   2.476   3.665  14.880  2.3434  2.1784  0.8022
 6279TIP3    H240253   2.614   3.620  14.839  1.3465 -1.6240  1.1808
 6280TIP3   OH240254   1.027   5.767   0.170 -0.2577 -0.2820  0.4766
 6280TIP3    H140255   0.932   5.758   0.177 -0.1645 -0.2358  2.2811
 6280TIP3    H240256   1.062   5.707   0.237  0.8089  2.7624  2.9094
 6281TIP3   OH240257   3.136   4.491  14.778  0.0889  0.5624 -0.4856
 6281TIP3    H140258   3.202   4.547  14.736 -1.0026  1.1957 -1.4071
 6281TIP3    H240259   3.055   4.512  14.733 -0.5415 -1.0705 -0.1682
 6282TIP3   OH240260   2.899   1.677   5.615 -0.4645  0.2467 -0.5001
 6282TIP3    H140261   2.964   1.636   5.672 -0.8555  2.9817  2.2006
 6282TIP3    H240262   2.944   1.753   5.578 -1.2063  0.3506 -1.2107
 6283TIP3   OH240263   2.907   5.279   4.753 -0.3165 -0.4711  0.5386
 6283TIP3    H140264   2.940   5.348   4.810 -0.6688 -0.5811  0.8827
 6283TIP3    H240265   2.914   5.315   4.665  0.7748 -0.5200  0.6006
 6284TIP3   OH240266   2.146   2.729   1.056  0.0999  0.5016 -1.0250
 6284TIP3    H140267   2.147   2.657   0.993  1.0871 -0.3114 -0.1108
 6284TIP3    H240268   2.065   2.716   1.105  0.6818 -0.5087 -0.3008
 6285TIP3   OH240269   2.883   1.149  12.166  0.5131  0.3396 -0.0241
 6285TIP3    H140270   2.858   1.208  12.094  1.0454 -0.5302 -0.9385
 6285TIP3    H240271   2.978   1.149  12.165  0.5428  0.6271  0.9706
 6286TIP3   OH240272   6.620   3.865   4.306  0.3865 -0.0539  0.0512
 6286TIP3    H140273   6.667   3.812   4.372  1.3585  1.3529  0.5406
 6286TIP3    H240274   6.680   3.868   4.231  0.9241  1.3546  0.5004
 6287TIP3   OH240275   6.539   1.159   0.432  0.6421  0.3093  0.4054
 6287TIP3    H140276   6.626   1.142   0.467  0.1355  0.7343  1.9574
 6287TIP3    H240277   6.514   1.244   0.470 -0.6215 -0.0227  0.3727
 6288TIP3   OH240278   3.938   1.383  14.959 -0.2572  0.0326 -0.5138
 6288TIP3    H140279   3.962   1.331  14.882  0.0220  0.4161 -0.6891
 6288TIP3    H240280   3.920   1.470  14.924 -1.7080 -0.1895 -0.3608
 6289TIP3   OH240281   1.737   4.091   3.689 -0.2113 -0.4391  0.0644
 6289TIP3    H140282   1.784   4.164   3.650  0.4965 -0.6791  0.4578
 6289TIP3    H240283   1.685   4.055   3.617 -0.8329  0.6539 -0.0523
 6290TIP3   OH240284   3.861   4.283  14.446  0.3443 -0.4733 -0.5468
 6290TIP3    H140285   3.805   4.229  14.390 -0.1422 -0.5422 -0.0067
 6290TIP3    H240286   3.944   4.289  14.399  0.2385 -1.2786 -0.8436
 6291TIP3   OH240287   1.334   0.230  10.926 -0.3056 -0.8162  0.0148
 6291TIP3    H140288   1.341   0.326  10.919  3.1542 -0.5744  3.3966
 6291TIP3    H240289   1.240   0.213  10.928 -1.0898  2.7962  1.3870
 6292TIP3   OH240290   4.367   4.825   0.729 -0.1335  0.4788 -0.3705
 6292TIP3    H140291   4.357   4.914   0.763  2.3985  0.1591  1.5286
 6292TIP3    H240292   4.327   4.770   0.796  1.3253  0.0706  0.2207
 6293TIP3   OH240293   2.631   3.306   3.850 -0.3742  0.1797 -0.1327
 6293TIP3    H140294   2.627   3.384   3.906  1.2980  0.2218 -0.0087
 6293TIP3    H240295   2.619   3.233   3.910 -1.3225  0.2987 -0.1565
 6294TIP3   OH240296   3.286   5.586   0.607 -0.2364 -0.2348 -0.0805
 6294TIP3    H140297   3.277   5.624   0.695  1.4132 -1.1055  0.5081
 6294TIP3    H240298   3.292   5.662   0.549 -0.0870  0.3698  0.7110
 6295TIP3   OH240299   2.355   2.549  14.755 -0.0712  0.5979  0.5193
 6295TIP3    H140300   2.350   2.511  14.668 -1.3168 -1.0232  1.2639
 6295TIP3    H240301   2.289   2.619  14.755 -0.2491  0.4302  0.2489
 6296TIP3   OH240302   1.628   4.998  15.435 -0.1831  0.7120 -0.1626
 6296TIP3    H140303   1.629   5.010  15.340  0.2675 -0.5371 -0.3303
 6296TIP3    H240304   1.712   4.957  15.455 -0.0895  1.3434  0.8469
 6297TIP3   OH240305   4.018   2.900  16.579  0.1046  0.2421  0.4643
 6297TIP3    H140306   3.976   2.831  16.629  1.2907  0.5174  1.8956
 6297TIP3    H240307   4.064   2.854  16.509 -0.4097 -0.2702  0.4516
 6298TIP3   OH240308   3.509   2.570   4.289  0.5075 -1.1290  0.2712
 6298TIP3    H140309   3.486   2.659   4.316 -0.3926 -1.6853  1.4228
 6298TIP3    H240310   3.458   2.555   4.210 -0.9058 -1.3062  1.1821
 6299TIP3   OH240311   4.247   5.173  14.102  0.2038  0.3558 -0.0942
 6299TIP3    H140312   4.186   5.168  14.028 -1.0288  0.9457  0.8580
 6299TIP3    H240313   4.235   5.091  14.149 -1.1127  1.1569  1.0277
 6300TIP3   OH240314   5.617   4.480   4.867  0.3730 -0.0170 -0.4346
 6300TIP3    H140315   5.636   4.517   4.954  1.1135 -0.3145 -0.4606
 6300TIP3    H240316   5.522   4.477   4.863  0.2758 -2.0554  1.2588
 6301TIP3   OH240317   4.420   0.042  17.005 -0.7093  0.2595  0.2774
 6301TIP3    H140318   4.376   0.087  16.933  0.5558  0.9727 -0.0902
 6301TIP3    H240319   4.495   0.098  17.025 -1.3938  0.4330  2.6142
 6302TIP3   OH240320   1.382   0.279  15.984 -0.1747  0.5303  0.3700
 6302TIP3    H140321   1.449   0.294  16.050 -0.0969  1.1136  0.1651
 6302TIP3    H240322   1.429   0.283  15.901 -0.4699  0.9975  0.2240
 6303TIP3   OH240323   2.133   1.167   2.441 -0.1830  0.2972 -0.1186
 6303TIP3    H140324   2.060   1.213   2.400 -0.2353  2.8567  2.5076
 6303TIP3    H240325   2.101   1.145   2.528  2.0340  1.2574  1.0025
 6304TIP3   OH240326   2.330   6.602   2.194 -0.3303 -0.0146  0.6754
 6304TIP3    H140327   2.271   6.547   2.142 -0.4553  2.0045 -1.5113
 6304TIP3    H240328   2.292   6.690   2.188  0.1944  0.4851  3.4928
 6305TIP3   OH240329   6.225   3.306  16.944 -0.6466  0.0397 -0.3253
 6305TIP3    H140330   6.175   3.308  16.862 -0.8729  1.4532 -0.1948
 6305TIP3    H240331   6.215   3.395  16.979  2.7287  0.7134 -0.7575
 6306TIP3   OH240332   2.601   2.355   3.085  0.3826 -0.3810 -0.1753
 6306TIP3    H140333   2.655   2.431   3.105  1.2316 -1.1158  0.3668
 6306TIP3    H240334   2.643   2.315   3.009 -1.3168  0.8950 -1.9065
 6307TIP3   OH240335   3.504   5.781   4.415 -0.0454  0.4233  0.6339
 6307TIP3    H140336   3.495   5.866   4.373 -2.5317  0.2949  0.7851
 6307TIP3    H240337   3.494   5.798   4.508  0.5967  0.0815  0.7766
 6308TIP3   OH240338   1.073   4.079   3.925 -0.2777 -0.1095 -0.3693
 6308TIP3    H140339   1.117   4.089   4.009  1.4996 -1.5033 -1.0729
 6308TIP3    H240340   1.061   3.985   3.915 -2.6177  0.1594 -0.6679
 6309TIP3   OH240341   1.651   5.048   5.152 -0.1344 -0.0799  0.3146
 6309TIP3    H140342   1.587   5.037   5.081 -1.5403 -2.6457  1.8261
 6309TIP3    H240343   1.675   4.959   5.177  0.5133  0.7342  2.8706
 6310TIP3   OH240344   4.959   6.319  14.805  0.4447 -0.4533 -0.1004
 6310TIP3    H140345   5.010   6.309  14.724  1.6826 -0.0139  0.5914
 6310TIP3    H240346   5.018   6.287  14.874  0.7978  2.3218  1.0215
 6311TIP3   OH240347   4.896   3.019   5.771  0.0267 -0.3585  0.7286
 6311TIP3    H140348   4.966   2.987   5.827  0.9287 -0.0607 -0.2033
 6311TIP3    H240349   4.935   3.025   5.683 -1.2916 -0.6438  0.0942
 6312TIP3   OH240350   0.036   1.154  14.944 -0.3096  0.0985 -0.5065
 6312TIP3    H140351   0.054   1.190  14.857 -0.1275 -0.3318 -0.6528
 6312TIP3    H240352  -0.028   1.084  14.928  0.7333 -0.8912 -0.4820
 6313TIP3   OH240353   3.141   1.471  12.243  0.1094  0.1659  0.0353
 6313TIP3    H140354   3.205   1.500  12.307  0.4341 -0.6798  0.1069
 6313TIP3    H240355   3.056   1.492  12.283  0.2921 -0.7466  0.9596
 6314TIP3   OH240356   0.759   0.284   5.329  0.0423 -0.2465 -0.6796
 6314TIP3    H140357   0.785   0.192   5.329 -1.0363 -0.5727  0.5729
 6314TIP3    H240358   0.729   0.302   5.418 -1.8526  0.6977 -1.4408
 6315TIP3   OH240359   2.446   0.845   6.265 -0.1281  0.1633  0.0491
 6315TIP3    H140360   2.498   0.900   6.324  2.4486 -0.1959 -1.7070
 6315TIP3    H240361   2.423   0.903   6.193 -0.9848 -0.0590  0.1309
 6316TIP3   OH240362   5.676   0.727  14.484  0.2819  0.1618 -0.3261
 6316TIP3    H140363   5.662   0.633  14.471  0.8370 -0.3188  1.9728
 6316TIP3    H240364   5.770   0.735  14.499  0.0944  0.8783  0.5809
 6317TIP3   OH240365   2.255   5.544   1.323  0.1310  0.0609 -0.0495
 6317TIP3    H140366   2.335   5.492   1.326 -0.5490 -1.0627 -0.6457
 6317TIP3    H240367   2.196   5.495   1.266 -1.0685  0.7435  0.5496
 6318TIP3   OH240368   2.385   0.365   2.568 -0.4804 -0.2334  0.0095
 6318TIP3    H140369   2.430   0.334   2.647  1.2494 -1.1635 -1.2804
 6318TIP3    H240370   2.380   0.288   2.511 -2.6404  0.1637 -0.4264
 6319TIP3   OH240371   2.817   6.205   4.956  0.4573  0.3047  0.0037
 6319TIP3    H140372   2.813   6.286   4.905  0.4063  0.7526  0.6980
 6319TIP3    H240373   2.800   6.233   5.046  0.4216 -0.4846  0.2489
 6320TIP3   OH240374   2.251   3.688   5.908 -0.2927 -0.0564  0.1013
 6320TIP3    H140375   2.226   3.701   5.999  0.8824 -0.4251  0.4898
 6320TIP3    H240376   2.346   3.676   5.910 -0.0167  1.4892 -1.3397
 6321TIP3   OH240377   1.938   4.586   0.683  0.2821 -0.2168 -0.5468
 6321TIP3    H140378   1.978   4.562   0.766 -0.3629 -0.1249 -0.2037
 6321TIP3    H240379   1.973   4.523   0.620  0.1712 -0.7842 -0.0502
 6322TIP3   OH240380   5.532   2.091  15.248  0.0120  0.0377  0.5847
 6322TIP3    H140381   5.472   2.121  15.179  0.6616  1.5446  0.6227
 6322TIP3    H240382   5.478   2.035  15.304 -0.5342 -1.1966 -1.1042
 6323TIP3   OH240383   1.775   4.310  13.233 -0.2516  0.1373  0.3215
 6323TIP3    H140384   1.723   4.242  13.191  1.1284 -0.8075  0.0795
 6323TIP3    H240385   1.832   4.263  13.294  0.6292  1.0686  0.2516
 6324TIP3   OH240386   0.974   4.352  12.200  0.2961 -0.2781  0.0150
 6324TIP3    H140387   1.018   4.427  12.241  1.3508 -0.8201 -0.0882
 6324TIP3    H240388   1.012   4.275  12.242  0.3703 -0.8023 -0.9740
 6325TIP3   OH240389   2.844   6.530   4.774  0.0701  0.3702 -0.6458
 6325TIP3    H140390   2.786   6.517   4.699 -0.8068  3.5057 -0.6535
 6325TIP3    H240391   2.792   6.503   4.850 -0.7631  1.4839 -0.8080
 6326TIP3   OH240392   3.276   3.192  16.538 -0.4210  0.0788 -0.0939
 6326TIP3    H140393   3.199   3.135  16.536 -0.9940  0.8201  0.7700
 6326TIP3    H240394   3.323   3.170  16.457 -0.3657 -1.9708  0.4302
 6327TIP3   OH240395   1.367   0.708   1.467 -0.5046  0.0855  0.1656
 6327TIP3    H140396   1.456   0.721   1.434 -0.9698 -0.3365 -1.3524
 6327TIP3    H240397   1.312   0.754   1.405 -1.5391 -1.9642 -0.5319
 6328TIP3   OH240398   4.565   6.325  11.383 -0.0199  0.1751 -0.2894
 6328TIP3    H140399   4.620   6.324  11.462 -0.4643  1.3940  0.0619
 6328TIP3    H240400   4.499   6.259  11.399 -0.3596  0.7080  0.5696
 6329TIP3   OH240401   5.624   4.233   6.366  0.3016  0.3040  0.0757
 6329TIP3    H140402   5.572   4.290   6.422 -0.9940 -1.3164  0.6235
 6329TIP3    H240403   5.688   4.193   6.425 -0.9311 -1.2459  0.4573
 6330TIP3   OH240404   4.513   4.530   3.723  0.5421  0.1073 -0.0128
 6330TIP3    H140405   4.500   4.473   3.799  0.9129 -0.0890 -0.0908
 6330TIP3    H240406   4.564   4.477   3.662 -1.4529 -0.4557 -1.2624
 6331TIP3   OH240407   6.700   0.144  15.914 -0.1056  0.2776  0.6506
 6331TIP3    H140408   6.662   0.116  15.997 -1.7361  2.5802  0.7698
 6331TIP3    H240409   6.746   0.225  15.934  1.5645 -0.3736 -0.2964
 6332TIP3   OH240410   2.410   1.973   1.453 -0.1616  0.4843  0.1935
 6332TIP3    H140411   2.435   2.032   1.382  0.3499 -1.6867 -1.5662
 6332TIP3    H240412   2.494   1.938   1.485 -0.1968  2.8122  3.3051
 6333TIP3   OH240413   5.674   1.992   3.199 -0.3607 -0.2220  0.6362
 6333TIP3    H140414   5.769   1.979   3.207 -0.8751 -4.2789  2.5028
 6333TIP3    H240415   5.655   1.969   3.108  0.5032  2.5499 -0.3734
 6334TIP3   OH240416   3.595   5.877  14.511  0.4559 -0.2479  0.2183
 6334TIP3    H140417   3.683   5.899  14.541  1.0256 -0.2237 -1.3429
 6334TIP3    H240418   3.538   5.942  14.552  1.2130 -0.0355  0.9521
 6335TIP3   OH240419   4.698   0.032   2.510 -0.7347 -0.3616 -0.7357
 6335TIP3    H140420   4.638   0.105   2.525 -0.0177 -0.0077  0.5783
 6335TIP3    H240421   4.773   0.072   2.466  0.1568 -0.0453  0.9994
 6336TIP3   OH240422   4.806   5.891   5.463 -0.4292 -0.2722  0.2480
 6336TIP3    H140423   4.818   5.982   5.488  1.7277 -0.6536  0.8961
 6336TIP3    H240424   4.852   5.883   5.379  0.0981 -0.9013  0.5820
 6337TIP3   OH240425   1.484   6.691  15.305 -0.1607  0.6229  0.9203
 6337TIP3    H140426   1.499   6.717  15.214 -1.4827  0.8767  0.7670
 6337TIP3    H240427   1.572   6.685  15.342  0.3928  0.6059 -0.3429
 6338TIP3   OH240428   0.055   4.230  14.275  0.0899 -0.5433 -0.1456
 6338TIP3    H140429   0.013   4.308  14.309 -0.7485 -0.2700 -1.7266
 6338TIP3    H240430   0.148   4.253  14.268 -0.3039  0.7212 -1.6248
 6339TIP3   OH240431   2.504   2.864  16.137 -0.6748  0.5439  0.6782
 6339TIP3    H140432   2.517   2.947  16.181  0.8930  1.1550 -0.8274
 6339TIP3    H240433   2.459   2.887  16.055 -0.1501 -0.0564  0.2102
 6340TIP3   OH240434   3.233   3.602   3.704 -0.0076  0.1626  0.5161
 6340TIP3    H140435   3.304   3.659   3.735  0.2561  0.0876  0.0611
 6340TIP3    H240436   3.273   3.551   3.634  0.2507 -1.7864  1.9942
 6341TIP3   OH240437   0.118   4.596  12.434 -0.2434 -0.4515 -0.0676
 6341TIP3    H140438   0.190   4.553  12.479 -1.2666 -3.4130 -1.0702
 6341TIP3    H240439   0.144   4.597  12.342 -0.7973 -0.0084 -0.2298
 6342TIP3   OH240440   1.440   3.775   4.484 -0.3661  0.1680  0.4272
 6342TIP3    H140441   1.527   3.806   4.510  0.1441 -0.4380 -0.5188
 6342TIP3    H240442   1.443   3.681   4.498 -0.8865  0.1503  0.4221
 6343TIP3   OH240443   0.843   0.831   0.475 -0.0417  0.1783 -0.5977
 6343TIP3    H140444   0.853   0.856   0.567 -1.4162  1.0603 -0.6504
 6343TIP3    H240445   0.893   0.750   0.467 -0.9132 -0.6095  1.2389
 6344TIP3   OH240446   4.735   0.934   0.736  0.0682 -0.3312  0.2476
 6344TIP3    H140447   4.771   0.994   0.801  0.2591  0.1615 -0.3056
 6344TIP3    H240448   4.664   0.889   0.782  0.9405 -0.8255  1.1369
 6345TIP3   OH240449   5.400   0.613   0.902  0.2552 -0.2451 -0.1072
 6345TIP3    H140450   5.414   0.698   0.943  1.6022  0.0468 -1.0663
 6345TIP3    H240451   5.377   0.633   0.811 -0.9139 -0.8896  0.0326
 6346TIP3   OH240452   1.714   2.718  14.973  0.2887 -0.7203 -0.0248
 6346TIP3    H140453   1.756   2.792  14.931  1.7761 -1.4461  0.1249
 6346TIP3    H240454   1.651   2.757  15.033  0.3843  0.3867 -0.6215
 6347TIP3   OH240455   3.415   0.618   0.745 -0.7851  0.4222  0.0745
 6347TIP3    H140456   3.427   0.559   0.819 -0.4185  1.0002  0.4701
 6347TIP3    H240457   3.499   0.617   0.699 -0.7911  0.6069  0.0587
 6348TIP3   OH240458   3.902   2.738  16.944  0.1900 -0.0566  0.2248
 6348TIP3    H140459   3.817   2.728  16.900  0.3302  1.2738 -0.3870
 6348TIP3    H240460   3.895   2.682  17.021 -2.1565  1.7795  1.4943
 6349TIP3   OH240461   6.268   2.857   3.053  0.4832 -0.0044 -0.1257
 6349TIP3    H140462   6.182   2.870   3.011  0.4695 -0.9934 -0.4242
 6349TIP3    H240463   6.273   2.763   3.070  0.9014  0.2403  1.2452
 6350TIP3   OH240464   2.168   3.110  13.500  0.3245 -0.2431 -0.6146
 6350TIP3    H140465   2.260   3.086  13.490  0.2586  0.3737 -4.1546
 6350TIP3    H240466   2.119   3.036  13.465 -0.4798  0.0169 -0.0922
 6351TIP3   OH240467   5.243   4.166  14.973  0.1721 -0.0145 -0.7517
 6351TIP3    H140468   5.169   4.220  14.947 -0.2659  0.5982  1.4998
 6351TIP3    H240469   5.313   4.228  14.992  0.0111 -0.2645  0.8099
 6352TIP3   OH240470   5.167   5.777   4.458  0.4814  0.2664  0.8098
 6352TIP3    H140471   5.228   5.751   4.528  0.4237 -1.3588  0.3038
 6352TIP3    H240472   5.097   5.824   4.503  1.7781  1.6121  1.4826
 6353TIP3   OH240473   5.870   6.516  12.399  0.0416 -0.1977 -0.8046
 6353TIP3    H140474   5.954   6.507  12.444 -0.0752  0.6463 -0.3944
 6353TIP3    H240475   5.804   6.503  12.468 -0.1489  2.9721 -0.2369
 6354TIP3   OH240476   4.012   1.179  16.798 -0.0581  0.2205 -0.0737
 6354TIP3    H140477   3.966   1.263  16.791  1.0094  0.9155  0.8258
 6354TIP3    H240478   3.972   1.137  16.874  0.6925  0.7822  0.6499
 6355TIP3   OH240479   5.201   4.934   3.711  0.0709 -0.4180  0.2827
 6355TIP3    H140480   5.268   4.875   3.747  0.6509  0.0840  0.0513
 6355TIP3    H240481   5.190   4.906   3.620 -0.0697 -0.5357  0.3367
 6356TIP3   OH240482   0.552   4.195  14.286  0.5265  0.1134 -0.2128
 6356TIP3    H140483   0.578   4.118  14.236 -0.2083  0.4551 -1.1601
 6356TIP3    H240484   0.460   4.180  14.307 -0.0659  1.3663 -1.6989
 6357TIP3   OH240485   4.858   2.656   1.931 -0.6684 -0.4303  0.0114
 6357TIP3    H140486   4.844   2.726   1.867 -1.9160 -1.8780 -1.3750
 6357TIP3    H240487   4.804   2.583   1.900 -0.2699 -1.6634  1.9953
 6358TIP3   OH240488   0.773   4.936   1.181 -0.0456 -0.1513  0.0668
 6358TIP3    H140489   0.697   4.879   1.192  1.0185 -1.7831 -0.5470
 6358TIP3    H240490   0.779   4.950   1.087  1.1553 -1.1686 -0.0362
 6359TIP3   OH240491   1.749   3.960  12.357  0.1340 -0.1049 -0.3461
 6359TIP3    H140492   1.824   3.909  12.327  0.7456  0.3729  0.3280
 6359TIP3    H240493   1.722   3.917  12.438  0.5114  0.4878  0.1045
 6360TIP3   OH240494   5.662   4.118   4.774  0.0582 -0.1531  0.7109
 6360TIP3    H140495   5.688   4.036   4.816  2.6690  0.2907  0.1537
 6360TIP3    H240496   5.715   4.185   4.817 -0.9452  1.0304  0.1681
 6361TIP3   OH240497   1.490   0.059   5.513 -0.3163  0.0149 -0.2489
 6361TIP3    H140498   1.575   0.071   5.555  0.1534 -0.4001 -1.0726
 6361TIP3    H240499   1.483   0.133   5.452 -1.1287  0.7868  0.7469
 6362TIP3   OH240500   1.741   3.071   4.687 -0.6443  0.4513  0.2560
 6362TIP3    H140501   1.702   2.990   4.655 -1.5672  1.6227 -1.7691
 6362TIP3    H240502   1.835   3.057   4.681 -0.7916  0.2171 -2.0432
 6363TIP3   OH240503   1.540   1.727   1.356 -0.4681  0.4141  0.3770
 6363TIP3    H140504   1.455   1.769   1.363  0.3220  2.2088 -0.3235
 6363TIP3    H240505   1.547   1.674   1.436 -1.5611  1.5229  1.2351
 6364TIP3   OH240506   4.100   5.352  11.947  0.1557  0.4585  0.5659
 6364TIP3    H140507   4.158   5.379  11.875  0.6874  0.0110  0.8152
 6364TIP3    H240508   4.018   5.397  11.930  0.4995  0.9081  0.0606
 6365TIP3   OH240509   2.307   5.631  15.929 -0.7602 -0.3678 -0.4301
 6365TIP3    H140510   2.273   5.593  15.848 -2.4293 -0.5408  0.3211
 6365TIP3    H240511   2.288   5.567  15.997  0.9774 -0.4045  0.0826
 6366TIP3   OH240512   2.411   6.238   5.767  0.4073 -0.6985  0.0828
 6366TIP3    H140513   2.484   6.259   5.824  0.6415  0.3136 -0.5657
 6366TIP3    H240514   2.451   6.224   5.681 -0.3833  4.5483 -1.5139
 6367TIP3   OH240515   5.388   4.415   3.870 -0.4926  0.2148  0.2434
 6367TIP3    H140516   5.359   4.415   3.961 -0.5800 -1.2266  0.2518
 6367TIP3    H240517   5.483   4.413   3.875 -0.4905  0.5067  0.3015
 6368TIP3   OH240518   1.526   5.046   0.786  0.4635  0.2254  0.0435
 6368TIP3    H140519   1.613   5.019   0.758 -0.1897 -0.8182 -1.0986
 6368TIP3    H240520   1.478   5.063   0.705 -0.7221 -0.3393  0.5943
 6369TIP3   OH240521   6.405   4.835  14.830  0.0835  0.5016 -0.4103
 6369TIP3    H140522   6.322   4.850  14.875 -0.9875  0.9623 -2.4223
 6369TIP3    H240523   6.471   4.873  14.887 -0.9815 -0.4347  1.5510
 6370TIP3   OH240524   4.000   2.813  14.760 -0.4614 -0.1023 -0.5194
 6370TIP3    H140525   3.999   2.810  14.855 -0.6815  1.0220 -0.4685
 6370TIP3    H240526   4.076   2.761  14.735 -0.0161  0.1381  0.3005
 6371TIP3   OH240527   6.056   2.568   2.848  0.0597 -0.3130 -0.0833
 6371TIP3    H140528   6.103   2.573   2.930 -0.3486  1.8903  0.0846
 6371TIP3    H240529   6.104   2.504   2.796  2.8281  1.2757  0.3405
 6372TIP3   OH240530   1.332   3.824  17.148 -0.6630  0.1915  0.0885
 6372TIP3    H140531   1.285   3.878  17.085 -0.7926  0.1181  0.1228
 6372TIP3    H240532   1.270   3.755  17.172  0.2587 -1.4104 -1.7829
 6373TIP3   OH240533   3.006   4.826  14.966 -0.1562  0.3924 -0.4061
 6373TIP3    H140534   2.965   4.824  14.880 -0.4059  1.3764 -0.3299
 6373TIP3    H240535   3.092   4.864  14.951  1.2665 -2.6928 -0.7385
 6374TIP3   OH240536   3.594   4.841  13.161 -0.0767 -0.3185  0.2934
 6374TIP3    H140537   3.513   4.798  13.133 -0.7337  1.3518 -0.5326
 6374TIP3    H240538   3.662   4.777  13.143 -0.9387 -0.8385 -1.4313
 6375TIP3   OH240539   0.283   4.776  13.218 -0.5556 -0.5947  0.0993
 6375TIP3    H140540   0.285   4.737  13.306 -1.8669 -2.0561 -0.4728
 6375TIP3    H240541   0.348   4.726  13.168  1.4338  1.3426  0.6033
 6376TIP3   OH240542   6.292   2.793   1.449  0.0909  1.1033  0.5461
 6376TIP3    H140543   6.334   2.719   1.406 -1.4191  0.6458 -0.1888
 6376TIP3    H240544   6.353   2.819   1.518  0.5866 -0.8943  0.9014
 6377TIP3   OH240545   0.403   3.972  13.396 -0.3692  0.4281  0.4112
 6377TIP3    H140546   0.455   4.045  13.361  0.3648 -0.3425 -0.1190
 6377TIP3    H240547   0.461   3.929  13.458  0.5279 -1.8712 -1.9010
 6378TIP3   OH240548   4.270   5.747  13.352  0.4942  0.2861 -0.2699
 6378TIP3    H140549   4.227   5.786  13.276  0.7257  0.6303 -0.2258
 6378TIP3    H240550   4.346   5.701  13.316 -0.6977 -1.6121 -0.5440
 6379TIP3   OH240551   4.656   5.074   1.985  0.0455  0.4368  0.5161
 6379TIP3    H140552   4.718   5.017   2.031 -1.6019 -2.3008 -0.4278
 6379TIP3    H240553   4.656   5.042   1.895 -0.5324  2.3803 -0.2314
 6380TIP3   OH240554   1.650   1.179  13.978 -0.4515 -0.1392  0.1753
 6380TIP3    H140555   1.678   1.260  14.020  1.7166 -0.9467  0.3992
 6380TIP3    H240556   1.660   1.196  13.884 -2.3426  0.6229  0.0681
 6381TIP3   OH240557   1.188   2.017  12.220 -0.0050 -0.4737  0.0442
 6381TIP3    H140558   1.210   1.941  12.274 -0.6325  0.6598  1.9798
 6381TIP3    H240559   1.269   2.039  12.174  0.6184 -1.3336  0.7041
 6382TIP3   OH240560   0.757   5.386   4.076 -0.2516  0.1955 -0.1109
 6382TIP3    H140561   0.736   5.293   4.067 -0.5248  0.0110  1.9728
 6382TIP3    H240562   0.851   5.387   4.094 -0.3230  0.2818  0.2636
 6383TIP3   OH240563   1.859   0.503  15.559 -0.1022  0.5125 -0.3538
 6383TIP3    H140564   1.906   0.420  15.561  1.1225  1.1988  0.5634
 6383TIP3    H240565   1.770   0.480  15.585  0.6467 -0.2677  1.6995
 6384TIP3   OH240566   4.824   2.158   3.634  0.2161 -0.0188 -0.2726
 6384TIP3    H140567   4.822   2.207   3.552 -1.5257  2.0413  0.8855
 6384TIP3    H240568   4.757   2.091   3.623  0.4184 -0.1516 -0.7380
 6385TIP3   OH240569   3.382   5.988   6.254  0.7730  0.6000 -0.2517
 6385TIP3    H140570   3.457   6.047   6.265  1.6678 -0.4904 -0.3223
 6385TIP3    H240571   3.309   6.034   6.296  1.4132  1.8087 -0.4287
 6386TIP3   OH240572   2.450   0.502  15.713  0.2019  0.2251 -0.0764
 6386TIP3    H140573   2.369   0.451  15.707  0.5463 -0.2430 -0.9177
 6386TIP3    H240574   2.428   0.574  15.773 -0.2487 -0.9919  1.3001
 6387TIP3   OH240575   3.841   0.013   1.113 -0.0772 -0.1584 -0.4750
 6387TIP3    H140576   3.925  -0.024   1.086  1.3069  0.9595  2.0123
 6387TIP3    H240577   3.812  -0.043   1.185 -0.9303  0.1142 -0.6011
 6388TIP3   OH240578   4.769   1.188   2.571 -0.2873 -0.4822  0.4745
 6388TIP3    H140579   4.751   1.113   2.627  2.5724 -1.6744 -0.0387
 6388TIP3    H240580   4.826   1.244   2.624  0.5142 -0.4781 -0.3555
 6389TIP3   OH240581   5.776   4.832   2.040 -0.0120  0.2808 -0.3057
 6389TIP3    H140582   5.852   4.889   2.046 -1.0893  1.7679 -0.2611
 6389TIP3    H240583   5.718   4.876   1.978 -0.8836 -0.7738 -0.2703
 6390TIP3   OH240584   5.600   3.362   0.034 -0.0623 -0.9918  0.3858
 6390TIP3    H140585   5.523   3.336   0.085  1.1688 -3.8807  0.9939
 6390TIP3    H240586   5.570   3.359  -0.057 -1.2496  0.3497  0.6908
 6391TIP3   OH240587   0.904   3.292  12.147  0.7702 -0.1193 -0.4791
 6391TIP3    H140588   0.887   3.274  12.055 -0.7100  0.0840 -0.2784
 6391TIP3    H240589   0.817   3.296  12.187  1.3692  0.1206  0.8654
 6392TIP3   OH240590   3.893   2.275  12.302 -0.1997  0.4424  0.1108
 6392TIP3    H140591   3.978   2.310  12.328  0.2388 -0.1496 -0.4796
 6392TIP3    H240592   3.833   2.306  12.369  1.0010 -1.6377  2.3292
 6393TIP3   OH240593   5.855   1.809  11.545 -0.4291  0.3640 -0.4413
 6393TIP3    H140594   5.826   1.755  11.618  1.0999 -0.8753 -0.6932
 6393TIP3    H240595   5.909   1.750  11.492  0.3535  1.8464 -1.3496
 6394TIP3   OH240596   0.512   5.364   0.252 -0.2570  0.3578 -0.2386
 6394TIP3    H140597   0.600   5.370   0.290 -0.2125 -0.0026 -0.2835
 6394TIP3    H240598   0.487   5.455   0.236 -0.3726  0.5431  0.8777
 6395TIP3   OH240599   5.896   0.853  14.694 -0.5598  0.0936 -0.3646
 6395TIP3    H140600   5.879   0.944  14.673 -0.1277  0.3308  0.2868
 6395TIP3    H240601   5.855   0.839  14.779 -0.6110 -0.3199 -0.4508
 6396TIP3   OH240602   4.239   6.270  11.945  0.2125 -0.3011  0.0734
 6396TIP3    H140603   4.296   6.317  12.005 -0.4513  0.3377  0.2182
 6396TIP3    H240604   4.296   6.243  11.873  0.9699 -0.8870  0.8685
 6397TIP3   OH240605   3.670   1.784  12.522 -0.5500  0.4856  0.1416
 6397TIP3    H140606   3.623   1.715  12.476  1.3466 -0.2029 -0.8552
 6397TIP3    H240607   3.726   1.738  12.585 -0.5434  1.2276  0.6997
 6398TIP3   OH240608   3.503   0.931   2.731  0.0989 -0.4660  0.1296
 6398TIP3    H140609   3.592   0.907   2.706 -0.9171 -3.9441 -0.7163
 6398TIP3    H240610   3.506   0.943   2.826  1.7143  1.2437 -0.0724
 6399TIP3   OH240611   0.144   1.704  15.916  0.0782 -0.2393 -0.0276
 6399TIP3    H140612   0.098   1.783  15.889 -0.4844 -0.8382 -0.9057
 6399TIP3    H240613   0.212   1.734  15.976  0.5787  1.0132 -1.1883
 6400TIP3   OH240614   5.092   2.711   1.201  0.3491  0.3934 -0.9066
 6400TIP3    H140615   5.139   2.628   1.203  2.0312  1.3260  0.4257
 6400TIP3    H240616   5.151   2.771   1.157  0.1152  1.4230  0.1519
 6401TIP3   OH240617   5.515   3.425   5.572  0.6586 -0.0721  0.3537
 6401TIP3    H140618   5.543   3.451   5.484 -0.1494  0.1720  0.1517
 6401TIP3    H240619   5.420   3.413   5.563  0.3559  1.2137  1.4711
 6402TIP3   OH240620   4.831   4.301   4.105  0.1442 -0.0301 -0.7912
 6402TIP3    H140621   4.822   4.392   4.133  0.2640 -0.6055  1.2941
 6402TIP3    H240622   4.778   4.295   4.025  0.3401  1.8984 -1.1088
 6403TIP3   OH240623   6.546   4.228  13.754 -0.4286 -0.3877 -0.2195
 6403TIP3    H140624   6.583   4.145  13.784 -1.7331 -2.0555 -2.8093
 6403TIP3    H240625   6.592   4.246  13.672 -0.9766  0.8053 -0.2818
 6404TIP3   OH240626   5.964   1.582   1.886  0.0477 -0.5298 -0.1461
 6404TIP3    H140627   5.920   1.623   1.812  1.4462  0.4005 -0.5053
 6404TIP3    H240628   6.016   1.652   1.925  1.8075 -1.7234 -0.2187
 6405TIP3   OH240629   2.272   2.305   4.885  0.2072  0.0743  0.2399
 6405TIP3    H140630   2.260   2.368   4.956  0.0681  0.1939  0.1127
 6405TIP3    H240631   2.186   2.266   4.872  0.4235 -0.5559  0.6978
 6406TIP3   OH240632   6.749   4.575  13.748 -1.1351  0.0624  0.0341
 6406TIP3    H140633   6.821   4.534  13.795 -0.9053  0.1199 -0.2673
 6406TIP3    H240634   6.670   4.545  13.793 -1.0477 -1.5973 -0.8375
 6407TIP3   OH240635   0.559   1.133  12.911 -0.3923 -0.2143 -0.1944
 6407TIP3    H140636   0.473   1.169  12.935 -0.4024 -0.8194  0.6939
 6407TIP3    H240637   0.621   1.186  12.961 -0.2221  0.3491 -0.9828
 6408TIP3   OH240638   2.228   0.475  16.975 -0.0240 -0.1776  0.2867
 6408TIP3    H140639   2.211   0.540  16.906 -0.2541 -0.7765 -0.2355
 6408TIP3    H240640   2.268   0.401  16.928  0.2477 -0.4049  0.8743
 6409TIP3   OH240641   4.466   0.135  11.339  0.6090  0.3832 -0.1618
 6409TIP3    H140642   4.393   0.114  11.281  0.5633  0.1882 -0.0367
 6409TIP3    H240643   4.526   0.061  11.329  0.8885  0.6410 -0.4216
 6410TIP3   OH240644   3.355   6.501   0.228  0.0234  0.4142  0.0733
 6410TIP3    H140645   3.361   6.476   0.321 -1.1729  0.1299  0.0941
 6410TIP3    H240646   3.420   6.447   0.185 -0.8579 -1.0330  0.4756
 6411TIP3   OH240647   2.759   6.679   1.865 -0.2178  0.1143  0.2612
 6411TIP3    H140648   2.746   6.719   1.779 -0.2074  0.0106  0.2115
 6411TIP3    H240649   2.715   6.594   1.859  0.6223 -0.3189  0.0330
 6412TIP3   OH240650   0.594   4.988  12.970 -0.3881 -0.1165 -0.1859
 6412TIP3    H140651   0.600   4.946  13.056 -2.0934  0.2902  0.1564
 6412TIP3    H240652   0.639   4.927  12.911  0.8955 -0.3611  0.9763
 6413TIP3   OH240653   0.966   6.578  12.214  0.3385 -0.2811  0.4008
 6413TIP3    H140654   0.965   6.660  12.263 -0.3743 -0.2092  0.2701
 6413TIP3    H240655   0.920   6.598  12.133  0.8545 -0.6024  0.0236
 6414TIP3   OH240656   5.695   5.172  13.360  0.3238 -0.2604 -0.1454
 6414TIP3    H140657   5.746   5.248  13.388  0.1085 -0.4562  0.8109
 6414TIP3    H240658   5.622   5.209  13.311 -0.3942  0.2521  1.2517
 6415TIP3   OH240659   3.344   0.224  11.483  0.1705 -0.2714 -0.3793
 6415TIP3    H140660   3.392   0.272  11.550 -0.0964 -1.6037  0.8220
 6415TIP3    H240661   3.267   0.278  11.465  0.6532  0.4825 -0.2169
 6416TIP3   OH240662   6.125   3.964   1.927 -0.2332 -0.2198 -0.8044
 6416TIP3    H140663   6.165   3.880   1.951  0.1465  0.1336 -0.1881
 6416TIP3    H240664   6.195   4.028   1.940 -0.9198  0.3693  0.0352
 6417TIP3   OH240665   5.270   4.133   4.010  0.0446 -0.4103 -0.4870
 6417TIP3    H140666   5.333   4.077   4.056  1.8243  0.0872 -2.1950
 6417TIP3    H240667   5.221   4.176   4.080  1.7516 -0.6460  0.9403
 6418TIP3   OH240668   5.683   4.662   0.022  0.1116  0.1045 -0.0552
 6418TIP3    H140669   5.679   4.646  -0.073  0.4027 -0.1622 -0.0221
 6418TIP3    H240670   5.745   4.734   0.031  1.1257 -0.7568  0.0343
 6419TIP3   OH240671   2.337   2.602  11.877 -0.2279 -0.3360  0.1850
 6419TIP3    H140672   2.289   2.553  11.945 -1.2445 -0.0171 -0.2828
 6419TIP3    H240673   2.285   2.681  11.863  1.0091  0.5395  0.3989
 6420TIP3   OH240674   2.233   1.209  16.950 -0.4734  0.4838 -0.8169
 6420TIP3    H140675   2.223   1.297  16.987 -2.2472  0.2849 -0.7443
 6420TIP3    H240676   2.276   1.158  17.019 -0.7657  0.9370 -0.2955
 6421TIP3   OH240677   4.305   3.491  11.738 -0.3208 -0.4508  0.2922
 6421TIP3    H140678   4.232   3.483  11.676  0.1306  0.6494 -0.4251
 6421TIP3    H240679   4.341   3.403  11.744  1.5691 -0.1546 -3.5133
 6422TIP3   OH240680   4.279   3.688  13.853 -0.6589 -0.5487  0.6111
 6422TIP3    H140681   4.356   3.697  13.909  0.8738  0.2310 -1.4780
 6422TIP3    H240682   4.311   3.639  13.777 -2.4523 -0.9443  0.0832
 6423TIP3   OH240683   0.836   1.073   2.438  0.2751 -0.1900  0.5187
 6423TIP3    H140684   0.928   1.065   2.414  1.1466  2.1569  2.5907
 6423TIP3    H240685   0.800   1.135   2.374  0.3993 -0.3759  0.2702
 6424TIP3   OH240686   3.425   2.227  11.504 -0.1103  0.1590  0.0764
 6424TIP3    H140687   3.334   2.210  11.480  0.1591 -1.7561  0.2122
 6424TIP3    H240688   3.449   2.152  11.559  2.2413 -0.6453 -1.8771
 6425TIP3   OH240689   0.865   3.859  16.328 -0.0795  0.0040  0.2471
 6425TIP3    H140690   0.955   3.881  16.353  1.1646 -0.8917 -3.0153
 6425TIP3    H240691   0.824   3.944  16.311  1.2692  0.3774 -1.4921
 6426TIP3   OH240692   6.226   3.589  14.756 -0.0238 -0.1762  0.1169
 6426TIP3    H140693   6.247   3.503  14.721  1.7755  0.2627  0.0272
 6426TIP3    H240694   6.264   3.588  14.844 -0.0797  0.4820  0.1494
 6427TIP3   OH240695   0.509   6.500   5.269  0.2965 -0.4147  0.0555
 6427TIP3    H140696   0.442   6.510   5.201  1.0994  0.3021 -0.6414
 6427TIP3    H240697   0.541   6.589   5.284  0.4646 -0.6338  1.0442
 6428TIP3   OH240698   1.848   2.936   4.006 -0.4157 -0.3764 -0.1667
 6428TIP3    H140699   1.869   2.865   4.066  4.8247 -0.4016 -1.5669
 6428TIP3    H240700   1.828   2.892   3.923  1.4605 -0.3177 -0.6806
 6429TIP3   OH240701   1.651   6.093  12.719  0.3517 -0.0822  0.1105
 6429TIP3    H140702   1.682   6.047  12.640 -0.9532 -2.1065  0.7056
 6429TIP3    H240703   1.575   6.043  12.748  1.0238  0.3519  2.9123
 6430TIP3   OH240704   1.261   4.916  13.702  0.0617 -0.5072  0.4712
 6430TIP3    H140705   1.332   4.853  13.712 -1.6434 -2.4934  0.7870
 6430TIP3    H240706   1.181   4.863  13.709 -1.5580  1.9872  3.2344
 6431TIP3   OH240707   2.659   1.584   6.699  0.0997  0.7529  0.0644
 6431TIP3    H140708   2.592   1.606   6.763 -0.6530  0.7309 -0.7100
 6431TIP3    H240709   2.657   1.655   6.635  0.6837  0.6581 -0.0720
 6432TIP3   OH240710   1.477   1.832  14.463  0.1546 -0.4012 -0.4785
 6432TIP3    H140711   1.554   1.816  14.517 -0.2771 -1.5088 -0.1570
 6432TIP3    H240712   1.508   1.892  14.395  1.1346 -0.3320  0.0005
 6433TIP3   OH240713   1.170   0.024  11.610  0.1234  0.6604 -0.5041
 6433TIP3    H140714   1.111  -0.045  11.579  0.8215  0.7243 -2.0460
 6433TIP3    H240715   1.152   0.099  11.554 -1.4382  2.1934  1.8887
 6434TIP3   OH240716   3.124   4.457   1.374 -0.0037 -0.0139  0.7263
 6434TIP3    H140717   3.052   4.520   1.381 -0.6944 -0.8554  1.5726
 6434TIP3    H240718   3.127   4.415   1.461  1.5479  0.0353  0.7241
 6435TIP3   OH240719   5.275   1.586  12.047 -0.5934 -0.8540  0.3060
 6435TIP3    H140720   5.199   1.625  12.090 -2.3436 -1.5702 -1.9490
 6435TIP3    H240721   5.314   1.659  11.998 -0.3670 -0.7042  0.6988
 6436TIP3   OH240722   6.355   3.049  12.343  0.1190 -0.8833  0.1678
 6436TIP3    H140723   6.301   3.077  12.268 -0.9728 -0.7232  0.9874
 6436TIP3    H240724   6.367   3.129  12.394 -0.6933 -1.3559  1.1090
 6437TIP3   OH240725   6.034   5.707  11.799 -0.1259 -0.0546  0.5923
 6437TIP3    H140726   6.004   5.623  11.764  1.5149 -0.2307 -0.5375
 6437TIP3    H240727   5.982   5.772  11.753  1.4107 -0.3192 -1.7143
 6438TIP3   OH240728   0.869   6.679   3.849 -0.8731  0.0805 -0.9642
 6438TIP3    H140729   0.947   6.735   3.850 -0.5149 -0.3941  0.8392
 6438TIP3    H240730   0.831   6.693   3.762  0.4057  1.4382 -1.3502
 6439TIP3   OH240731   4.179   0.584  12.840  0.7003 -0.4780 -0.5372
 6439TIP3    H140732   4.232   0.510  12.871 -1.1230 -1.8580 -0.5388
 6439TIP3    H240733   4.110   0.543  12.787 -1.0235  1.1137  0.3655
 6440TIP3   OH240734   3.123   4.667   3.734 -0.2439  0.6291  0.3820
 6440TIP3    H140735   3.118   4.572   3.725 -1.3983  0.7092  0.0414
 6440TIP3    H240736   3.170   4.681   3.816 -0.8818 -0.2437  0.9063
 6441TIP3   OH240737   2.640   1.866   0.189 -0.1683  0.1738  0.9108
 6441TIP3    H140738   2.726   1.909   0.182 -0.2737  0.1802 -0.9404
 6441TIP3    H240739   2.592   1.897   0.112 -1.6736 -0.2137  1.6572
 6442TIP3   OH240740   0.341   5.794   2.796  0.2814 -0.0422  0.2079
 6442TIP3    H140741   0.309   5.883   2.816 -0.7012 -0.4939  0.7292
 6442TIP3    H240742   0.425   5.808   2.752  0.4641  1.1287  0.8854
 6443TIP3   OH240743   0.878   3.717  13.505 -0.0921  0.2190 -0.0649
 6443TIP3    H140744   0.794   3.671  13.508 -0.3763  0.6342 -1.2102
 6443TIP3    H240745   0.943   3.647  13.500 -0.2763 -0.1365  1.9191
 6444TIP3   OH240746   1.483   4.983   1.917  0.1997 -0.1913  0.5638
 6444TIP3    H140747   1.534   5.042   1.973 -0.1269  0.1011  0.5565
 6444TIP3    H240748   1.411   5.037   1.884 -0.4684 -0.7453  1.0637
 6445TIP3   OH240749   5.375   1.783   2.910  0.0039  0.7638  0.6030
 6445TIP3    H140750   5.285   1.751   2.904 -0.8432  3.2478 -1.2386
 6445TIP3    H240751   5.373   1.846   2.982  0.3112  0.7245  0.6462
 6446TIP3   OH240752   5.556   2.066  13.799 -0.2207  0.0642  0.0749
 6446TIP3    H140753   5.544   1.971  13.791 -1.5346  0.2809 -0.8149
 6446TIP3    H240754   5.644   2.081  13.765 -1.2935 -0.4739 -3.3624
 6447TIP3   OH240755   6.473   5.486  16.552  0.1086  0.1495  0.1657
 6447TIP3    H140756   6.480   5.397  16.518 -0.3618  0.3815 -0.5475
 6447TIP3    H240757   6.448   5.474  16.644 -0.5713 -0.4508 -0.0873
 6448TIP3   OH240758   5.166   3.054   4.466  0.7947 -0.1221  0.0110
 6448TIP3    H140759   5.091   3.019   4.417  0.6433  0.1352  0.0541
 6448TIP3    H240760   5.185   2.989   4.532  0.8102 -0.3373 -0.2032
 6449TIP3   OH240761   1.351   1.142   0.581  0.5135  0.1316 -0.2825
 6449TIP3    H140762   1.276   1.095   0.617  0.4435  1.8986  2.0491
 6449TIP3    H240763   1.389   1.080   0.518  0.1541 -2.8787  2.2098
 6450TIP3   OH240764   4.792   6.142   5.303 -0.0258  0.3691  0.3742
 6450TIP3    H140765   4.863   6.079   5.292  0.8416  1.4560 -0.6251
 6450TIP3    H240766   4.773   6.172   5.214 -0.1876  1.7264  0.8380
 6451TIP3   OH240767   5.367   5.847   1.006 -0.3756 -0.4424  0.8677
 6451TIP3    H140768   5.278   5.883   1.006  0.1266  0.9094  2.3867
 6451TIP3    H240769   5.371   5.792   0.928 -2.0770  0.6447 -0.0308
 6452TIP3   OH240770   0.715   4.446  15.940 -0.1870 -0.0958  0.0361
 6452TIP3    H140771   0.785   4.396  15.982 -1.1950 -1.5375  0.0742
 6452TIP3    H240772   0.658   4.472  16.011  0.3992  1.2918  0.0336
 6453TIP3   OH240773   5.846   3.089   3.837  0.5674 -0.2664  0.3072
 6453TIP3    H140774   5.760   3.048   3.824  0.8966 -1.0476  0.5682
 6453TIP3    H240775   5.883   3.095   3.749 -0.6073  2.0535 -0.1309
 6454TIP3   OH240776   3.759   5.204   4.010  0.5103 -0.2530 -0.1879
 6454TIP3    H140777   3.665   5.212   3.994  0.7018 -0.6457 -1.7025
 6454TIP3    H240778   3.797   5.284   3.974  0.9244 -0.9903 -1.4838
 6455TIP3   OH240779   4.844   4.244  16.654  0.0280  0.4161  0.1301
 6455TIP3    H140780   4.916   4.247  16.716 -0.5353  1.8605  0.7363
 6455TIP3    H240781   4.788   4.173  16.685  1.6076 -1.3695 -0.8835
 6456TIP3   OH240782   3.129   3.304  13.508 -0.3974  0.3086 -0.0353
 6456TIP3    H140783   3.094   3.306  13.419  0.4398 -1.3292 -0.4421
 6456TIP3    H240784   3.051   3.297  13.563 -0.8587 -0.3301 -0.7426
 6457TIP3   OH240785   4.588   2.470   2.503 -0.0508  0.8851  0.0944
 6457TIP3    H140786   4.663   2.439   2.552  1.3246  1.2894 -1.6697
 6457TIP3    H240787   4.513   2.424   2.541  0.9229  1.1369  2.4735
 6458TIP3   OH240788   4.192   5.303   5.658 -0.0458  0.1869  0.5544
 6458TIP3    H140789   4.108   5.267   5.629 -0.6122  1.7039  0.2478
 6458TIP3    H240790   4.253   5.229   5.652 -1.1800 -0.7400  0.0589
 6459TIP3   OH240791   1.703   1.508   3.707  0.3782  0.1333  1.0845
 6459TIP3    H140792   1.621   1.548   3.734 -1.5882 -1.3414 -2.1730
 6459TIP3    H240793   1.752   1.579   3.665 -0.9487  0.2627 -0.3138
 6460TIP3   OH240794   5.134   2.884  14.936 -0.1716  0.0135  0.1058
 6460TIP3    H140795   5.116   2.888  15.030  1.1233 -0.7289  0.4006
 6460TIP3    H240796   5.223   2.916  14.927 -0.2974  0.1057 -0.8826
 6461TIP3   OH240797   3.550   5.741   6.640 -0.3683  0.4567  0.2543
 6461TIP3    H140798   3.579   5.832   6.633  1.0661  0.0884  1.0566
 6461TIP3    H240799   3.600   5.694   6.573 -2.0478  0.4316 -1.0532
 6462TIP3   OH240800   1.046   3.077   5.158  0.2044  0.3239  0.0631
 6462TIP3    H140801   0.994   3.015   5.108 -2.3427  1.5440  1.0229
 6462TIP3    H240802   1.055   3.153   5.100 -2.2637  1.5112  1.0660
 6463TIP3   OH240803   3.193   3.278   1.555  0.3723  0.4699  0.1715
 6463TIP3    H140804   3.284   3.254   1.574  0.1380  0.6329  1.6052
 6463TIP3    H240805   3.164   3.326   1.632 -0.7750  0.8999 -0.4986
 6464TIP3   OH240806   5.284   6.039  11.815 -0.0632  0.3630  0.6238
 6464TIP3    H140807   5.309   5.949  11.839  1.0196  0.3869 -0.3376
 6464TIP3    H240808   5.349   6.066  11.751  1.8974  3.1827  3.4983
 6465TIP3   OH240809   0.596   5.715  15.999 -0.7181  0.2924 -0.0476
 6465TIP3    H140810   0.636   5.669  15.925 -1.7134  1.5577 -1.4514
 6465TIP3    H240811   0.644   5.684  16.076  1.0634 -0.3113 -1.3322
 6466TIP3   OH240812   1.417   3.946   4.028 -0.1132 -0.1579  0.2361
 6466TIP3    H140813   1.345   3.975   4.084 -0.0017  1.3600 -0.3753
 6466TIP3    H240814   1.495   3.986   4.065  0.1253 -0.1071 -0.3047
 6467TIP3   OH240815   6.419   3.041   1.488 -0.7461 -0.0719 -0.3047
 6467TIP3    H140816   6.471   2.971   1.450  0.2848  0.3872  0.2252
 6467TIP3    H240817   6.344   3.050   1.429 -0.1809 -0.6800 -1.1396
 6468TIP3   OH240818   5.457   3.031   1.240 -0.4479 -0.4895 -0.2202
 6468TIP3    H140819   5.536   3.034   1.293 -0.4508 -0.0759 -0.2299
 6468TIP3    H240820   5.413   3.114   1.258 -0.4025 -0.2979 -0.9309
 6469TIP3   OH240821   0.130   4.477   5.286  0.0332  0.3291  0.7642
 6469TIP3    H140822   0.061   4.525   5.334  0.4407 -0.3835  2.1245
 6469TIP3    H240823   0.095   4.466   5.198 -1.9252 -0.6141  1.5996
 6470TIP3   OH240824   5.832   4.929  15.155 -0.2756  0.2565  0.1027
 6470TIP3    H140825   5.810   4.923  15.248  1.0922 -0.2951  0.4163
 6470TIP3    H240826   5.874   5.014  15.146  2.8663 -1.0734  0.7955
 6471TIP3   OH240827   2.253   5.306   4.621 -0.0151 -0.1616 -0.2733
 6471TIP3    H140828   2.203   5.229   4.593 -0.7330  0.6545 -1.2703
 6471TIP3    H240829   2.292   5.341   4.541 -0.1386  0.8262  0.0854
 6472TIP3   OH240830   1.635   6.344   1.871  0.0463 -0.4979  0.2175
 6472TIP3    H140831   1.630   6.370   1.779 -0.1859 -3.0479 -0.5527
 6472TIP3    H240832   1.641   6.249   1.870 -0.0443 -0.6273  2.8669
 6473TIP3   OH240833   2.136   3.731  16.239  0.6711 -0.0562 -0.4174
 6473TIP3    H140834   2.106   3.668  16.173  0.6090  0.0372 -0.4794
 6473TIP3    H240835   2.231   3.717  16.243  0.3944 -1.8310  1.3060
 6474TIP3   OH240836   5.841   2.858   4.129 -0.3141  0.1897 -0.3473
 6474TIP3    H140837   5.858   2.783   4.186  1.2719  0.8012  0.0567
 6474TIP3    H240838   5.883   2.836   4.046 -0.1501  0.4643 -0.3400
 6475TIP3   OH240839   5.354   4.902   4.567 -0.1409  0.2896  0.1790
 6475TIP3    H140840   5.407   4.823   4.561 -0.4615  0.0888 -0.0459
 6475TIP3    H240841   5.265   4.870   4.584 -0.6494  0.4788 -1.9041
 6476TIP3   OH240842   0.609   2.940  12.733  0.1346 -0.2577 -0.8204
 6476TIP3    H140843   0.555   3.012  12.700  1.1414  1.4183  0.9622
 6476TIP3    H240844   0.693   2.951  12.689  0.5820  0.2741  0.1232
 6477TIP3   OH240845   6.554   5.809  14.236  0.0881  0.1243  0.4171
 6477TIP3    H140846   6.531   5.770  14.152  0.2662 -0.6152  0.7089
 6477TIP3    H240847   6.499   5.887  14.242 -0.4980 -0.2518 -0.0263
 6478TIP3   OH240848   4.279   3.616   4.560 -1.0402 -0.1864 -0.0925
 6478TIP3    H140849   4.330   3.558   4.504 -0.7543 -0.2774  0.2633
 6478TIP3    H240850   4.194   3.622   4.516 -0.2460  1.2120 -1.5214
 6479TIP3   OH240851   4.151   4.382  11.491  0.4668  0.0718  0.4635
 6479TIP3    H140852   4.238   4.393  11.529 -0.9871 -0.0038  4.2021
 6479TIP3    H240853   4.101   4.457  11.522 -1.3464 -0.9476  0.1823
 6480TIP3   OH240854   4.909   4.713   2.299 -0.1286 -0.2194  0.3164
 6480TIP3    H140855   4.965   4.772   2.350  0.5989 -0.3767 -0.2917
 6480TIP3    H240856   4.950   4.627   2.309 -0.0587 -0.2748 -0.4284
 6481TIP3   OH240857   6.530   3.768  14.792 -0.4938  0.4116 -0.2346
 6481TIP3    H140858   6.531   3.856  14.830 -0.9993  1.2524 -2.0719
 6481TIP3    H240859   6.588   3.774  14.716 -1.2129 -0.6141 -0.8868
 6482TIP3   OH240860   5.716   0.957   1.904  0.0285  0.0493 -0.1387
 6482TIP3    H140861   5.726   1.039   1.952 -2.0887 -0.3470  1.1187
 6482TIP3    H240862   5.787   0.902   1.936 -0.0511  0.5508  0.9580
 6483TIP3   OH240863   1.507   6.409  14.996 -0.5728  0.0557  0.8498
 6483TIP3    H140864   1.551   6.489  15.024  0.4701  0.8178 -2.5056
 6483TIP3    H240865   1.419   6.437  14.973 -0.1143  0.3661 -0.6205
 6484TIP3   OH240866   6.465   0.094  11.980 -0.5550 -0.1221 -0.6453
 6484TIP3    H140867   6.538   0.048  11.939 -0.1210 -0.4215  0.4302
 6484TIP3    H240868   6.480   0.186  11.958  0.1923 -0.1731 -0.3867
 6485TIP3   OH240869   5.374   1.943  13.390  0.5938 -0.1823 -0.7201
 6485TIP3    H140870   5.414   1.959  13.304 -1.7263 -0.1148 -1.8808
 6485TIP3    H240871   5.330   2.025  13.412 -0.4702 -0.7949 -0.4523
 6486TIP3   OH240872   2.390   2.526  17.163 -0.2339 -0.1212 -0.1546
 6486TIP3    H140873   2.357   2.447  17.120  4.2673 -0.7728 -3.1254
 6486TIP3    H240874   2.342   2.598  17.121 -0.5176 -1.0732 -1.5397
 6487TIP3   OH240875   3.071   2.213   0.343  0.1886  0.3282 -0.7018
 6487TIP3    H140876   3.102   2.132   0.382  0.1096  1.3951  1.7432
 6487TIP3    H240877   3.101   2.209   0.252 -0.7173 -2.8479 -0.9716
 6488TIP3   OH240878   5.270   0.604  13.331  0.0780 -0.3402 -0.2212
 6488TIP3    H140879   5.321   0.538  13.284 -0.6906 -1.1932  0.1103
 6488TIP3    H240880   5.291   0.588  13.423 -0.0472 -0.0706 -0.1461
 6489TIP3   OH240881   5.529   1.182   3.515 -0.0473 -0.1963  0.0649
 6489TIP3    H140882   5.599   1.234   3.555 -0.5144  1.7290 -1.5023
 6489TIP3    H240883   5.484   1.142   3.590  1.1930  0.4960  1.2455
 6490TIP3   OH240884   2.300   1.756   5.363 -0.1842 -0.5205  0.1766
 6490TIP3    H140885   2.289   1.735   5.270 -0.8673  1.3517 -0.2138
 6490TIP3    H240886   2.262   1.843   5.372 -0.1760 -0.6925  2.2428
 6491TIP3   OH240887   4.332   6.025  17.296 -0.2863  0.0426 -0.2633
 6491TIP3    H140888   4.300   5.970  17.224  1.5531 -0.9460 -0.3844
 6491TIP3    H240889   4.277   6.001  17.371  0.4772 -2.0466 -0.3101
 6492TIP3   OH240890   0.808   5.324  16.727 -0.7694  0.1948 -0.4228
 6492TIP3    H140891   0.747   5.375  16.673  0.2200 -1.2869 -3.1598
 6492TIP3    H240892   0.773   5.235  16.724  0.3607 -0.2707 -0.2626
 6493TIP3   OH240893   3.773   0.279  16.290 -0.0705  0.1703  0.0887
 6493TIP3    H140894   3.678   0.284  16.299  0.0676  1.7324  1.2752
 6493TIP3    H240895   3.803   0.240  16.372  0.2667 -1.6933 -0.8672
 6494TIP3   OH240896   6.381   6.426  12.575  0.1784 -0.4511  0.2969
 6494TIP3    H140897   6.399   6.332  12.577  0.6909 -0.3826 -0.5037
 6494TIP3    H240898   6.408   6.457  12.661  1.4993 -0.7926  0.0380
 6495TIP3   OH240899   5.019   4.861  13.274  0.2162  0.8791  0.6402
 6495TIP3    H140900   5.065   4.797  13.327 -0.8507 -1.2956 -0.9157
 6495TIP3    H240901   5.083   4.890  13.209 -0.1361 -1.0747 -0.6398
 6496TIP3   OH240902   6.614   3.949  10.943  1.0547 -0.4510 -0.2285
 6496TIP3    H140903   6.542   4.006  10.916  1.3690  0.0306 -0.0681
 6496TIP3    H240904   6.591   3.863  10.908  0.1891 -0.3990  0.2067
 6497TIP3   OH240905   6.511   0.222   4.364 -0.1635 -0.3454  0.5013
 6497TIP3    H140906   6.462   0.142   4.378 -0.5167 -0.0299  1.0994
 6497TIP3    H240907   6.461   0.290   4.410  0.5891  0.0598  0.7385
 6498TIP3   OH240908   6.236   6.375  14.073  0.5526 -0.0732 -0.3941
 6498TIP3    H140909   6.306   6.331  14.121  0.3482 -1.2542 -1.1249
 6498TIP3    H240910   6.270   6.383  13.984  1.1506  2.5900 -0.0134
 6499TIP3   OH240911   5.900   5.602   1.776  0.2580 -1.1444 -0.5391
 6499TIP3    H140912   5.880   5.510   1.763  0.8305 -1.0257 -2.6628
 6499TIP3    H240913   5.990   5.602   1.811 -0.3377 -1.4037  1.0749
 6500TIP3   OH240914   4.365   3.511   1.376  0.4573  0.1910 -0.1949
 6500TIP3    H140915   4.442   3.470   1.416  0.2744 -1.5139 -1.4756
 6500TIP3    H240916   4.291   3.468   1.419  0.2544 -0.4215 -1.1408
 6501TIP3   OH240917   1.319   2.233  12.012 -0.1487  0.5461  0.0153
 6501TIP3    H140918   1.358   2.284  12.083  0.5808 -1.5045  1.1774
 6501TIP3    H240919   1.337   2.284  11.933  3.1167  0.7076  0.7367
 6502TIP3   OH240920   6.430   5.805  17.114  0.6798 -0.3558 -0.3904
 6502TIP3    H140921   6.366   5.786  17.183 -0.6816 -0.2218 -1.5543
 6502TIP3    H240922   6.497   5.857  17.158 -0.3027 -0.0140  0.7876
 6503TIP3   OH240923   0.321   1.925  12.954 -0.0588 -0.3952 -0.0202
 6503TIP3    H140924   0.242   1.922  13.007 -0.0743  2.3848  0.2501
 6503TIP3    H240925   0.344   2.018  12.949  4.3188 -1.1512  1.5432
 6504TIP3   OH240926   5.952   5.865  12.204 -0.6384  0.5825  0.4939
 6504TIP3    H140927   6.045   5.846  12.188 -0.6806  0.4969  0.3450
 6504TIP3    H240928   5.917   5.885  12.117 -0.9367 -0.1704  0.4361
 6505TIP3   OH240929   6.728   0.178  10.809 -0.0981 -0.2734  0.6530
 6505TIP3    H140930   6.807   0.231  10.801 -0.0243 -0.2615  1.4142
 6505TIP3    H240931   6.751   0.110  10.872 -1.4727  1.2319  2.9222
 6506TIP3   OH240932   2.705   1.283  16.646  0.3295  0.3911 -0.1372
 6506TIP3    H140933   2.723   1.270  16.553 -0.7289 -0.9660 -0.1858
 6506TIP3    H240934   2.792   1.287  16.687  0.7953  0.9368 -1.1663
 6507TIP3   OH240935   2.623   0.305   4.006 -0.3030 -0.0326 -0.0380
 6507TIP3    H140936   2.642   0.397   4.022  2.4999 -0.5009 -0.0639
 6507TIP3    H240937   2.601   0.270   4.092  2.5684 -0.0486  0.8119
 6508TIP3   OH240938   0.729   1.671  12.580  0.0672 -0.2035 -0.0977
 6508TIP3    H140939   0.692   1.619  12.651 -0.1129 -1.4620 -1.0738
 6508TIP3    H240940   0.810   1.625  12.556 -0.0429  0.0094 -0.9199
 6509TIP3   OH240941   2.801   6.367  13.117 -0.2823 -0.1537 -0.1966
 6509TIP3    H140942   2.769   6.447  13.074  0.7915  0.3258 -0.1256
 6509TIP3    H240943   2.783   6.298  13.053  0.2890  0.3915 -0.9600
 6510TIP3   OH240944   2.610   6.059   3.055 -0.0578  0.3567  0.6175
 6510TIP3    H140945   2.662   6.137   3.075 -0.1669  0.4391  0.5778
 6510TIP3    H240946   2.557   6.084   2.980  1.1613 -0.3117 -0.5086
 6511TIP3   OH240947   6.229   4.162  16.090  0.0564  0.0181  0.1274
 6511TIP3    H140948   6.262   4.205  16.168 -1.3445 -0.1605  0.8479
 6511TIP3    H240949   6.138   4.138  16.112 -0.1408 -0.6510 -1.2967
 6512TIP3   OH240950   2.358   4.749  13.836  0.4183 -0.0331  0.1667
 6512TIP3    H140951   2.432   4.805  13.855  0.4459  0.5757 -1.5795
 6512TIP3    H240952   2.286   4.785  13.889  0.9708  0.2860  0.7134
 6513TIP3   OH240953   6.073   5.924  17.114  0.1822 -0.0585  0.4759
 6513TIP3    H140954   6.113   5.921  17.027 -3.1025  0.1135 -1.1845
 6513TIP3    H240955   6.108   5.847  17.159  0.3635 -1.3664 -1.7613
 6514TIP3   OH240956   2.276   5.435  13.877 -0.7854 -0.5013  0.7041
 6514TIP3    H140957   2.222   5.398  13.807 -1.1822 -0.9798  1.2465
 6514TIP3    H240958   2.353   5.378  13.880 -0.6511 -0.3307  0.4925
 6515TIP3   OH240959   3.752   3.482   3.933 -0.2285 -0.1458 -0.5573
 6515TIP3    H140960   3.747   3.422   4.007 -1.2382 -1.4446 -1.6191
 6515TIP3    H240961   3.738   3.426   3.856  0.4827  1.1980 -1.7135
 6516TIP3   OH240962   2.566   6.136  10.993  0.1451  0.2565 -0.8249
 6516TIP3    H140963   2.524   6.050  10.998  1.7624 -0.5515 -0.5595
 6516TIP3    H240964   2.496   6.196  10.965 -0.9881 -1.1458 -1.0701
 6517TIP3   OH240965   6.107   1.957   6.848  0.1743  0.0525 -0.2709
 6517TIP3    H140966   6.043   2.013   6.803  0.2698  0.4703  0.1107
 6517TIP3    H240967   6.184   2.013   6.860  0.0571  0.0361  0.6446
 6518TIP3   OH240968   5.786   3.318   5.459 -0.5237 -0.3582 -0.3782
 6518TIP3    H140969   5.794   3.346   5.368 -2.9443  0.0950 -0.5180
 6518TIP3    H240970   5.876   3.316   5.492  0.4319 -0.9266 -2.8676
 6519TIP3   OH240971   5.590   1.237   5.335 -0.4003 -0.1062 -0.1832
 6519TIP3    H140972   5.518   1.293   5.363 -0.7734  0.5183 -2.2205
 6519TIP3    H240973   5.657   1.298   5.303  1.2935 -0.6487  2.0823
 6520TIP3   OH240974   2.339   1.977  12.058  0.0430 -0.2882  0.0700
 6520TIP3    H140975   2.279   1.926  12.112  1.0923 -2.4140 -0.6788
 6520TIP3    H240976   2.415   1.993  12.113 -0.7920  1.6587  0.7301
 6521TIP3   OH240977   3.047   0.190  14.816  0.0933  0.2998  0.2831
 6521TIP3    H140978   3.081   0.104  14.840 -3.0055 -2.0597 -2.8632
 6521TIP3    H240979   3.090   0.211  14.733  0.3675  1.5737  0.7123
 6522TIP3   OH240980   4.068   1.643   3.893  0.0506  0.1291  0.1395
 6522TIP3    H140981   4.013   1.565   3.882  0.0581 -0.0272  1.0761
 6522TIP3    H240982   4.074   1.654   3.988  0.9080  0.6673  0.0351
 6523TIP3   OH240983   3.304   0.476  13.629 -0.0840 -0.3108 -0.2221
 6523TIP3    H140984   3.310   0.568  13.601  0.3337 -0.7441 -1.6257
 6523TIP3    H240985   3.265   0.481  13.716  1.4760  1.3241  0.4627
 6524TIP3   OH240986   4.964   6.362   2.922 -0.4235 -0.1830 -0.1575
 6524TIP3    H140987   5.032   6.415   2.881  1.6896 -0.5831  2.5893
 6524TIP3    H240988   4.962   6.391   3.013 -2.4564 -1.6870  0.3513
 6525TIP3   OH240989   3.668   4.202   4.839 -0.4817  0.2838 -0.2611
 6525TIP3    H140990   3.601   4.135   4.829  1.2686 -1.4820 -0.9415
 6525TIP3    H240991   3.726   4.167   4.907  0.4801  1.1029 -0.6419
 6526TIP3   OH240992   3.877   0.286   1.136 -0.6943 -0.4007 -0.3479
 6526TIP3    H140993   3.847   0.195   1.142  1.0663 -0.9502  0.5988
 6526TIP3    H240994   3.955   0.282   1.081  0.4417  0.2502  1.1560
 6527TIP3   OH240995   2.816   2.880  14.087 -0.1480  0.1193  0.0394
 6527TIP3    H140996   2.814   2.785  14.075  0.4516  0.1023  0.0060
 6527TIP3    H240997   2.910   2.901  14.088 -0.2785  0.8851 -1.3808
 6528TIP3   OH240998   6.313   4.716   1.476 -0.4970  0.3786 -0.0044
 6528TIP3    H140999   6.301   4.805   1.441  0.7837 -0.0645 -1.7009
 6528TIP3    H241000   6.403   4.694   1.455  0.0025 -0.4270  2.6411
 6529TIP3   OH241001   5.466   1.462  14.110 -0.2346 -0.4376  0.0291
 6529TIP3    H141002   5.432   1.375  14.087  0.0376 -0.3091 -0.9140
 6529TIP3    H241003   5.561   1.452  14.109 -0.1953 -0.0822 -0.3141
 6530TIP3   OH241004   2.501   6.706   2.392  0.2628  0.1742 -0.3660
 6530TIP3    H141005   2.435   6.667   2.335 -0.0645  1.0502 -0.5922
 6530TIP3    H241006   2.488   6.664   2.477  0.1747 -0.4928 -0.7030
 6531TIP3   OH241007   2.725   6.379  11.851  0.1521 -0.0810 -0.6495
 6531TIP3    H141008   2.669   6.388  11.774  0.4547 -0.6037 -0.9389
 6531TIP3    H241009   2.812   6.408  11.822 -0.1878  1.8642  0.1174
 6532TIP3   OH241010   4.772   2.653   1.557  0.3129 -0.1069 -0.0991
 6532TIP3    H141011   4.692   2.602   1.571  0.1950  0.2483  0.5260
 6532TIP3    H241012   4.836   2.588   1.528  0.7085 -1.0029  2.5257
 6533TIP3   OH241013   6.159   4.267   0.121  0.1032 -0.4209 -0.1077
 6533TIP3    H141014   6.100   4.307   0.057 -1.9753  0.8551  2.4374
 6533TIP3    H241015   6.224   4.220   0.068 -2.4584 -0.8791 -3.0906
 6534TIP3   OH241016   5.056   3.876  13.996 -0.0206 -0.1577  0.0330
 6534TIP3    H141017   5.063   3.871  14.091  0.8672  0.3281  0.0030
 6534TIP3    H241018   5.145   3.863  13.965  0.4449  3.3986 -0.5500
 6535TIP3   OH241019   5.355   5.118  12.836  0.7845  0.1636 -0.0317
 6535TIP3    H141020   5.336   5.027  12.810  2.2795  0.0607 -0.8967
 6535TIP3    H241021   5.272   5.164  12.822  0.1694 -0.9386 -0.1932
 6536TIP3   OH241022   3.680   2.178   0.062  0.5389  0.2724  0.2147
 6536TIP3    H141023   3.591   2.168   0.028  0.7233 -0.2749 -0.1179
 6536TIP3    H241024   3.689   2.110   0.128  0.5649  0.6121  0.5672
 6537TIP3   OH241025   1.300   0.155   4.315 -0.0358 -0.1931  0.2289
 6537TIP3    H141026   1.336   0.068   4.298  0.2199  0.0107 -0.2948
 6537TIP3    H241027   1.267   0.150   4.404 -0.8643 -1.1139 -0.1082
 6538TIP3   OH241028   1.554   1.579   6.425 -0.0717  0.4985  0.0047
 6538TIP3    H141029   1.640   1.550   6.395 -0.8831 -1.0632 -0.9239
 6538TIP3    H241030   1.552   1.555   6.518  1.2438  2.4611  0.6082
 6539TIP3   OH241031   3.639   3.199   6.254  0.8757  0.3614 -0.0614
 6539TIP3    H141032   3.558   3.247   6.266  0.5111 -0.3632  0.4940
 6539TIP3    H241033   3.692   3.220   6.331  0.8200  0.0864  0.0547
 6540TIP3   OH241034   0.170   0.875   0.150 -0.1175 -0.5946 -0.2066
 6540TIP3    H141035   0.102   0.898   0.087  0.2211  0.4685 -0.2017
 6540TIP3    H241036   0.151   0.930   0.227  0.9529  0.0049 -0.3506
 6541TIP3   OH241037   5.573   3.627   3.792  0.2164 -0.3163 -0.0777
 6541TIP3    H141038   5.552   3.715   3.822  0.6980 -0.7263  1.5782
 6541TIP3    H241039   5.649   3.601   3.845  1.0019 -1.1820 -1.5653
 6542TIP3   OH241040   3.574   3.928  12.625 -0.4174  0.3844  0.0166
 6542TIP3    H141041   3.668   3.938  12.644 -0.4492 -0.6544  0.8013
 6542TIP3    H241042   3.566   3.838  12.593 -0.9544  0.9144 -1.4092
 6543TIP3   OH241043   0.020   4.745  16.422 -0.4724  0.4081 -0.1888
 6543TIP3    H141044   0.016   4.663  16.470 -0.7938 -0.1241 -1.0975
 6543TIP3    H241045   0.052   4.809  16.485  1.0100 -0.6699  0.2011
 6544TIP3   OH241046   2.405   3.545   3.939  0.0966  0.4779  0.2720
 6544TIP3    H141047   2.346   3.511   3.872  0.5615 -0.3930  0.2881
 6544TIP3    H241048   2.402   3.640   3.927 -0.2183  0.3662 -0.6514
 6545TIP3   OH241049   5.384   1.048   6.605  0.1036  0.1770 -0.3677
 6545TIP3    H141050   5.402   1.139   6.630 -0.2861  0.8333 -2.2660
 6545TIP3    H241051   5.438   0.996   6.664  0.1224  1.6176  0.9648
 6546TIP3   OH241052   4.540   2.469   0.076 -0.2310  0.1027 -0.3385
 6546TIP3    H141053   4.490   2.492   0.155 -1.5941 -1.6574 -0.6188
 6546TIP3    H241054   4.527   2.543   0.017 -0.6635  0.6535  0.4239
 6547TIP3   OH241055   4.454   4.568  16.877 -0.2762 -0.5623  0.4399
 6547TIP3    H141056   4.468   4.483  16.835 -1.6432 -1.7758  2.3106
 6547TIP3    H241057   4.528   4.621  16.847  0.1422 -2.0884 -1.4925
 6548TIP3   OH241058   0.834   1.063  12.731  0.5324  0.3442 -0.5540
 6548TIP3    H141059   0.807   1.051  12.821 -1.0294 -0.5467 -1.1024
 6548TIP3    H241060   0.928   1.044  12.730  0.3168 -0.8290  0.6475
 6549TIP3   OH241061   6.235   3.022  15.062  0.6153  0.5498 -0.1647
 6549TIP3    H141062   6.162   3.075  15.030  1.4805  1.4547 -0.7289
 6549TIP3    H241063   6.211   2.932  15.042 -1.7607  0.4575  2.5327
 6550TIP3   OH241064   3.398   3.857  14.465  0.0285  0.1841  0.0161
 6550TIP3    H141065   3.339   3.932  14.474 -0.5939 -0.2552 -0.2885
 6550TIP3    H241066   3.359   3.790  14.522  0.4289  0.0043  0.0794
 6551TIP3   OH241067   4.410   5.901   0.525  0.0027  0.1851 -0.2278
 6551TIP3    H141068   4.353   5.977   0.515 -0.2030 -0.0250 -0.6903
 6551TIP3    H241069   4.495   5.929   0.493  0.6576  1.0484  2.0533
 6552TIP3   OH241070   5.866   3.554  11.188  0.5374  0.2036 -0.0971
 6552TIP3    H141071   5.829   3.535  11.274  1.3662 -1.3204 -0.0443
 6552TIP3    H241072   5.902   3.471  11.159  0.8445  0.8519 -1.6488
 6553TIP3   OH241073   5.787   0.238  17.157 -0.3430 -0.3614 -0.1607
 6553TIP3    H141074   5.761   0.318  17.110  1.5772 -0.3939 -1.4022
 6553TIP3    H241075   5.709   0.212  17.206 -2.6717 -0.5356 -3.6109
 6554TIP3   OH241076   6.496   2.332  12.196 -0.5177 -0.1539 -0.4523
 6554TIP3    H141077   6.514   2.418  12.233 -1.8520 -0.0848  0.0869
 6554TIP3    H241078   6.498   2.345  12.101  1.0172  0.0782 -0.4057
 6555TIP3   OH241079   1.224   1.811   4.284  0.3220  0.1899 -0.0094
 6555TIP3    H141080   1.131   1.819   4.305 -0.0169 -0.9697 -0.9573
 6555TIP3    H241081   1.247   1.896   4.247 -0.0504  0.8921  1.3095
 6556TIP3   OH241082   2.693   2.112  15.924  0.4957 -0.1282  0.1278
 6556TIP3    H141083   2.633   2.055  15.971 -0.6176 -0.9036 -2.0795
 6556TIP3    H241084   2.757   2.052  15.885 -1.4880 -0.2228 -3.3862
 6557TIP3   OH241085   4.375   4.141   0.046  0.0158  0.7698 -0.1932
 6557TIP3    H141086   4.285   4.170   0.026 -0.2001  0.3016  0.0948
 6557TIP3    H241087   4.365   4.079   0.118  0.3259 -1.1555 -1.7452
 6558TIP3   OH241088   6.611   6.050  10.886 -0.2421 -0.1042  0.3081
 6558TIP3    H141089   6.699   6.085  10.876  0.6423 -1.2797  3.1245
 6558TIP3    H241090   6.565   6.076  10.806  2.7394  0.2372 -1.4055
 6559TIP3   OH241091   4.773   3.748   2.731 -0.1312  0.4373 -0.2500
 6559TIP3    H141092   4.697   3.712   2.685  0.6937 -0.7335 -0.7358
 6559TIP3    H241093   4.847   3.695   2.701  0.5867  0.2584  1.6981
 6560TIP3   OH241094   0.758   4.406   5.806 -0.0773 -0.1263 -0.1001
 6560TIP3    H141095   0.728   4.317   5.787 -0.2551 -0.3730  1.2568
 6560TIP3    H241096   0.713   4.461   5.741 -1.0568 -0.8595 -0.0679
 6561TIP3   OH241097   3.939   0.235   3.616  0.1454 -0.4515  0.2256
 6561TIP3    H141098   4.031   0.234   3.645  1.3460 -2.2712 -3.0925
 6561TIP3    H241099   3.921   0.328   3.600  1.3452 -0.0344  1.1311
 6562TIP3   OH241100   5.378   2.055  14.682  0.1576  0.3041 -0.4556
 6562TIP3    H141101   5.368   1.975  14.631  0.9521  0.2793 -0.5812
 6562TIP3    H241102   5.290   2.091  14.688 -0.6726 -1.8339  1.6697
 6563TIP3   OH241103   0.419   5.190   2.557  0.4567  0.2669 -0.1996
 6563TIP3    H141104   0.382   5.267   2.512 -1.9150  0.3979  1.7914
 6563TIP3    H241105   0.487   5.227   2.614 -0.3755  0.8830  0.4280
 6564TIP3   OH241106   3.940   0.540  16.454 -0.6453  0.1609 -0.1703
 6564TIP3    H141107   3.943   0.493  16.538  0.4514  0.7906  0.1661
 6564TIP3    H241108   4.006   0.609  16.463  0.9574 -0.9847 -2.2798
 6565TIP3   OH241109   1.270   0.108  17.271 -0.1553  0.2554 -0.6045
 6565TIP3    H141110   1.226   0.176  17.220  0.5625  0.1582 -1.3679
 6565TIP3    H241111   1.329   0.065  17.209  0.6314  0.0363  0.2722
 6566TIP3   OH241112   1.149   0.887  14.436  0.0113  0.2581 -0.6695
 6566TIP3    H141113   1.217   0.936  14.390  1.2684 -1.4974 -0.7574
 6566TIP3    H241114   1.067   0.913  14.392  0.6632  1.8460 -1.0356
 6567TIP3   OH241115   6.505   1.957  16.354 -0.3837 -0.5172  0.0049
 6567TIP3    H141116   6.555   1.897  16.409 -0.1025 -0.5705 -0.3042
 6567TIP3    H241117   6.461   1.901  16.290 -3.3675 -0.8203  2.1359
 6568TIP3   OH241118   5.115   3.595  14.714  0.3239 -0.1150 -0.5479
 6568TIP3    H141119   5.070   3.678  14.731 -0.2286 -0.9202  2.3647
 6568TIP3    H241120   5.204   3.610  14.744  0.2835 -0.4972 -0.2361
 6569TIP3   OH241121   2.402   0.827  15.259  0.2493 -0.0554 -0.1286
 6569TIP3    H141122   2.455   0.755  15.224 -0.4797 -0.9842  0.6121
 6569TIP3    H241123   2.393   0.888  15.186 -0.7372 -1.6525 -1.4107
 6570TIP3   OH241124   0.659   5.212   1.940  0.1788 -0.4621 -0.0651
 6570TIP3    H141125   0.705   5.129   1.944  0.8218 -0.1122 -0.0106
 6570TIP3    H241126   0.601   5.204   1.864  0.8807 -0.6450 -0.6014
 6571TIP3   OH241127   5.467   2.408  14.965 -0.7285  0.3910 -0.1939
 6571TIP3    H141128   5.413   2.332  14.941  0.6663 -0.2835 -1.3207
 6571TIP3    H241129   5.467   2.409  15.060  0.4877 -1.9947 -0.1033
 6572TIP3   OH241130   6.479   1.999   5.079 -0.2822 -0.4264 -0.2801
 6572TIP3    H141131   6.416   1.978   5.148 -1.2231  0.4113 -0.8450
 6572TIP3    H241132   6.437   1.968   4.999 -0.6094  1.3018 -0.8295
 6573TIP3   OH241133   6.328   0.162   0.980 -0.2200 -0.0078 -0.1956
 6573TIP3    H141134   6.393   0.135   0.915  0.1711 -0.2712  0.2932
 6573TIP3    H241135   6.335   0.257   0.982  1.0795 -0.0907  0.7592
 6574TIP3   OH241136   5.107   2.885  15.727  0.1413 -0.0732 -0.3623
 6574TIP3    H141137   5.043   2.820  15.696  0.5055  0.3631 -2.1582
 6574TIP3    H241138   5.114   2.869  15.821  0.1656 -2.5974 -0.7170
 6575TIP3   OH241139   1.837   2.575   1.372  0.3321 -0.3188 -0.2845
 6575TIP3    H141140   1.921   2.533   1.353  0.4596 -0.4113  0.4468
 6575TIP3    H241141   1.835   2.582   1.468 -0.2156  0.2595 -0.3321
 6576TIP3   OH241142   1.364   6.379  13.325  0.4621  0.0447  0.1010
 6576TIP3    H141143   1.332   6.446  13.385 -1.1242 -0.6098  0.0377
 6576TIP3    H241144   1.302   6.381  13.251  1.4388 -0.2611 -0.7508
 6577TIP3   OH241145   4.422   3.731   3.981 -0.6338 -0.2038  0.3337
 6577TIP3    H141146   4.442   3.687   3.898 -0.4763 -1.6870  1.1276
 6577TIP3    H241147   4.394   3.818   3.955 -1.5239 -0.9439 -1.3451
 6578TIP3   OH241148   3.142   1.728  13.150  0.7365 -0.0986 -0.3233
 6578TIP3    H141149   3.048   1.741  13.135  1.0391  0.7989 -1.6917
 6578TIP3    H241150   3.160   1.640  13.117  0.4971 -0.0031 -0.7140
 6579TIP3   OH241151   3.689   6.212   3.477  0.4780 -0.0512 -0.0173
 6579TIP3    H141152   3.758   6.278   3.484  1.2437 -0.6980 -1.1549
 6579TIP3    H241153   3.709   6.149   3.547  1.1560 -0.3279 -0.4500
 6580TIP3   OH241154   5.531   6.721  17.142 -0.0705  0.0678  0.1579
 6580TIP3    H141155   5.438   6.700  17.129  0.0535 -0.6121  0.3039
 6580TIP3    H241156   5.531   6.793  17.205 -0.5029  0.1987  0.0135
 6581TIP3   OH241157   0.991   6.732  14.507 -0.5262 -0.3309  0.2738
 6581TIP3    H141158   0.926   6.691  14.565 -0.7003 -1.2032 -0.5242
 6581TIP3    H241159   1.072   6.683  14.523 -0.5281 -0.4505 -0.0914
 6582TIP3   OH241160   3.097   6.454   1.631 -0.0216  0.0163  0.0560
 6582TIP3    H141161   3.080   6.449   1.725 -0.0281  0.3758  0.0774
 6582TIP3    H241162   3.151   6.533   1.620 -0.4586  0.2784 -0.2944
 6583TIP3   OH241163   2.172   2.771   5.118 -0.2406 -0.5900  0.1046
 6583TIP3    H141164   2.161   2.766   5.213  0.5476 -0.7286  0.1951
 6583TIP3    H241165   2.091   2.811   5.087 -1.4189 -2.4518  0.6221
 6584TIP3   OH241166   2.957   6.433  15.552 -0.7585  0.1866  0.2092
 6584TIP3    H141167   3.012   6.356  15.548  0.3137  0.9767 -0.8804
 6584TIP3    H241168   2.941   6.447  15.646  2.6650  1.1138  0.7887
 6585TIP3   OH241169   4.079   6.424  17.180  0.5830  0.4062 -0.4372
 6585TIP3    H141170   4.088   6.518  17.195  1.1058  1.0559 -3.8490
 6585TIP3    H241171   3.986   6.405  17.193  0.3586  1.5332 -0.3470
 6586TIP3   OH241172   2.474   3.569  13.621 -0.1461 -0.0614 -0.0912
 6586TIP3    H141173   2.561   3.592  13.653 -0.1415 -0.7426  0.3852
 6586TIP3    H241174   2.424   3.547  13.700 -1.9426  3.9710  0.1970
 6587TIP3   OH241175   2.730   4.438  12.579 -0.2803  0.0504 -0.3977
 6587TIP3    H141176   2.695   4.522  12.550  0.5210 -0.2495 -2.3912
 6587TIP3    H241177   2.820   4.458  12.607 -0.3411 -0.0268 -0.1404
 6588TIP3   OH241178   6.155   5.943  12.478  0.6703 -0.2175  1.1062
 6588TIP3    H141179   6.102   5.892  12.539  0.6880  0.6411  1.8652
 6588TIP3    H241180   6.244   5.910  12.489  0.3695 -1.4647  0.0388
 6589TIP3   OH241181   5.400   1.127  15.298  0.0575 -0.2185 -0.4309
 6589TIP3    H141182   5.398   1.091  15.387 -0.0536  0.9250  0.0463
 6589TIP3    H241183   5.331   1.081  15.252 -0.3784 -0.3097  0.2935
 6590TIP3   OH241184   0.408   2.998   1.494 -0.1933 -1.2989 -0.2971
 6590TIP3    H141185   0.478   3.030   1.552 -0.1567  1.0796 -1.5389
 6590TIP3    H241186   0.450   2.987   1.409 -0.8826 -1.9628 -0.5692
 6591TIP3   OH241187   4.486   0.220   0.808 -0.5364  0.8192  0.3790
 6591TIP3    H141188   4.549   0.148   0.814 -0.4266  0.9729  1.2055
 6591TIP3    H241189   4.530   0.285   0.753 -0.4478  0.4429  0.0050
 6592TIP3   OH241190   4.199   6.487  16.933  0.3678  0.2328 -0.1037
 6592TIP3    H141191   4.210   6.395  16.910  0.9934  0.5250 -1.0387
 6592TIP3    H241192   4.166   6.486  17.023 -0.2090 -0.9060 -0.3169
 6593TIP3   OH241193   4.009   1.502   5.637 -0.0950  0.1702 -0.1548
 6593TIP3    H141194   4.015   1.419   5.683 -1.1489  0.2615  0.1612
 6593TIP3    H241195   4.100   1.524   5.616  0.1606 -1.2785 -0.6598
 6594TIP3   OH241196   0.051   3.037  11.005  0.5660  0.0238  0.2244
 6594TIP3    H141197   0.109   3.096  11.054  1.7047 -3.0323  2.9212
 6594TIP3    H241198   0.091   3.029  10.919  1.3283  1.7510  0.3770
 6595TIP3   OH241199   6.200   6.322  16.686 -0.1986 -0.1331  0.0638
 6595TIP3    H141200   6.234   6.238  16.717 -0.0309  0.6139  2.0687
 6595TIP3    H241201   6.165   6.304  16.598  1.7333 -1.8027 -0.4177
 6596TIP3   OH241202   4.334   2.229   2.401 -0.5964  0.3802  0.3375
 6596TIP3    H141203   4.254   2.184   2.428 -1.2839  1.3014 -0.1121
 6596TIP3    H241204   4.325   2.317   2.437  0.9634  0.0651  1.6575
 6597TIP3   OH241205   6.543   3.415  11.463 -0.0495  0.7890 -0.1415
 6597TIP3    H141206   6.527   3.350  11.531  0.2600 -0.5393 -1.3081
 6597TIP3    H241207   6.602   3.372  11.401  0.9044  2.4893 -0.4947
 6598TIP3   OH241208   0.467   3.726   4.733  0.1789  0.7179 -0.0583
 6598TIP3    H141209   0.415   3.683   4.664 -1.2056  1.0160  0.7593
 6598TIP3    H241210   0.458   3.668   4.809  1.1051  0.7482  0.0767
 6599TIP3   OH241211   2.709   3.064   3.976  0.0722  0.0473 -0.1355
 6599TIP3    H141212   2.690   3.001   4.046 -0.2191 -0.1837 -0.4164
 6599TIP3    H241213   2.802   3.086   3.988  0.2185 -0.5475 -0.1157
 6600TIP3   OH241214   5.019   0.967  15.411 -0.7411  0.1126 -1.1932
 6600TIP3    H141215   5.065   0.986  15.493 -1.9008  1.6666 -0.8513
 6600TIP3    H241216   5.034   0.873  15.396  0.7243  0.1179 -0.0011
 6601TIP3   OH241217   3.086   2.610   6.851  0.0860  0.2572  0.1865
 6601TIP3    H141218   3.117   2.628   6.762  2.7206 -0.4349  0.8626
 6601TIP3    H241219   3.056   2.519   6.849  1.1595 -0.1140  0.2030
 6602TIP3   OH241220   5.324   0.645  15.168  0.2914  0.4933 -0.3081
 6602TIP3    H141221   5.314   0.584  15.242 -0.9542  0.8781 -0.1277
 6602TIP3    H241222   5.324   0.588  15.091 -2.2880  0.2826 -0.2414
 6603TIP3   OH241223   1.597   3.859   3.499 -0.4908 -0.1846 -0.1495
 6603TIP3    H141224   1.689   3.859   3.525 -0.5238 -0.9625 -0.0008
 6603TIP3    H241225   1.589   3.933   3.439  0.4825 -0.7268 -0.9869
 6604TIP3   OH241226   3.217   5.567  14.666 -0.6267 -0.1156  0.2650
 6604TIP3    H141227   3.199   5.618  14.587  0.8805  3.3619  1.9491
 6604TIP3    H241228   3.136   5.517  14.681 -1.6063  0.4731 -2.4430
 6605TIP3   OH241229   3.804   5.020   5.478 -0.1388  0.1031 -0.0221
 6605TIP3    H141230   3.876   5.083   5.480 -0.0890  0.1256 -1.4007
 6605TIP3    H241231   3.839   4.944   5.431 -1.7193  1.1478 -3.2065
 6606TIP3   OH241232   1.093   5.038  13.515  0.1844  0.0303  0.1339
 6606TIP3    H141233   1.163   4.974  13.527 -0.0467 -0.2876 -0.1819
 6606TIP3    H241234   1.114   5.109  13.576 -0.2474 -0.9124  1.4301
 6607TIP3   OH241235   1.299   4.597  15.547 -0.0708 -0.3032 -0.5050
 6607TIP3    H141236   1.388   4.566  15.565  0.2077  1.1281  0.8545
 6607TIP3    H241237   1.291   4.677  15.599 -1.9257 -0.0181 -1.1540
 6608TIP3   OH241238   0.640   4.421  14.154 -0.4605 -0.9640 -0.4297
 6608TIP3    H141239   0.633   4.492  14.218  0.2199 -0.5104 -0.8469
 6608TIP3    H241240   0.602   4.345  14.199  1.3978 -1.0539  1.1402
 6609TIP3   OH241241   4.165   3.753  13.179  0.4400  0.9271  0.2076
 6609TIP3    H141242   4.181   3.773  13.086  0.9713 -0.4997 -0.0261
 6609TIP3    H241243   4.166   3.839  13.222  0.1888  1.6172 -1.0949
 6610TIP3   OH241244   1.700   4.631  14.832  0.1920  0.2899 -0.5598
 6610TIP3    H141245   1.749   4.706  14.795  0.2272  0.9689  0.8018
 6610TIP3    H241246   1.612   4.640  14.795 -0.3586  2.1567  1.0342
 6611TIP3   OH241247   0.290   3.371   3.964 -0.1027  0.0840  0.1882
 6611TIP3    H141248   0.262   3.452   4.007  0.6006 -0.0770  0.9716
 6611TIP3    H241249   0.308   3.310   4.036  0.6027 -0.3579 -0.3463
 6612TIP3   OH241250   3.380   2.113  16.010  0.2598  0.3725  0.3784
 6612TIP3    H141251   3.311   2.094  16.074  0.1749 -0.8700 -0.0611
 6612TIP3    H241252   3.449   2.156  16.062 -0.4314  0.7551  1.0014
 6613TIP3   OH241253   3.058   5.563   1.254  0.0810 -0.2562  0.1735
 6613TIP3    H141254   3.095   5.557   1.342 -1.1012  2.4143  0.9601
 6613TIP3    H241255   3.024   5.476   1.236  2.3014 -1.4526  1.4210
 6614TIP3   OH241256   6.306   5.254  13.066  0.3465 -0.1581  0.1182
 6614TIP3    H141257   6.369   5.214  13.126  0.5489 -0.1943 -0.1196
 6614TIP3    H241258   6.229   5.197  13.070  0.1999  0.0728  0.6662
 6615TIP3   OH241259   3.301   5.768  16.614 -0.1008 -0.2795  0.2073
 6615TIP3    H141260   3.303   5.677  16.644  1.2096 -0.3717 -0.0778
 6615TIP3    H241261   3.275   5.763  16.522  4.6302 -0.9554 -1.3834
 6616TIP3   OH241262   5.091   4.338  12.362 -0.4926  0.4114  0.1320
 6616TIP3    H141263   5.128   4.343  12.449  1.3254  0.7468 -0.6195
 6616TIP3    H241264   5.119   4.419  12.319  1.0116 -0.9495 -1.6089
 6617TIP3   OH241265   4.984   5.066   4.172  0.7936 -0.1746  0.6236
 6617TIP3    H141266   4.963   5.016   4.251  1.5230  0.2377  1.0871
 6617TIP3    H241267   4.991   5.000   4.103  0.9710 -0.6236  1.0675
 6618TIP3   OH241268   1.414   1.564   3.672  0.8046  0.5274  0.0773
 6618TIP3    H141269   1.371   1.565   3.757  0.4933  1.5573 -0.0819
 6618TIP3    H241270   1.377   1.639   3.625 -1.3432 -1.6658 -2.1187
 6619TIP3   OH241271   1.415   5.503   2.779  0.5041 -0.2249  0.0829
 6619TIP3    H141272   1.456   5.451   2.848 -0.3278 -0.9142  0.0730
 6619TIP3    H241273   1.388   5.584   2.823  0.4675 -0.4307  0.4389
 6620TIP3   OH241274   4.764   4.503  12.097  0.5515 -0.0686 -0.0368
 6620TIP3    H141275   4.796   4.420  12.062 -1.0845 -1.9199  2.4126
 6620TIP3    H241276   4.842   4.554  12.116  1.7179 -1.7106 -0.2347
 6621TIP3   OH241277   1.857   3.622  14.888  0.7016 -0.3415 -0.4278
 6621TIP3    H141278   1.768   3.638  14.859  0.4343 -0.3053  0.4034
 6621TIP3    H241279   1.878   3.535  14.853  1.0785  0.4652 -2.3417
 6622TIP3   OH241280   4.506   3.014  13.990 -0.7819  0.4109 -0.3081
 6622TIP3    H141281   4.429   2.959  14.005 -0.9547  0.4181 -1.1100
 6622TIP3    H241282   4.492   3.091  14.045 -0.2832 -0.5590  1.2498
 6623TIP3   OH241283   3.399   4.909   2.315  0.3741 -0.3826 -0.3600
 6623TIP3    H141284   3.450   4.969   2.370 -0.5606  0.3136 -0.2163
 6623TIP3    H241285   3.381   4.835   2.372 -1.6648  0.8846  0.7770
 6624TIP3   OH241286   0.043   2.706  11.610 -0.2479 -0.0678 -0.0518
 6624TIP3    H141287  -0.042   2.726  11.571 -0.7631  1.1128  1.5897
 6624TIP3    H241288   0.106   2.719  11.539 -1.1980  1.4878 -0.6563
 6625TIP3   OH241289   0.022   0.417  14.167 -0.2693 -0.5715  0.3330
 6625TIP3    H141290   0.021   0.408  14.263  1.6896 -0.8983  0.3665
 6625TIP3    H241291   0.003   0.509  14.152  0.3288 -0.2982  1.1163
 6626TIP3   OH241292   4.434   6.200  12.745  0.0831 -0.0746 -0.4898
 6626TIP3    H141293   4.339   6.197  12.731 -0.3234 -0.7857  1.9702
 6626TIP3    H241294   4.466   6.116  12.713 -0.3034 -0.3526 -0.1415
 6627TIP3   OH241295   5.646   6.628  15.330  0.5440  0.2027 -0.4388
 6627TIP3    H141296   5.702   6.614  15.253  1.1592  0.1158  0.0141
 6627TIP3    H241297   5.570   6.675  15.296  0.8091  0.1647 -1.1025
 6628TIP3   OH241298   2.045   5.985   1.072  0.1684 -0.1648  0.2336
 6628TIP3    H141299   1.977   5.953   1.131  0.9726 -2.4135  0.0354
 6628TIP3    H241300   2.045   5.923   0.999  2.5071 -0.3580  0.3021
 6629TIP3   OH241301   0.965   3.604  13.196  0.2239 -0.1648 -0.0175
 6629TIP3    H141302   0.881   3.581  13.158  0.0904  2.0782 -1.2251
 6629TIP3    H241303   0.970   3.552  13.276 -3.1073  0.8856  1.0490
 6630TIP3   OH241304   6.279   2.130   3.772 -0.3703  0.5385  0.0872
 6630TIP3    H141305   6.333   2.055   3.800 -0.9425 -0.4438 -1.3148
 6630TIP3    H241306   6.241   2.102   3.689 -1.3391  2.0562 -0.0143
 6631TIP3   OH241307   4.000   5.833  16.429 -0.0179  0.0129  0.0837
 6631TIP3    H141308   3.917   5.786  16.436 -0.2874  0.3044 -0.9983
 6631TIP3    H241309   3.981   5.907  16.372  0.2576  1.8122  2.2179
 6632TIP3   OH241310   2.739   1.565  15.151 -0.4719 -0.2703  0.1117
 6632TIP3    H141311   2.713   1.649  15.188  0.3189  0.5249 -1.0659
 6632TIP3    H241312   2.664   1.536  15.100  0.6252  1.8459 -2.9962
 6633TIP3   OH241313   5.024   4.354   3.839  0.9057  0.0770  0.0269
 6633TIP3    H141314   5.110   4.330   3.803 -0.0231 -1.1355 -1.5091
 6633TIP3    H241315   5.045   4.410   3.913  3.0631 -1.2832  0.5521
 6634TIP3   OH241316   2.771   4.589  15.066  0.5248  0.1681 -0.2620
 6634TIP3    H141317   2.820   4.642  15.129  2.6857 -2.2648  0.3147
 6634TIP3    H241318   2.838   4.532  15.027 -1.3757 -0.9777 -2.0107
 6635TIP3   OH241319   2.059   4.220  15.182 -0.5750  0.2352 -0.1123
 6635TIP3    H141320   2.031   4.136  15.145  1.3660  0.2343 -1.7267
 6635TIP3    H241321   2.124   4.253  15.121  0.2454  1.9379  1.5750
 6636TIP3   OH241322   0.452   2.083  12.440 -0.5103 -0.3079 -0.1786
 6636TIP3    H141323   0.403   2.001  12.435 -0.1745 -0.4896 -0.6669
 6636TIP3    H241324   0.479   2.090  12.531  1.5763 -2.0379 -0.5584
 6637TIP3   OH241325   3.435   1.482   6.220  0.0890 -0.1080  0.0780
 6637TIP3    H141326   3.479   1.412   6.171 -0.2950 -1.0198  0.9992
 6637TIP3    H241327   3.355   1.498   6.171  1.6744  2.0821 -2.0412
 6638TIP3   OH241328   5.881   3.615  12.532  0.3836 -0.2586  0.0234
 6638TIP3    H141329   5.903   3.562  12.456  0.6723  2.3536 -1.8720
 6638TIP3    H241330   5.785   3.619  12.531  0.2307 -2.3153  1.4188
 6639TIP3   OH241331   4.920   1.414  11.805  0.1259 -0.4363 -0.6271
 6639TIP3    H141332   5.014   1.410  11.823  0.2862  0.4026 -1.2379
 6639TIP3    H241333   4.898   1.507  11.813 -1.1149 -0.8456  1.7595
 6640TIP3   OH241334   5.456   6.417  15.810 -0.4122  0.4001  0.1859
 6640TIP3    H141335   5.430   6.466  15.888 -0.9228 -2.4098  1.8956
 6640TIP3    H241336   5.408   6.461  15.739 -1.5036  1.8347  1.7059
 6641TIP3   OH241337   2.689   4.165   2.962  0.1065 -0.1307 -0.1010
 6641TIP3    H141338   2.605   4.149   2.919 -0.4655  1.1448  0.4711
 6641TIP3    H241339   2.669   4.165   3.055  0.8914 -0.5181  0.0799
 6642TIP3   OH241340   0.211   0.852   3.790  0.8057  0.7134  0.1703
 6642TIP3    H141341   0.289   0.901   3.763  0.6133  1.3127  0.6906
 6642TIP3    H241342   0.238   0.760   3.784  2.3071  0.9136  2.3922
 6643TIP3   OH241343   0.617   0.621   2.436 -0.7973 -0.0117  0.0737
 6643TIP3    H141344   0.615   0.620   2.341  0.7793 -1.3349 -0.0021
 6643TIP3    H241345   0.655   0.706   2.459  1.0573 -0.6008 -0.6184
 6644TIP3   OH241346   4.142   1.366   4.205  0.5164 -0.1679  0.2695
 6644TIP3    H141347   4.187   1.438   4.162  1.1228 -0.3196  0.6340
 6644TIP3    H241348   4.117   1.400   4.290  0.8588 -0.4060  0.4662
 6645TIP3   OH241349   3.149   2.568   5.951  0.0123  0.3277 -0.2754
 6645TIP3    H141350   3.175   2.616   6.030 -0.5423  0.2842 -0.0643
 6645TIP3    H241351   3.185   2.480   5.964 -1.5176 -0.1869  0.7283
 6646TIP3   OH241352   2.047   0.989  11.616 -0.0193 -0.2612 -0.4267
 6646TIP3    H141353   2.016   0.909  11.573 -0.9012  0.3686 -0.9794
 6646TIP3    H241354   2.132   1.007  11.575 -0.3669 -0.2565 -1.1584
 6647TIP3   OH241355   1.653   3.100  15.298  0.3494 -0.1034 -0.9168
 6647TIP3    H141356   1.707   3.144  15.233  1.8071  0.4916  0.6091
 6647TIP3    H241357   1.659   3.007  15.276  3.5904 -0.2875  0.1991
 6648TIP3   OH241358   0.976   3.439  13.476  0.3936  0.6967  0.6995
 6648TIP3    H141359   0.898   3.385  13.465  0.6902  0.5828 -1.1029
 6648TIP3    H241360   1.047   3.387  13.441  0.7841  1.9570 -0.4886
 6649TIP3   OH241361   0.460   4.321   0.416 -0.3621  0.0356 -0.8765
 6649TIP3    H141362   0.428   4.266   0.487 -0.7259  0.4937 -0.6873
 6649TIP3    H241363   0.548   4.346   0.443 -1.1142  1.6181  0.2332
 6650TIP3   OH241364   3.642   5.605   2.667  0.5286 -0.8212 -0.7664
 6650TIP3    H141365   3.632   5.516   2.634  0.6497 -1.1996  0.1794
 6650TIP3    H241366   3.644   5.595   2.762 -1.6003  0.3918 -0.5162
 6651TIP3   OH241367   0.054   4.490  15.603 -0.5589 -0.3544 -0.2349
 6651TIP3    H141368   0.056   4.417  15.665  1.6389  0.9221  1.3746
 6651TIP3    H241369   0.059   4.568  15.659 -0.8119  0.9485 -1.9578
 6652TIP3   OH241370   2.857   5.362   6.262  0.4344 -0.1724  0.1631
 6652TIP3    H141371   2.878   5.425   6.193 -0.6534 -0.2714 -0.2764
 6652TIP3    H241372   2.793   5.408   6.317  0.8721 -0.3000  0.7823
 6653TIP3   OH241373   4.889   2.675   2.663  0.5109  0.1952  0.2226
 6653TIP3    H141374   4.888   2.657   2.569 -0.7014  3.0797 -0.4458
 6653TIP3    H241375   4.957   2.741   2.674  1.5973 -1.0968  1.6651
 6654TIP3   OH241376   3.565   4.737  15.955 -0.6102 -0.2870 -0.8457
 6654TIP3    H141377   3.530   4.805  15.899 -2.2438 -0.5807 -0.2285
 6654TIP3    H241378   3.561   4.773  16.044 -0.6942 -0.8688 -0.6064
 6655TIP3   OH241379   3.414   2.689  11.399  0.7804  0.0057  0.3752
 6655TIP3    H141380   3.343   2.642  11.353 -0.4710  0.0728  2.1480
 6655TIP3    H241381   3.458   2.739  11.330  0.4152 -1.6292 -1.1135
 6656TIP3   OH241382   2.545   0.501  13.805  0.0744 -0.6313 -0.7166
 6656TIP3    H141383   2.570   0.552  13.882  1.9528 -2.1379 -0.2438
 6656TIP3    H241384   2.462   0.460  13.830 -0.5615  0.7676 -0.4434
 6657TIP3   OH241385   5.422   1.471  13.672  0.2463  1.0778 -0.6148
 6657TIP3    H141386   5.407   1.545  13.612  0.3597  1.0390 -0.6916
 6657TIP3    H241387   5.517   1.468  13.683  0.4308 -0.2640 -2.1593
 6658TIP3   OH241388   1.528   5.843  11.916 -0.3189 -0.5066 -0.0748
 6658TIP3    H141389   1.459   5.887  11.966 -0.1371 -1.3114  0.9293
 6658TIP3    H241390   1.502   5.751  11.914 -0.4271 -0.4664 -1.6853
 6659TIP3   OH241391   6.083   3.180   2.390  0.1303  0.5818 -0.3730
 6659TIP3    H141392   6.178   3.188   2.394  0.1322  1.1238 -1.2479
 6659TIP3    H241393   6.061   3.114   2.456  1.1080  0.4700 -0.1543
 6660TIP3   OH241394   5.182   2.541   4.160  0.0702  0.4817  0.3271
 6660TIP3    H141395   5.228   2.620   4.132 -1.8643  1.3257 -0.5918
 6660TIP3    H241396   5.183   2.546   4.256 -0.3278  1.8128  0.2828
 6661TIP3   OH241397   6.374   3.059   2.606 -0.3861 -0.3557  0.0867
 6661TIP3    H141398   6.322   3.100   2.675 -1.1540 -3.1373  1.3318
 6661TIP3    H241399   6.455   3.031   2.650 -1.1760 -2.7791  0.1417
 6662TIP3   OH241400   5.166   4.566  17.268 -0.4912  0.1540  0.5444
 6662TIP3    H141401   5.117   4.544  17.188  0.5640  1.1858 -0.4128
 6662TIP3    H241402   5.129   4.650  17.296  0.7085  0.9767 -0.2238
 6663TIP3   OH241403   4.244   0.242   4.746 -0.1622 -0.2915  0.0444
 6663TIP3    H141404   4.170   0.299   4.726  0.4580  0.6298  0.3467
 6663TIP3    H241405   4.305   0.255   4.674  1.3045  1.7241  1.5489
 6664TIP3   OH241406   1.112   6.604  13.191 -0.5468 -0.2916  0.4506
 6664TIP3    H141407   1.137   6.542  13.122  0.7540 -1.2117  1.6896
 6664TIP3    H241408   1.018   6.592  13.202 -0.8290  0.0358 -1.2898
 6665TIP3   OH241409   2.437   0.222  11.663  0.2552  0.0808  0.1758
 6665TIP3    H141410   2.432   0.244  11.570 -0.3623 -0.9205 -0.0371
 6665TIP3    H241411   2.350   0.244  11.697  0.4390  0.3222  0.4962
 6666TIP3   OH241412   3.447   3.530  13.467  0.3173  0.2323  0.3011
 6666TIP3    H141413   3.368   3.545  13.414 -0.2378  0.6161  1.2055
 6666TIP3    H241414   3.501   3.607  13.451  0.8456 -0.3553 -0.8689
 6667TIP3   OH241415   0.525   3.835   0.836  0.3557  0.2178 -1.0941
 6667TIP3    H141416   0.566   3.759   0.876 -0.7908  1.3615  2.6448
 6667TIP3    H241417   0.472   3.799   0.764  1.8766 -2.1121 -1.1478
 6668TIP3   OH241418   4.135   3.341   2.584  0.3649 -0.0200  0.2588
 6668TIP3    H141419   4.213   3.385   2.618  1.1813 -1.2688  0.0777
 6668TIP3    H241420   4.136   3.360   2.490  0.1993  0.3231  0.3242
 6669TIP3   OH241421   5.664   4.176  11.315 -0.6808  0.2913 -0.1012
 6669TIP3    H141422   5.643   4.257  11.268 -1.9580 -0.7489 -1.3970
 6669TIP3    H241423   5.721   4.127  11.256 -1.1275 -0.3939  0.0173
 6670TIP3   OH241424   5.506   6.432   5.893 -0.9954  0.1721 -0.0330
 6670TIP3    H141425   5.528   6.503   5.953 -1.9109 -0.2599  0.8359
 6670TIP3    H241426   5.536   6.462   5.807  0.6967  0.6328  0.6949
 6671TIP3   OH241427   4.777   3.894  16.572  0.1299 -0.5017 -0.5122
 6671TIP3    H141428   4.860   3.888  16.525 -0.8245 -1.2613 -2.2119
 6671TIP3    H241429   4.713   3.917  16.504 -0.8146  1.7650  1.0450
 6672TIP3   OH241430   4.630   2.516  10.766  0.3291 -0.0454 -0.1211
 6672TIP3    H141431   4.571   2.591  10.763  1.7327  1.1671  1.0563
 6672TIP3    H241432   4.714   2.549  10.734  1.3246 -0.7206  1.6225
 6673TIP3   OH241433   1.567   5.384   2.959 -0.5838  0.1876  0.4472
 6673TIP3    H141434   1.580   5.299   2.917 -0.3453  0.3208  0.2482
 6673TIP3    H241435   1.583   5.368   3.051  1.9890  0.5393  0.1192
 6674TIP3   OH241436   1.111   2.539  13.547 -0.2496 -0.7043 -0.5331
 6674TIP3    H141437   1.052   2.477  13.589 -2.5432  0.4590 -1.8218
 6674TIP3    H241438   1.110   2.616  13.604 -1.4616 -0.0227 -1.4249
 6675TIP3   OH241439   1.232   4.101  16.548  0.0860 -0.6247 -0.0047
 6675TIP3    H141440   1.312   4.115  16.599  0.7320 -0.0281 -1.1425
 6675TIP3    H241441   1.213   4.185  16.508  0.2305 -1.3214 -1.6186
 6676TIP3   OH241442   4.390   1.329  13.567 -0.0781 -0.2747 -0.8495
 6676TIP3    H141443   4.323   1.298  13.506 -0.3516  0.8930 -1.1704
 6676TIP3    H241444   4.450   1.381  13.512 -1.9263  3.3690  0.2137
 6677TIP3   OH241445   1.783   0.187   4.908  0.2456  0.0647  0.0645
 6677TIP3    H141446   1.709   0.164   4.851  0.8195 -1.2296 -0.2005
 6677TIP3    H241447   1.846   0.229   4.850 -0.8470  2.5703  0.5689
 6678TIP3   OH241448   6.159   3.909   0.257 -0.5397 -0.4936 -0.3197
 6678TIP3    H141449   6.066   3.930   0.249 -0.7005 -1.1599 -0.2066
 6678TIP3    H241450   6.184   3.941   0.344 -0.1831  1.4447 -1.0737
 6679TIP3   OH241451   6.718   3.152   5.163 -0.0226 -0.0838 -0.3843
 6679TIP3    H141452   6.754   3.063   5.157 -1.1213 -0.5461 -0.4381
 6679TIP3    H241453   6.676   3.155   5.249 -0.9089  0.0184 -0.8115
 6680TIP3   OH241454   4.252   5.380   0.863  0.2884 -0.1439  0.0065
 6680TIP3    H141455   4.172   5.339   0.828  0.7720 -0.8043 -0.3470
 6680TIP3    H241456   4.319   5.361   0.798  0.6262  0.8702  0.0452
 6681TIP3   OH241457   0.586   1.069   0.650 -0.3986  0.0532 -0.0498
 6681TIP3    H141458   0.656   1.025   0.697  0.4773  0.5738 -0.8112
 6681TIP3    H241459   0.506   1.047   0.698  0.3306 -0.2425  1.0621
 6682TIP3   OH241460   4.467   3.115  16.670 -0.7370 -0.7447  0.7088
 6682TIP3    H141461   4.422   3.043  16.714  0.8216 -1.0733  1.8514
 6682TIP3    H241462   4.515   3.160  16.740 -0.8373  0.7930 -0.1478
 6683TIP3   OH241463   2.390   0.187  13.087  0.1277  0.2608 -0.3888
 6683TIP3    H141464   2.477   0.226  13.102 -0.5789  0.7598  3.7628
 6683TIP3    H241465   2.408   0.106  13.040  2.8396  0.5401 -0.0153
 6684TIP3   OH241466   5.560   2.439  16.285  0.1026  0.3901 -0.0752
 6684TIP3    H141467   5.572   2.533  16.297  3.9745  0.0389 -0.1262
 6684TIP3    H241468   5.625   2.398  16.342  0.5485 -2.1468 -2.2167
 6685TIP3   OH241469   3.425   1.384  14.508 -0.4239  0.4544 -0.2315
 6685TIP3    H141470   3.434   1.333  14.428 -0.9465 -3.8380  2.0904
 6685TIP3    H241471   3.488   1.455  14.500  0.0685 -0.2129 -4.0218
 6686TIP3   OH241472   3.335   2.379  14.958  0.4595  0.3780 -0.3679
 6686TIP3    H141473   3.295   2.446  15.013  1.1788 -0.2056  0.9190
 6686TIP3    H241474   3.289   2.385  14.875  0.0270  1.9848 -0.0462
 6687TIP3   OH241475   6.634   3.133  15.386  0.6593  0.4740 -0.7708
 6687TIP3    H141476   6.627   3.194  15.459  0.3761  1.3222 -1.4759
 6687TIP3    H241477   6.545   3.099  15.375  0.5160  0.9777 -1.2281
 6688TIP3   OH241478   1.782   6.319  14.390 -1.0291  0.5195 -0.3416
 6688TIP3    H141479   1.841   6.249  14.362 -0.0950  0.2364  2.1269
 6688TIP3    H241480   1.708   6.313  14.330  0.4615 -0.5033 -2.1859
 6689TIP3   OH241481   2.497   0.610  11.453 -0.3648 -0.2287  0.2861
 6689TIP3    H141482   2.477   0.535  11.397  0.3481 -1.0214  1.0798
 6689TIP3    H241483   2.592   0.615  11.453 -0.3855  0.2473  0.8034
 6690TIP3   OH241484   2.786   1.481   1.264 -0.1982 -0.3999 -0.1915
 6690TIP3    H141485   2.705   1.524   1.238 -0.8060  0.0891  2.2388
 6690TIP3    H241486   2.769   1.450   1.353  2.3221 -0.1053  0.4653
 6691TIP3   OH241487   6.664   4.669   2.536  1.0431  0.4047 -0.4719
 6691TIP3    H141488   6.725   4.663   2.463  0.2052  0.8961 -1.2341
 6691TIP3    H241489   6.700   4.611   2.603  2.5136  0.9257 -0.7714
 6692TIP3   OH241490   2.398   4.568   5.168  0.0419  0.4478  0.5371
 6692TIP3    H141491   2.334   4.517   5.218 -0.4941  0.9058  0.3270
 6692TIP3    H241492   2.462   4.504   5.139 -0.6375 -0.1137  0.2464
 6693TIP3   OH241493   0.736   0.013   1.073  0.1133 -0.9302  0.3468
 6693TIP3    H141494   0.779  -0.056   1.022  1.3866 -0.1815  0.3510
 6693TIP3    H241495   0.749   0.092   1.021  0.4393 -0.3438  1.2986
 6694TIP3   OH241496   2.744   6.268   3.134  0.5238 -0.0131  0.3252
 6694TIP3    H141497   2.789   6.352   3.129  0.3895  0.0203 -0.4844
 6694TIP3    H241498   2.812   6.205   3.157  0.7171  0.2428  0.4544
 6695TIP3   OH241499   6.241   3.487   3.861 -0.1328  0.6545  0.1660
 6695TIP3    H141500   6.302   3.556   3.888  1.2179  0.9621 -3.1868
 6695TIP3    H241501   6.281   3.449   3.783 -1.7714 -2.7141  0.7659
 6696TIP3   OH241502   3.265   1.786  13.960  0.2665  0.5062 -0.4786
 6696TIP3    H141503   3.290   1.813  14.048 -0.3856  0.0898 -0.1587
 6696TIP3    H241504   3.346   1.792  13.909  1.0354 -0.7886  0.5198
 6697TIP3   OH241505   0.592   5.716  13.850  0.2702  0.2871  0.0496
 6697TIP3    H141506   0.557   5.628  13.863 -4.3117  1.7455 -0.3719
 6697TIP3    H241507   0.578   5.760  13.934  0.2835  1.1972 -0.4066
 6698TIP3   OH241508   1.388   1.081   2.491 -0.2208 -0.2197  0.3626
 6698TIP3    H141509   1.461   1.019   2.500 -0.0439  0.2848  3.9915
 6698TIP3    H241510   1.311   1.026   2.478  0.3605 -0.9508 -0.0786
 6699TIP3   OH241511   4.975   2.986   5.497 -0.7119 -0.1106 -0.1511
 6699TIP3    H141512   4.882   2.993   5.480 -0.7471  1.3352  0.5515
 6699TIP3    H241513   5.016   3.047   5.436 -0.3608  0.4722  0.6570
 6700TIP3   OH241514   6.656   3.324   2.160 -0.5750  0.2946  0.2403
 6700TIP3    H141515   6.586   3.272   2.199  0.4798 -1.0776  0.3761
 6700TIP3    H241516   6.625   3.344   2.072 -1.3033  0.0667  0.4373
 6701TIP3   OH241517   3.021   4.857   5.807 -0.0684  0.5012 -0.1905
 6701TIP3    H141518   2.935   4.816   5.814 -0.0344  0.6349  1.1171
 6701TIP3    H241519   3.073   4.816   5.876  0.6154  1.1612 -0.3009
 6702TIP3   OH241520   3.219   6.332  15.679 -0.0916 -0.2243  0.4040
 6702TIP3    H141521   3.292   6.380  15.640 -0.1146  0.3910  1.0925
 6702TIP3    H241522   3.202   6.378  15.762 -1.9589  0.2937 -0.2313
 6703TIP3   OH241523   3.784   4.407   2.419 -0.5441 -0.0457 -0.2730
 6703TIP3    H141524   3.835   4.457   2.482 -0.6121 -2.0310  1.4677
 6703TIP3    H241525   3.787   4.459   2.339  1.0056  1.7285  0.8543
 6704TIP3   OH241526   3.130   6.231   3.078 -0.7032 -0.2671 -0.6728
 6704TIP3    H141527   3.174   6.309   3.112  0.2928 -1.2582  0.3888
 6704TIP3    H241528   3.196   6.189   3.023 -1.3296 -0.2236 -1.4642
 6705TIP3   OH241529   2.954   5.739   4.637  0.0807  0.2739 -0.0465
 6705TIP3    H141530   3.041   5.748   4.675 -0.4991  1.5114  1.0645
 6705TIP3    H241531   2.942   5.645   4.625  0.8341 -0.0559  1.5681
 6706TIP3   OH241532   5.436   4.209  15.180 -0.8070  0.0408 -0.2630
 6706TIP3    H141533   5.402   4.120  15.195  0.5210 -0.6306 -1.0021
 6706TIP3    H241534   5.385   4.264  15.239  0.0834 -1.5892  2.2117
 6707TIP3   OH241535   6.686   1.233   1.813  0.0341  0.0172 -0.1498
 6707TIP3    H141536   6.617   1.219   1.878  0.7779  1.1696  0.9382
 6707TIP3    H241537   6.681   1.156   1.756 -0.6811 -1.0184  1.2404
 6708TIP3   OH241538   4.032   2.401  11.731 -0.3917  0.2913 -0.0290
 6708TIP3    H141539   4.068   2.448  11.806 -0.7028  1.4924 -0.6032
 6708TIP3    H241540   4.091   2.327  11.718  2.4118  2.5734 -1.3925
 6709TIP3   OH241541   5.455   2.724  11.269 -0.1723  0.3211 -0.4795
 6709TIP3    H141542   5.461   2.631  11.246 -1.1880  0.1837 -0.2656
 6709TIP3    H241543   5.395   2.760  11.203 -0.7913  0.5428  0.1939
 6710TIP3   OH241544   1.611   6.034  14.565 -0.1358 -0.4384 -0.7390
 6710TIP3    H141545   1.665   6.099  14.611 -1.4579  0.9598 -1.0656
 6710TIP3    H241546   1.562   5.990  14.635  1.8823 -2.2359 -0.3697
 6711TIP3   OH241547   6.267   5.109  17.232  0.2465  0.5175 -0.4064
 6711TIP3    H141548   6.237   5.037  17.287 -0.6033  1.3555  0.2563
 6711TIP3    H241549   6.342   5.146  17.279 -0.6311  1.3886  0.3462
 6712TIP3   OH241550   5.465   3.595   3.277 -0.1514 -0.1058 -0.2927
 6712TIP3    H141551   5.533   3.586   3.344 -1.2189 -0.3185  0.7978
 6712TIP3    H241552   5.436   3.686   3.285 -1.1600 -0.4811  0.4167
 6713TIP3   OH241553   2.773   0.601  16.304 -0.1985 -0.1300 -0.1083
 6713TIP3    H141554   2.751   0.528  16.363 -1.7946  0.5744  0.2318
 6713TIP3    H241555   2.701   0.663  16.316  1.1109  1.4978 -0.4139
 6714TIP3   OH241556   4.028   0.792   0.889  0.4926  0.0087 -0.1874
 6714TIP3    H141557   4.012   0.708   0.846  1.3828 -0.0105 -0.4915
 6714TIP3    H241558   4.122   0.794   0.905  0.2526  0.2228  1.3609
 6715TIP3   OH241559   1.707   1.774  14.828  0.5781 -0.5144  0.4611
 6715TIP3    H141560   1.703   1.829  14.750 -1.4926  1.0802  1.5816
 6715TIP3    H241561   1.637   1.710  14.817 -2.8416  2.4634  2.7604
 6716TIP3   OH241562   5.564   4.536  14.495  0.1471  0.3209 -0.2397
 6716TIP3    H141563   5.498   4.596  14.528  1.7943  1.0460  1.9815
 6716TIP3    H241564   5.527   4.449  14.510  0.0414  0.6911  1.8288
 6717TIP3   OH241565   4.983   0.819  11.673 -0.4404  0.1354  0.5998
 6717TIP3    H141566   5.022   0.878  11.608 -1.2144  1.3814  1.2286
 6717TIP3    H241567   4.957   0.742  11.623  1.6758 -0.2242 -0.0479
 6718TIP3   OH241568   4.998   1.945  15.055 -0.1134  0.0533  0.2112
 6718TIP3    H141569   4.918   1.919  15.009 -0.4750 -0.1039  0.9115
 6718TIP3    H241570   5.003   1.885  15.130 -1.4311  2.4229  2.3831
 6719TIP3   OH241571   3.324   4.094  14.590  0.2237 -0.1731  0.2418
 6719TIP3    H141572   3.389   4.151  14.630 -0.0014 -0.6890  1.3903
 6719TIP3    H241573   3.264   4.153  14.545  0.2145  0.4774  1.0766
 6720TIP3   OH241574   3.598   1.956  16.673  0.1585  0.3841 -0.2804
 6720TIP3    H141575   3.551   1.937  16.592 -0.2202  0.4100 -0.0672
 6720TIP3    H241576   3.687   1.975  16.644  0.4376 -1.2079 -0.5621
 6721TIP3   OH241577   6.122   3.257   3.963 -0.8846 -0.0184 -0.0800
 6721TIP3    H141578   6.155   3.342   3.934  2.8652 -1.2379 -0.0221
 6721TIP3    H241579   6.046   3.277   4.018  0.0598  3.3139  0.2043
 6722TIP3   OH241580   5.910   3.645   3.558  0.2547 -0.6549  0.0831
 6722TIP3    H141581   5.952   3.683   3.635 -0.5193  1.1981 -0.3540
 6722TIP3    H241582   5.977   3.649   3.490 -1.0435  4.7342 -1.3693
 6723TIP3   OH241583   0.109   4.786  17.266 -0.2800 -0.4041  0.5118
 6723TIP3    H141584   0.183   4.843  17.290 -0.4034 -0.1081  0.1865
 6723TIP3    H241585   0.145   4.727  17.200  0.0751 -1.2560  1.4324
 6724TIP3   OH241586   5.705   6.180  12.869 -0.0535  0.3389  0.7751
 6724TIP3    H141587   5.614   6.162  12.845  0.9906 -2.5852 -1.6402
 6724TIP3    H241588   5.725   6.116  12.938  0.3284  0.5736  0.8872
 6725TIP3   OH241589   4.289   2.847  17.222  0.0891 -0.0936 -0.4707
 6725TIP3    H141590   4.331   2.932  17.236  1.0880 -0.5790 -0.4218
 6725TIP3    H241591   4.283   2.839  17.126  0.4521 -0.1846 -0.4865
 6726TIP3   OH241592   3.793   0.118   4.305 -0.0846  0.4281  0.1245
 6726TIP3    H141593   3.828   0.204   4.284 -0.4048  0.1019 -1.9973
 6726TIP3    H241594   3.781   0.119   4.400  0.6429  2.4222  0.2387
 6727TIP3   OH241595   4.581   0.050   3.131  0.0871  0.0553  0.0609
 6727TIP3    H141596   4.490   0.071   3.149 -0.0704 -0.5159 -0.0549
 6727TIP3    H241597   4.601  -0.024   3.189  0.0234 -0.8095 -0.9958
 6728TIP3   OH241598   3.211   4.002   0.877 -0.2500 -0.3232 -0.0627
 6728TIP3    H141599   3.118   4.022   0.890 -0.0085  0.9598 -0.1759
 6728TIP3    H241600   3.255   4.046   0.950  0.3440 -0.2435 -0.4662
 6729TIP3   OH241601   2.765   4.747   0.250  0.0602  0.8241 -0.1483
 6729TIP3    H141602   2.811   4.667   0.223  3.2590  2.0122  1.2371
 6729TIP3    H241603   2.749   4.795   0.169  0.1095 -0.2277 -0.7935
 6730TIP3   OH241604   1.523   6.491   1.625  0.4490 -0.2915 -0.0027
 6730TIP3    H141605   1.551   6.432   1.554  0.7474 -0.6600  0.4184
 6730TIP3    H241606   1.570   6.572   1.608 -2.1543  0.9221 -2.3200
 6731TIP3   OH241607   4.979   0.796  15.096 -0.1608 -0.5110  0.6469
 6731TIP3    H141608   5.021   0.790  15.010 -1.3579  1.4046 -0.1243
 6731TIP3    H241609   4.989   0.708  15.133  0.7042 -1.2918 -1.2808
 6732TIP3   OH241610   4.590   5.610  11.220  0.2127  0.5722 -0.2059
 6732TIP3    H141611   4.514   5.669  11.220 -0.9671 -0.8746  0.2914
 6732TIP3    H241612   4.562   5.535  11.168  0.0711 -1.3948  2.4793
 6733TIP3   OH241613   5.252   2.300   3.298 -0.2987 -0.1123  0.4472
 6733TIP3    H141614   5.262   2.393   3.274  1.6918 -0.4059  0.0090
 6733TIP3    H241615   5.338   2.274   3.331 -0.0960 -2.4171 -1.6150
 6734TIP3   OH241616   3.393   5.804   2.260  0.1453 -0.2968 -0.0958
 6734TIP3    H141617   3.381   5.733   2.323  0.3079  1.9094  2.5674
 6734TIP3    H241618   3.487   5.805   2.243  0.6810  1.3086  2.5128
 6735TIP3   OH241619   6.040   2.417   5.818  0.1758 -0.2788  0.4471
 6735TIP3    H141620   5.991   2.495   5.793  0.1645  0.1811  1.8220
 6735TIP3    H241621   6.132   2.444   5.812  0.1624  0.0095  1.3895
 6736TIP3   OH241622   1.522   2.424   3.623 -0.2378 -0.4771 -0.3172
 6736TIP3    H141623   1.485   2.336   3.620  0.9251 -0.9500 -1.9630
 6736TIP3    H241624   1.493   2.466   3.542  3.1034 -1.0761 -2.0081
 6737TIP3   OH241625   3.463   0.319   0.614  0.0305 -0.0355 -0.2091
 6737TIP3    H141626   3.472   0.387   0.547  1.3586  0.5472  0.5273
 6737TIP3    H241627   3.432   0.242   0.566  0.0190  0.6421 -1.3171
 6738TIP3   OH241628   4.347   4.527  16.522 -0.2515  1.4652  0.0720
 6738TIP3    H141629   4.324   4.613  16.489 -0.4290  1.6413  0.6491
 6738TIP3    H241630   4.310   4.523  16.610 -1.0153  0.4610 -0.2738
 6739TIP3   OH241631   2.733   6.559  16.593  0.1056 -0.1422 -0.5157
 6739TIP3    H141632   2.725   6.543  16.687 -2.7397  0.4093 -0.5811
 6739TIP3    H241633   2.768   6.648  16.587  1.6440 -0.6889 -0.0286
 6740TIP3   OH241634   5.302   4.173   5.797 -0.2141 -0.4851 -0.0229
 6740TIP3    H141635   5.339   4.243   5.745 -0.1066 -0.2091  0.4181
 6740TIP3    H241636   5.376   4.138   5.847 -0.2026 -1.1266 -0.4806
 6741TIP3   OH241637   6.261   5.301  12.415  0.2102  0.6334 -0.3136
 6741TIP3    H141638   6.340   5.276  12.367 -0.0376 -0.0473 -0.3821
 6741TIP3    H241639   6.223   5.218  12.444 -1.2289  0.8285 -1.4795
 6742TIP3   OH241640   6.484   3.524  13.254  0.2804 -0.2105  0.4325
 6742TIP3    H141641   6.445   3.580  13.187 -0.7619  1.3130  2.2295
 6742TIP3    H241642   6.507   3.443  13.207  0.0156  0.9504 -1.8202
 6743TIP3   OH241643   2.501   4.048  14.380  0.0888 -0.3350 -0.1085
 6743TIP3    H141644   2.414   4.082  14.400  0.0641 -1.1967  1.4642
 6743TIP3    H241645   2.531   4.100  14.305 -2.0384 -0.5046 -1.1378
 6744TIP3   OH241646   5.896   1.283  10.632 -0.5115  0.4105  0.2136
 6744TIP3    H141647   5.961   1.224  10.596 -3.1407 -1.3207 -2.1211
 6744TIP3    H241648   5.916   1.368  10.593  0.5990  0.0143 -0.1039
 6745TIP3   OH241649   2.682   3.835  11.841 -0.4155 -0.0104  0.1048
 6745TIP3    H141650   2.618   3.843  11.911  0.7185  0.2582  1.1399
 6745TIP3    H241651   2.721   3.749  11.853  1.2449  0.8228  1.1426
 6746TIP3   OH241652   3.520   4.408   2.782 -1.0530  0.3641 -0.2576
 6746TIP3    H141653   3.475   4.331   2.816  0.9482 -1.2112 -0.9585
 6746TIP3    H241654   3.572   4.440   2.856 -0.6030  0.0111 -0.4160
 6747TIP3   OH241655   0.914   2.311   1.501  0.2593  0.6983 -0.1366
 6747TIP3    H141656   0.924   2.308   1.406  1.1003 -0.0029 -0.0352
 6747TIP3    H241657   0.896   2.403   1.520 -5.7340  0.2031 -1.4956
 6748TIP3   OH241658   1.815   5.529  15.777 -0.2073 -0.2453  1.0678
 6748TIP3    H141659   1.749   5.461  15.793 -0.9489  0.5244  1.3364
 6748TIP3    H241660   1.821   5.576  15.860  0.4202 -0.0840  0.9298
 6749TIP3   OH241661   6.142   1.876  16.728 -0.1013 -0.0352  0.4734
 6749TIP3    H141662   6.221   1.932  16.728 -0.7108  0.8542  0.2209
 6749TIP3    H241663   6.088   1.912  16.799 -2.5793  2.8106 -2.5250
 6750TIP3   OH241664   0.455   0.900  13.021 -0.0739 -0.3103  0.6495
 6750TIP3    H141665   0.537   0.851  13.034  0.9807  0.9209 -1.0100
 6750TIP3    H241666   0.479   0.971  12.961 -2.6212 -0.5946 -0.8221
 6751TIP3   OH241667   2.787   4.658   2.905 -0.0629 -0.4632  0.1750
 6751TIP3    H141668   2.825   4.603   2.837  1.1298  1.9215 -1.2233
 6751TIP3    H241669   2.860   4.678   2.964 -0.2998  0.1722  0.2638
 6752TIP3   OH241670   1.747   2.305   4.277  0.2666 -0.7830  0.3650
 6752TIP3    H141671   1.770   2.398   4.267 -0.1865 -0.5764  1.1688
 6752TIP3    H241672   1.655   2.300   4.252  0.8682 -1.4691 -2.0455
 6753TIP3   OH241673   2.918   4.990   4.857 -0.4943 -0.2657 -0.4723
 6753TIP3    H141674   2.994   4.940   4.886 -0.2506  0.7681  0.7710
 6753TIP3    H241675   2.952   5.078   4.840 -1.1958 -0.1046 -1.1062
 6754TIP3   OH241676   1.307   4.092   2.001 -0.2755  0.1699 -0.0996
 6754TIP3    H141677   1.326   4.154   2.072 -0.2983  0.2795 -0.1894
 6754TIP3    H241678   1.240   4.034   2.038 -0.8105  0.6683 -0.2726
 6755TIP3   OH241679   4.246   6.526   5.688 -1.0059  0.0693  0.2889
 6755TIP3    H141680   4.165   6.574   5.678 -0.4944  0.5847 -1.8578
 6755TIP3    H241681   4.271   6.502   5.599  0.8858 -0.5967  0.9472
 6756TIP3   OH241682   5.343   0.624  12.629 -1.0530  0.1081 -0.5217
 6756TIP3    H141683   5.365   0.599  12.539 -0.2707 -0.6780 -0.1177
 6756TIP3    H241684   5.252   0.596  12.641 -1.4155  0.8951 -1.3015
 6757TIP3   OH241685   2.871   0.177  14.301 -0.0089 -0.0101  0.1195
 6757TIP3    H141686   2.816   0.184  14.223 -0.6629  0.3099  0.6048
 6757TIP3    H241687   2.918   0.260  14.304  0.4045 -0.2266 -0.2145
 6758TIP3   OH241688   4.162   0.750  15.918  0.2499  0.0991 -0.0370
 6758TIP3    H141689   4.085   0.734  15.863  0.0581  0.6803  0.0629
 6758TIP3    H241690   4.129   0.741  16.008 -0.0150  1.6772  0.0469
 6759TIP3   OH241691   1.738   5.571  14.431 -0.4016 -0.3791 -0.1674
 6759TIP3    H141692   1.807   5.637  14.433  0.1805 -0.9447 -0.8856
 6759TIP3    H241693   1.681   5.593  14.505  1.5978 -1.0264  1.6611
 6760TIP3   OH241694   4.022   6.702   2.785  0.3915 -0.5330 -0.0200
 6760TIP3    H141695   3.951   6.742   2.734  0.1341 -0.9407  0.0102
 6760TIP3    H241696   4.007   6.731   2.875 -0.9084 -2.1813  0.3392
 6761TIP3   OH241697   6.347   1.281   6.068  0.0594 -0.4489  1.1778
 6761TIP3    H141698   6.409   1.340   6.024  0.4602 -1.8085 -0.1979
 6761TIP3    H241699   6.403   1.215   6.110 -0.4181 -1.3990  0.3590
 6762TIP3   OH241700   1.219   5.070   5.780 -0.1225  0.3108 -0.3915
 6762TIP3    H141701   1.257   4.983   5.772 -1.8936 -0.4082 -1.7035
 6762TIP3    H241702   1.141   5.067   5.724 -1.4359  2.0592  1.2385
 6763TIP3   OH241703   4.530   4.741   0.513 -0.5394  0.8852 -0.0223
 6763TIP3    H141704   4.464   4.704   0.454 -0.9697  2.0507 -0.3081
 6763TIP3    H241705   4.481   4.804   0.566 -0.0615  0.1872  1.2756
 6764TIP3   OH241706   6.679   1.645   0.130  0.2265 -0.0695  0.1692
 6764TIP3    H141707   6.728   1.697   0.067 -1.6083 -0.6195 -1.8320
 6764TIP3    H241708   6.745   1.588   0.170  1.4377  0.1166 -1.4455
 6765TIP3   OH241709   2.582   5.003   4.416  0.1319  0.5153 -0.5602
 6765TIP3    H141710   2.598   5.043   4.502  0.8509  2.2593 -1.4565
 6765TIP3    H241711   2.490   5.019   4.399 -0.5654 -1.6505  0.7136
 6766TIP3   OH241712   4.389   6.585  13.659  0.5432 -0.0547 -0.0802
 6766TIP3    H141713   4.354   6.503  13.624  2.9052 -0.2189 -2.2861
 6766TIP3    H241714   4.481   6.567  13.676  1.2130  2.2027 -0.9576
 6767TIP3   OH241715   2.272   2.346   1.890  0.1565  0.5723  0.8263
 6767TIP3    H141716   2.206   2.277   1.900  0.1515  0.4984  0.3207
 6767TIP3    H241717   2.354   2.299   1.877 -0.0795  0.6169 -1.1499
 6768TIP3   OH241718   6.268   5.089  10.435 -0.0057  0.0803 -0.1619
 6768TIP3    H141719   6.220   5.169  10.458  1.1645  1.2609 -1.6286
 6768TIP3    H241720   6.319   5.068  10.514  0.6933  1.5770 -0.1901
 6769TIP3   OH241721   1.769   6.532  13.269  0.3576 -0.2039 -0.0320
 6769TIP3    H141722   1.840   6.511  13.329 -0.7754 -1.5160  0.9045
 6769TIP3    H241723   1.766   6.457  13.208 -0.9295 -0.7284  0.6459
 6770TIP3   OH241724   3.168   4.511   4.553  0.7418 -0.4033 -0.5390
 6770TIP3    H141725   3.149   4.582   4.492  0.6033 -0.4769 -0.5839
 6770TIP3    H241726   3.259   4.523   4.578  0.9763 -0.7138 -1.2129
 6771TIP3   OH241727   2.024   4.045  16.231  0.5990 -0.1987 -0.5087
 6771TIP3    H141728   2.015   3.979  16.162 -2.7453 -1.9225  1.3475
 6771TIP3    H241729   2.026   3.995  16.312 -2.0513  1.8662  0.9948
 6772TIP3   OH241730   4.301   2.966  16.486  0.0927 -0.6742  0.0991
 6772TIP3    H141731   4.359   3.041  16.496 -0.8788  0.1841 -0.4743
 6772TIP3    H241732   4.213   3.004  16.479 -0.5786 -1.9299  1.0837
 6773TIP3   OH241733   1.271   3.775  12.067 -0.0773  0.0301  0.2413
 6773TIP3    H141734   1.358   3.735  12.065  0.1929  0.5686 -1.7084
 6773TIP3    H241735   1.277   3.846  12.002 -1.3056  1.5393  1.6964
 6774TIP3   OH241736   2.929   4.042   3.579  0.1007 -0.0782 -0.5099
 6774TIP3    H141737   2.954   4.125   3.540 -0.7296  1.8818  2.7313
 6774TIP3    H241738   3.011   4.006   3.614  0.2742  0.0451 -0.7929
 6775TIP3   OH241739   1.786   6.422   1.183 -0.2430  0.3216 -0.0508
 6775TIP3    H141740   1.871   6.446   1.219  0.5198  0.4395 -1.8033
 6775TIP3    H241741   1.805   6.351   1.122 -1.3354  0.5976 -0.7569
 6776TIP3   OH241742   3.498   3.336  14.673  0.2330  0.0956 -0.0532
 6776TIP3    H141743   3.525   3.378  14.755 -1.3278 -0.1125  0.5932
 6776TIP3    H241744   3.543   3.387  14.605 -1.2802  2.6431  0.7101
 6777TIP3   OH241745   2.034   4.897  13.333 -0.8092  0.1153 -0.0666
 6777TIP3    H141746   2.000   4.812  13.362 -0.0287 -0.1586  0.0790
 6777TIP3    H241747   1.960   4.957  13.341 -1.1143 -0.3580  0.7126
 6778TIP3   OH241748   5.195   3.473   1.571 -0.7872  0.1582  0.2163
 6778TIP3    H141749   5.266   3.488   1.634 -1.4195  1.8730  0.5717
 6778TIP3    H241750   5.230   3.503   1.488 -0.9399  0.6011  0.3099
 6779TIP3   OH241751   5.630   5.250   3.353  0.4285  0.2424  0.0551
 6779TIP3    H141752   5.682   5.177   3.320 -3.1110 -2.4241 -0.2848
 6779TIP3    H241753   5.626   5.236   3.448 -0.7388 -0.4965 -0.0709
 6780TIP3   OH241754   0.683   2.173   1.636  0.0717  0.2143 -0.2766
 6780TIP3    H141755   0.619   2.111   1.600  2.3299 -1.9055 -0.8841
 6780TIP3    H241756   0.632   2.253   1.651 -2.6672 -1.2744 -0.8617
 6781TIP3   OH241757   3.392   0.987  11.802  0.3648  0.0543 -0.6868
 6781TIP3    H141758   3.367   0.944  11.719  0.9039  1.7159 -1.7581
 6781TIP3    H241759   3.333   0.948  11.867 -0.9259 -0.4211 -2.0652
 6782TIP3   OH241760   4.445   6.480  11.161 -0.1233  0.0985  0.2274
 6782TIP3    H141761   4.351   6.477  11.174 -0.1558 -1.5014 -0.1333
 6782TIP3    H241762   4.479   6.408  11.214  0.7045 -0.3759 -0.8943
 6783TIP3   OH241763   3.772   1.846  14.848 -0.0243 -0.1927  0.0381
 6783TIP3    H141764   3.717   1.846  14.769  1.7887 -0.8352 -1.2937
 6783TIP3    H241765   3.851   1.895  14.822  0.7307 -0.6734  1.3573
 6784TIP3   OH241766   0.724   3.074   6.423 -0.5337 -0.2668  0.7698
 6784TIP3    H141767   0.648   3.132   6.428  1.1267  2.2934 -1.0825
 6784TIP3    H241768   0.789   3.124   6.372  1.2662 -3.5810 -0.4714
 6785TIP3   OH241769   6.080   2.682  16.564  0.6932 -0.0953 -0.7544
 6785TIP3    H141770   6.058   2.612  16.625  0.2974  1.8927  1.5334
 6785TIP3    H241771   6.162   2.718  16.599  0.6680  0.8351 -1.6214
 6786TIP3   OH241772   4.871   1.582   4.334 -0.0074 -0.1246 -0.6114
 6786TIP3    H141773   4.811   1.640   4.287  1.6469  1.7480 -0.5325
 6786TIP3    H241774   4.892   1.513   4.271 -2.0817 -0.7576 -0.6784
 6787TIP3   OH241775   1.507   4.230  13.421 -0.4763 -0.3774 -0.5978
 6787TIP3    H141776   1.441   4.282  13.375 -1.3485 -0.2189  0.7616
 6787TIP3    H241777   1.490   4.140  13.392 -2.0270 -0.4887  0.5006
 6788TIP3   OH241778   2.486   2.176   0.672 -0.1936  0.4951 -0.6664
 6788TIP3    H141779   2.553   2.235   0.637  0.4722  0.1286 -0.0173
 6788TIP3    H241780   2.418   2.235   0.705 -0.6563  0.8534 -2.1912
 6789TIP3   OH241781   5.564   0.978   1.670  0.2660 -0.2338  0.5606
 6789TIP3    H141782   5.509   1.056   1.673 -1.1664 -1.2088  0.4655
 6789TIP3    H241783   5.601   0.971   1.758 -0.1195  0.1716  0.7608
 6790TIP3   OH241784   1.436   5.092  15.633  0.1826  0.8820 -0.1503
 6790TIP3    H141785   1.452   5.043  15.714  0.8694  3.2630  1.2748
 6790TIP3    H241786   1.520   5.094  15.589 -0.0568  0.0642 -0.6591
 6791TIP3   OH241787   0.112   3.695  16.332  0.5328 -0.6722  0.0078
 6791TIP3    H141788   0.198   3.652  16.338  0.5165 -0.6953  0.0810
 6791TIP3    H241789   0.119   3.752  16.256  0.2768 -1.4353 -0.6056
 6792TIP3   OH241790   1.737   4.679   2.008 -0.4281  0.0257  0.3607
 6792TIP3    H141791   1.733   4.584   2.019  2.1163 -0.1828 -0.0452
 6792TIP3    H241792   1.727   4.714   2.097  1.4241 -0.7928  0.9347
 6793TIP3   OH241793   6.617   4.688   1.914  0.0612 -0.7834  0.0838
 6793TIP3    H141794   6.584   4.738   1.840  1.1380 -1.1837 -0.6795
 6793TIP3    H241795   6.653   4.608   1.876  1.1863 -0.7220  0.9559
 6794TIP3   OH241796   6.033   0.756  11.333 -0.8681 -0.4747 -0.0549
 6794TIP3    H141797   5.955   0.706  11.355 -0.6820 -1.5500 -1.7229
 6794TIP3    H241798   6.045   0.743  11.239  0.0258  1.5282 -0.2708
 6795TIP3   OH241799   2.839   0.181   6.298  0.5568  0.9311 -0.1018
 6795TIP3    H141800   2.871   0.261   6.258  1.8473 -0.6978 -2.5691
 6795TIP3    H241801   2.888   0.175   6.380  0.8425  2.3572 -0.1377
 6796TIP3   OH241802   2.682   2.042  15.146  0.1487 -0.1898  0.4146
 6796TIP3    H141803   2.735   2.055  15.067  0.3680 -0.6648  0.4779
 6796TIP3    H241804   2.610   1.986  15.117 -0.1988  0.2753  0.3781
 6797TIP3   OH241805   6.145   0.630   0.765  0.4350 -0.6116  0.5601
 6797TIP3    H141806   6.206   0.599   0.832  0.6400  0.5443  0.9417
 6797TIP3    H241807   6.180   0.716   0.740  1.2077 -1.6320 -2.1323
 6798TIP3   OH241808   1.541   1.197   6.063  0.2656 -0.1325 -0.0084
 6798TIP3    H141809   1.542   1.223   6.155  0.9907 -1.0818  0.2638
 6798TIP3    H241810   1.451   1.216   6.034  0.4261  1.5419  0.4650
 6799TIP3   OH241811   3.329   1.477   0.196  0.5503 -0.5084 -0.2436
 6799TIP3    H141812   3.239   1.497   0.170  1.1779 -0.4808 -2.6251
 6799TIP3    H241813   3.321   1.411   0.264 -1.2609 -0.6231 -0.5345
 6800TIP3   OH241814   4.082   5.144  16.822 -0.5048  0.0673  0.4709
 6800TIP3    H141815   4.098   5.165  16.914 -0.6996  2.2289  0.0662
 6800TIP3    H241816   3.987   5.151  16.812 -0.7513 -2.4110  0.5633
 6801TIP3   OH241817   1.899   3.853  11.100 -0.7514  0.0989 -0.3834
 6801TIP3    H141818   1.939   3.919  11.044 -1.8642  1.2912  0.1763
 6801TIP3    H241819   1.966   3.834  11.167  1.2189 -2.4932 -2.8403
 6802TIP3   OH241820   1.810   0.375  10.507 -0.2576 -0.1572  0.3912
 6802TIP3    H141821   1.723   0.372  10.466  0.0821 -0.9480 -0.3047
 6802TIP3    H241822   1.799   0.325  10.588 -0.8642  1.1798  1.1637
 6803TIP3   OH241823   0.373   4.758  14.614  0.5073  0.1581  0.2540
 6803TIP3    H141824   0.401   4.764  14.522  1.3765  0.7352  0.5436
 6803TIP3    H241825   0.417   4.831  14.657 -0.5671  0.4173  0.9731
 6804TIP3   OH241826   1.991   2.364  17.117  0.2315  0.2048  0.7873
 6804TIP3    H141827   2.064   2.416  17.086  1.4337 -1.8322 -0.0395
 6804TIP3    H241828   1.988   2.379  17.212  0.8079  1.3753  0.6309
 6805TIP3   OH241829   1.084   1.639  15.465 -0.2208  0.1546  0.7112
 6805TIP3    H141830   1.138   1.700  15.516  1.3709 -0.5309 -0.0704
 6805TIP3    H241831   1.041   1.694  15.400  0.2217  0.6081  0.7985
 6806TIP3   OH241832   6.490   0.757   2.071 -0.4925 -0.3114  0.0467
 6806TIP3    H141833   6.568   0.715   2.108  0.1801  0.2675 -0.6836
 6806TIP3    H241834   6.494   0.736   1.978 -0.2959  1.1070 -0.2809
 6807TIP3   OH241835   4.724   4.043   2.240 -0.3261 -0.2476  0.0046
 6807TIP3    H141836   4.693   4.093   2.315 -2.3092  0.9990 -1.5454
 6807TIP3    H241837   4.666   4.069   2.168  0.5109 -2.5199 -1.6093
 6808TIP3   OH241838   1.565   1.001   5.155  0.3584 -0.0205  0.3158
 6808TIP3    H141839   1.643   1.055   5.170 -0.6065  0.6615  3.8426
 6808TIP3    H241840   1.533   1.027   5.069  2.6321  1.4760 -0.1485
 6809TIP3   OH241841   3.789   2.915   4.975 -0.0463  0.2949 -0.4481
 6809TIP3    H141842   3.882   2.935   4.985 -0.2812  1.5416 -0.5800
 6809TIP3    H241843   3.768   2.941   4.886  0.0701 -2.6068 -1.4229
 6810TIP3   OH241844   5.697   3.165  11.328  0.2108  0.6364  0.2562
 6810TIP3    H141845   5.607   3.151  11.357 -0.1755  2.7918  0.2413
 6810TIP3    H241846   5.706   3.110  11.249 -1.0157  0.2698  0.3595
 6811TIP3   OH241847   5.613   0.859  15.499 -0.3022  0.6686  0.2588
 6811TIP3    H141848   5.663   0.780  15.476  0.3684  1.0834  0.2730
 6811TIP3    H241849   5.522   0.832  15.491 -0.1378  0.5144 -2.0307
 6812TIP3   OH241850   4.120   6.530   4.952  0.0632 -0.4688  0.0970
 6812TIP3    H141851   4.194   6.559   5.006  0.9722 -0.8959 -0.8824
 6812TIP3    H241852   4.079   6.460   5.003 -1.9060  2.0776  2.3207
 6813TIP3   OH241853   6.485   1.786   4.354 -0.1763  0.4486 -0.3363
 6813TIP3    H141854   6.407   1.732   4.347  0.8784 -1.0171 -1.1453
 6813TIP3    H241855   6.476   1.851   4.285 -0.4161 -0.0626 -0.7900
 6814TIP3   OH241856   3.752   0.356  10.820  0.1117  0.3140  0.2587
 6814TIP3    H141857   3.810   0.285  10.848 -1.0315 -0.4928  0.6798
 6814TIP3    H241858   3.726   0.399  10.901 -1.7438 -0.8561  0.3438
 6815TIP3   OH241859   4.341   2.727  16.947  0.6698  0.1413  0.5267
 6815TIP3    H141860   4.392   2.761  16.874  1.5831 -0.5449  0.8226
 6815TIP3    H241861   4.262   2.691  16.907  0.7941  0.4797 -0.0293
 6816TIP3   OH241862   0.321   4.725   6.005  0.3603 -0.2400 -0.5329
 6816TIP3    H141863   0.234   4.732   6.045  0.7707 -2.8833  1.0781
 6816TIP3    H241864   0.304   4.690   5.918 -0.2664  0.2956 -0.6317
 6817TIP3   OH241865   2.269   3.971  17.380  0.2047  0.5730  0.2706
 6817TIP3    H141866   2.255   4.060  17.412  1.3185  1.2487 -1.0113
 6817TIP3    H241867   2.348   3.942  17.425  0.0837  0.3850  0.3635
 6818TIP3   OH241868   6.064   1.120  16.439 -0.1923 -0.4652  0.6744
 6818TIP3    H141869   5.988   1.088  16.393  0.4617  0.8519 -1.4661
 6818TIP3    H241870   6.139   1.083  16.393  0.5402 -2.0219  2.9432
 6819TIP3   OH241871   2.191   3.941  15.597 -0.3831 -0.6292 -0.2544
 6819TIP3    H141872   2.145   3.989  15.528 -1.8290 -0.5995  0.6887
 6819TIP3    H241873   2.250   4.005  15.636 -2.0001  0.3507  0.7296
 6820TIP3   OH241874   0.911   6.141  14.843  0.2960 -0.5457 -0.6364
 6820TIP3    H141875   0.930   6.163  14.752  1.8703 -0.8527 -0.4097
 6820TIP3    H241876   0.897   6.225  14.886  0.9554 -0.3097 -0.8751
 6821TIP3   OH241877   0.697   5.316   6.399  0.4009  0.4261 -0.9262
 6821TIP3    H141878   0.732   5.377   6.463 -0.1947  0.8251 -0.9719
 6821TIP3    H241879   0.667   5.372   6.327  0.7015  0.0130 -1.3741
 6822TIP3   OH241880   3.567   1.816   1.662  0.6140  0.2042  0.4782
 6822TIP3    H141881   3.513   1.757   1.609 -0.6757  1.9763 -0.2816
 6822TIP3    H241882   3.599   1.762   1.734  0.8076 -1.8055 -1.0360
 6823TIP3   OH241883   3.091   2.718   3.032  0.0346 -0.0453  0.8393
 6823TIP3    H141884   3.057   2.666   3.105 -3.6535  0.1166 -0.5606
 6823TIP3    H241885   3.051   2.805   3.043  1.5679  0.8154  0.0421
 6824TIP3   OH241886   1.458   6.092   5.730  0.2569 -0.0270  0.3004
 6824TIP3    H141887   1.417   6.164   5.682 -1.5549 -1.1212  0.1373
 6824TIP3    H241888   1.427   6.103   5.820  0.4634 -0.2839  0.4037
 6825TIP3   OH241889   2.344   3.814  14.344  0.6841 -0.2261 -0.0746
 6825TIP3    H141890   2.405   3.885  14.360 -0.3415  0.5216  0.6679
 6825TIP3    H241891   2.287   3.846  14.273  0.0849 -0.2052  0.4069
 6826TIP3   OH241892   1.282   5.072   0.579  0.2780  0.2725  0.1146
 6826TIP3    H141893   1.274   5.116   0.664  0.8458 -1.0618  0.8711
 6826TIP3    H241894   1.200   5.094   0.534  0.0137  1.0747  0.9504
 6827TIP3   OH241895   2.823   3.349  16.156 -0.2857 -0.0445  0.3010
 6827TIP3    H141896   2.770   3.392  16.224 -0.2398 -0.6309  0.7194
 6827TIP3    H241897   2.913   3.370  16.180 -0.2978  2.5240 -1.4506
 6828TIP3   OH241898   5.215   2.802  15.452 -0.0185  0.0874 -0.2125
 6828TIP3    H141899   5.276   2.849  15.508 -0.0482 -0.4957  0.3169
 6828TIP3    H241900   5.146   2.772  15.511 -1.9245  2.4475 -1.0697
 6829TIP3   OH241901   2.672   5.827   4.269 -0.2067  0.0330 -0.6616
 6829TIP3    H141902   2.667   5.844   4.363  0.1838  1.6431 -0.9003
 6829TIP3    H241903   2.591   5.780   4.249 -0.3377 -0.2524  0.4631
 6830TIP3   OH241904   1.585   5.489  16.148 -0.6680  0.9014  0.2839
 6830TIP3    H141905   1.519   5.422  16.165  0.5866 -0.2119  0.9695
 6830TIP3    H241906   1.615   5.517  16.235  0.7080  0.3902 -0.0004
 6831TIP3   OH241907   4.492   5.087   3.165 -0.1561 -0.3721 -0.0459
 6831TIP3    H141908   4.552   5.014   3.176 -1.4286 -1.5483 -0.5470
 6831TIP3    H241909   4.438   5.062   3.089  2.0271  2.9656 -2.9949
 6832TIP3   OH241910   4.588   6.384   0.825  0.0056 -0.1831  0.2556
 6832TIP3    H141911   4.592   6.359   0.733  1.2653  0.8562 -0.0100
 6832TIP3    H241912   4.513   6.336   0.860 -1.6213  0.7508 -1.7308
 6833TIP3   OH241913   0.346   4.299   0.699 -0.1551  0.2759  0.3498
 6833TIP3    H141914   0.393   4.226   0.740 -0.7916  0.1018  0.7727
 6833TIP3    H241915   0.360   4.372   0.759 -1.1977 -0.0119  0.9705
 6834TIP3   OH241916   2.448   4.123   3.486 -0.6970  0.2501 -0.2403
 6834TIP3    H141917   2.380   4.057   3.495 -0.9476 -0.1380 -3.5440
 6834TIP3    H241918   2.530   4.076   3.500 -0.9497 -0.4564 -1.0334
 6835TIP3   OH241919   0.325   2.882   3.029 -0.4446  0.0510  0.0555
 6835TIP3    H141920   0.421   2.882   3.023 -0.3041 -4.3950 -0.7734
 6835TIP3    H241921   0.296   2.838   2.949 -3.1230  0.1925  0.8613
 6836TIP3   OH241922   0.896   5.570  13.024  0.3559  0.0817 -0.5769
 6836TIP3    H141923   0.917   5.525  13.105 -3.2901 -0.2909  0.3150
 6836TIP3    H241924   0.875   5.500  12.962  2.4762  0.3901 -1.7580
 6837TIP3   OH241925   4.076   4.812   2.445  0.2408 -0.8015 -0.1018
 6837TIP3    H141926   4.086   4.882   2.381 -0.0859 -2.5756 -2.2289
 6837TIP3    H241927   4.162   4.805   2.487 -0.3548  2.3698  1.9587
 6838TIP3   OH241928   2.596   0.921   4.697 -0.0131 -0.4836  0.5294
 6838TIP3    H141929   2.512   0.885   4.724 -1.3746  0.3553 -2.2119
 6838TIP3    H241930   2.635   0.851   4.643  0.8361 -0.6659  1.3585
 6839TIP3   OH241931   3.025   4.311  11.233  0.3573 -0.1963  0.4365
 6839TIP3    H141932   3.054   4.223  11.258 -0.1255 -0.4168  0.2344
 6839TIP3    H241933   2.934   4.315  11.261  0.1144 -0.0769 -0.3340
 6840TIP3   OH241934   4.978   4.022  17.332 -0.2913  0.2092 -0.0223
 6840TIP3    H141935   4.941   4.104  17.300  1.0103  1.0832  0.6250
 6840TIP3    H241936   4.936   4.009  17.417 -1.1429 -0.2813 -0.4964
 6841TIP3   OH241937   2.943   2.430  11.994  0.7460 -0.1970  0.2266
 6841TIP3    H141938   2.995   2.405  12.071  1.3529 -0.8411 -0.3737
 6841TIP3    H241939   3.003   2.416  11.920  0.9222  2.4576 -0.2224
 6842TIP3   OH241940   6.567   1.800  13.955  0.2227  0.1743  0.3977
 6842TIP3    H141941   6.601   1.763  14.037 -2.5966 -1.8457  0.7636
 6842TIP3    H241942   6.604   1.744  13.886 -0.0610 -0.2200  0.5633
 6843TIP3   OH241943   1.143   5.415  12.085  0.0016  1.0288 -0.6049
 6843TIP3    H141944   1.172   5.404  12.175 -1.7955 -2.7075 -0.2873
 6843TIP3    H241945   1.093   5.497  12.086  0.6473  1.4530  1.5954
 6844TIP3   OH241946   5.984   2.051  12.458 -0.0851  0.0809  0.6644
 6844TIP3    H141947   6.052   2.119  12.460 -0.0133  0.1319 -1.3899
 6844TIP3    H241948   5.928   2.076  12.384  0.4593 -2.5319 -0.7286
 6845TIP3   OH241949   1.750   0.192  12.489 -0.1601  1.0108  0.4571
 6845TIP3    H141950   1.798   0.139  12.426 -1.6137 -0.7879  0.7721
 6845TIP3    H241951   1.708   0.260  12.437  1.7194  1.8965  0.0328
 6846TIP3   OH241952   0.914   4.693   3.600  0.2297 -0.8060 -0.3421
 6846TIP3    H141953   0.848   4.624   3.599 -2.5149  1.6538 -1.0289
 6846TIP3    H241954   0.896   4.743   3.680  0.3742  0.6836 -1.2129
 6847TIP3   OH241955   2.686   2.760  11.862 -0.0860 -0.0655  0.3620
 6847TIP3    H141956   2.660   2.683  11.911  1.1053  0.7201  2.3670
 6847TIP3    H241957   2.779   2.746  11.842 -0.6038 -0.5208 -2.1046
 6848TIP3   OH241958   0.853   4.974  12.581 -0.3394 -0.0432 -0.2486
 6848TIP3    H141959   0.821   4.957  12.669  1.0584 -3.7907 -0.2973
 6848TIP3    H241960   0.949   4.972  12.589 -0.1828 -0.6016 -1.8458
 6849TIP3   OH241961   2.464   3.428  11.978 -0.2678  0.0113 -0.4571
 6849TIP3    H141962   2.517   3.395  12.050 -0.3748 -2.6135 -1.4580
 6849TIP3    H241963   2.425   3.350  11.939 -0.3079  1.3088 -3.3000
 6850TIP3   OH241964   5.931   0.554   0.320  0.0289  0.8113 -0.2231
 6850TIP3    H141965   5.936   0.592   0.408 -0.4263  1.2051 -0.3575
 6850TIP3    H241966   6.003   0.595   0.272  0.6446  0.1569  0.1175
 6851TIP3   OH241967   6.736   0.517   4.427  0.5346 -0.9280 -0.3958
 6851TIP3    H141968   6.658   0.467   4.448 -1.8117  2.1664 -0.9114
 6851TIP3    H241969   6.788   0.516   4.507 -1.5395 -0.6380  1.0375
 6852TIP3   OH241970   4.652   2.188  12.704  0.0614 -0.4796  0.9255
 6852TIP3    H141971   4.745   2.188  12.681  0.1575 -0.8990  1.3273
 6852TIP3    H241972   4.615   2.115  12.655 -0.3833  0.6709 -0.5361
 6853TIP3   OH241973   2.060   2.608   3.274 -0.3088  0.6958  0.2854
 6853TIP3    H141974   1.968   2.604   3.247 -0.8032  0.0811  1.9151
 6853TIP3    H241975   2.093   2.519   3.258 -0.3682  0.5663  0.8458
 6854TIP3   OH241976   3.863   6.669  17.197 -0.2450  0.1988 -0.1514
 6854TIP3    H141977   3.905   6.714  17.124 -0.7506 -1.2233 -1.3601
 6854TIP3    H241978   3.770   6.672  17.178 -0.4784  0.6899  0.9738
 6855TIP3   OH241979   0.355   0.611   2.008 -0.5483 -0.2653 -0.1080
 6855TIP3    H141980   0.321   0.620   2.098  1.0197  2.0240  0.3377
 6855TIP3    H241981   0.409   0.533   2.011  0.6332  0.5596  1.3847
 6856TIP3   OH241982   5.323   2.132  15.045 -0.0651 -0.0389  0.0748
 6856TIP3    H141983   5.314   2.038  15.036  1.3624 -0.0363 -2.2634
 6856TIP3    H241984   5.237   2.167  15.019  0.5802 -0.6157 -3.2623
 6857TIP3   OH241985   5.938   0.817   3.561 -0.0565  0.2232 -0.2551
 6857TIP3    H141986   5.974   0.904   3.545  0.2501  0.1491  0.0173
 6857TIP3    H241987   5.912   0.786   3.474  1.4176 -0.1049 -0.6128
 6858TIP3   OH241988   4.499   4.497   0.064  0.4837  0.1321  0.0786
 6858TIP3    H141989   4.540   4.426   0.013  0.8385  1.4778 -1.6319
 6858TIP3    H241990   4.441   4.540   0.001  0.4106  1.4572  1.0252
 6859TIP3   OH241991   4.614   1.359  11.561 -0.8646 -0.2957 -0.2248
 6859TIP3    H141992   4.556   1.433  11.541 -0.2971  0.3314  0.3813
 6859TIP3    H241993   4.557   1.282  11.558 -1.0504 -0.1265 -2.9720
 6860TIP3   OH241994   0.394   1.322  16.900  0.1759 -0.5426 -0.2987
 6860TIP3    H141995   0.367   1.364  16.819  0.7007 -0.8448 -0.6439
 6860TIP3    H241996   0.369   1.230  16.889  0.7456 -0.6965 -0.3596
 6861TIP3   OH241997   2.983   1.831   0.003 -0.1930  0.0065  0.1193
 6861TIP3    H141998   3.072   1.848   0.036 -0.1557  0.3274 -0.1329
 6861TIP3    H241999   2.942   1.918   0.000  0.6688  0.4453 -3.1276
 6862TIP3   OH242000   3.956   0.225   2.028 -0.7837  0.3307 -0.5558
 6862TIP3    H142001   3.986   0.291   2.092 -0.3349  1.5535 -1.9606
 6862TIP3    H242002   3.957   0.143   2.076  0.0865  1.1219  0.8540
 6863TIP3   OH242003   4.199   5.792  12.688 -0.2754 -0.4217 -0.3992
 6863TIP3    H142004   4.106   5.778  12.670 -0.0274 -1.7153 -0.7433
 6863TIP3    H242005   4.240   5.708  12.669  0.9154  0.0229  0.1323
 6864TIP3   OH242006   0.339   1.000  13.668  0.5898  0.8933 -0.1470
 6864TIP3    H142007   0.277   1.054  13.717 -0.2877 -0.0005 -0.2322
 6864TIP3    H242008   0.332   0.913  13.709  0.2245  0.2571 -1.4934
 6865TIP3   OH242009   3.115   1.919   1.934 -0.3533 -0.3631 -0.1244
 6865TIP3    H142010   3.162   2.002   1.931  0.7073 -0.9592 -2.5264
 6865TIP3    H242011   3.163   1.866   1.997  0.2842  0.1091 -0.2022
 6866TIP3   OH242012   0.779   4.264  12.357  0.2590 -0.9604  0.2366
 6866TIP3    H142013   0.837   4.325  12.312 -2.0410  0.8370 -0.4803
 6866TIP3    H242014   0.820   4.251  12.442  0.3244  2.6773  0.9488
 6867TIP3   OH242015   5.028   0.034  12.205 -0.1603 -0.3574 -0.3606
 6867TIP3    H142016   5.074  -0.027  12.262 -0.3469 -0.0043  0.1781
 6867TIP3    H242017   5.093   0.102  12.186 -0.5060  0.2513  0.5709
 6868TIP3   OH242018   5.933   5.248  12.548 -0.4726 -0.1692  0.0580
 6868TIP3    H142019   5.846   5.273  12.518 -0.2012  1.0565  0.2679
 6868TIP3    H242020   5.916   5.180  12.614 -1.2814  0.2680  0.3176
 6869TIP3   OH242021   6.069   2.057   3.964  0.5921 -0.1053 -0.6665
 6869TIP3    H142022   6.134   2.119   3.930 -0.0502  0.5189 -0.7668
 6869TIP3    H242023   6.053   1.997   3.891  0.0312  0.5748 -1.1133
 6870TIP3   OH242024   1.657   2.064   3.825 -0.2217 -0.4616  0.2759
 6870TIP3    H142025   1.641   2.157   3.842 -1.2403 -0.8311  1.4182
 6870TIP3    H242026   1.652   2.057   3.729 -1.1227  0.4987  0.2276
 6871TIP3   OH242027   4.581   1.216   1.751  0.3000 -0.0759 -0.1373
 6871TIP3    H142028   4.571   1.121   1.742 -1.0192  0.0264  0.0187
 6871TIP3    H242029   4.549   1.251   1.667  1.8931  0.1982 -0.6692
 6872TIP3   OH242030   3.963   2.123  15.981  0.6451 -0.3987 -0.6488
 6872TIP3    H142031   3.951   2.030  15.960  0.1883 -0.0679 -1.9593
 6872TIP3    H242032   4.045   2.147  15.938  1.2408 -0.4065  0.4636
 6873TIP3   OH242033   1.580   1.690   2.918 -0.4458 -0.2372  0.2134
 6873TIP3    H142034   1.606   1.712   2.828 -1.9959 -2.4406 -0.8984
 6873TIP3    H242035   1.625   1.607   2.936 -1.3645 -0.6151  0.8397
 6874TIP3   OH242036   5.668   6.008   0.603 -0.1207 -0.0691  0.1911
 6874TIP3    H142037   5.707   6.095   0.614 -0.6055  0.3952 -1.5367
 6874TIP3    H242038   5.702   5.977   0.519 -2.9639  0.0967 -1.1157
 6875TIP3   OH242039   0.706   0.764  16.567 -0.1266  0.4636 -0.2157
 6875TIP3    H142040   0.684   0.782  16.658 -1.1398  0.5793 -0.4691
 6875TIP3    H242041   0.792   0.723  16.571 -0.7314 -0.7756  0.9115
 6876TIP3   OH242042   3.317   6.151  13.058  0.3681  0.3569  0.5740
 6876TIP3    H142043   3.405   6.123  13.081  0.1921  0.6829  1.6593
 6876TIP3    H242044   3.316   6.245  13.073  0.0499  0.4829 -0.1629
 6877TIP3   OH242045   4.016   3.759  10.350  0.1844 -0.3823 -0.1532
 6877TIP3    H142046   4.036   3.668  10.331  0.3343 -0.7012  1.4062
 6877TIP3    H242047   4.088   3.789  10.405  0.3135  0.7860 -0.9317
 6878TIP3   OH242048   2.386   1.582   1.632  1.1389 -0.2610 -0.3872
 6878TIP3    H142049   2.370   1.498   1.590  0.7420 -0.1577 -0.4439
 6878TIP3    H242050   2.346   1.646   1.574 -0.4097 -0.2096  0.6857
 6879TIP3   OH242051   2.302   0.758   5.650  0.1337  0.7009 -0.0991
 6879TIP3    H142052   2.307   0.706   5.730  1.3987  0.8614 -0.0610
 6879TIP3    H242053   2.354   0.836   5.668  1.1088  0.3705 -1.3335
 6880TIP3   OH242054   2.487   0.668  10.690 -0.4871 -0.0900 -0.2298
 6880TIP3    H142055   2.541   0.727  10.743  1.5286 -0.9587 -1.1851
 6880TIP3    H242056   2.452   0.604  10.752 -1.7303  1.3761  0.6330
 6881TIP3   OH242057   2.665   2.284  15.286 -0.1713 -0.0316  0.0807
 6881TIP3    H142058   2.658   2.189  15.279  0.8569 -0.1736  0.8453
 6881TIP3    H242059   2.676   2.314  15.196 -1.0163 -0.5761 -0.2189
 6882TIP3   OH242060   6.477   0.085  13.859  0.2022 -0.6609  0.4202
 6882TIP3    H142061   6.487   0.145  13.785 -1.2453  1.7738  2.0867
 6882TIP3    H242062   6.515   0.131  13.933 -0.6661 -1.9393  1.7158
 6883TIP3   OH242063   4.161   5.888   4.240  0.1065 -0.5716  0.1614
 6883TIP3    H142064   4.240   5.919   4.196 -0.3345  0.2268 -0.0816
 6883TIP3    H242065   4.100   5.868   4.168 -0.1619 -0.5056  0.3688
 6884TIP3   OH242066   5.709   6.532  15.924 -0.4680 -0.4681  0.0445
 6884TIP3    H142067   5.782   6.503  15.978 -1.7249 -0.7969  1.6543
 6884TIP3    H242068   5.659   6.453  15.904 -0.6084 -0.2026 -0.7173
 6885TIP3   OH242069   5.004   5.816   3.506 -0.0880 -0.6168 -0.0700
 6885TIP3    H142070   4.987   5.878   3.577  0.4751  0.1971 -0.6320
 6885TIP3    H242071   5.018   5.732   3.551  1.8722  0.1806  0.9409
 6886TIP3   OH242072   6.425   2.516  17.191  0.9146 -0.1767 -0.1501
 6886TIP3    H142073   6.505   2.464  17.180 -0.5744 -2.5646 -0.3568
 6886TIP3    H242074   6.362   2.455  17.230 -1.3033  1.1066 -1.5337
 6887TIP3   OH242075   6.001   5.852   3.335 -0.3520 -0.5289  0.5086
 6887TIP3    H142076   6.076   5.901   3.302 -0.9690  0.0707 -0.0396
 6887TIP3    H242077   6.038   5.770   3.367  0.3330 -1.0496 -1.4382
 6888TIP3   OH242078   2.262   5.716   1.962 -0.1732  0.3908  0.2770
 6888TIP3    H142079   2.174   5.706   1.999  0.3896  0.1004  1.6014
 6888TIP3    H242080   2.317   5.740   2.037  1.3125 -1.7234 -0.0444
 6889TIP3   OH242081   4.053   3.430  14.792 -0.1228  0.6649  0.4464
 6889TIP3    H142082   4.044   3.335  14.785 -1.5191  0.8509 -0.9385
 6889TIP3    H242083   4.104   3.444  14.872 -1.4854 -1.1812  1.7272
 6890TIP3   OH242084   4.337   6.660  16.480 -0.1475 -0.1203 -0.1626
 6890TIP3    H142085   4.389   6.582  16.464 -0.8029 -0.4772 -0.5986
 6890TIP3    H242086   4.323   6.661  16.575  0.7476  0.0560 -0.0194
 6891TIP3   OH242087   3.773   0.260   6.628  0.0676  0.0629  0.0949
 6891TIP3    H142088   3.797   0.168   6.626 -1.1389 -0.2749 -1.9884
 6891TIP3    H242089   3.854   0.307   6.608 -0.0463 -0.8378 -3.0930
 6892TIP3   OH242090   2.116   0.888  12.142 -0.2851 -0.5725  0.2157
 6892TIP3    H142091   2.107   0.952  12.212  0.7857  0.3799 -0.4693
 6892TIP3    H242092   2.058   0.920  12.073  0.7341  0.0526 -0.3771
 6893TIP3   OH242093   0.780   5.806   5.508 -0.2549 -0.1919 -0.0852
 6893TIP3    H142094   0.699   5.855   5.495 -0.1793 -0.0692 -0.0946
 6893TIP3    H242095   0.829   5.817   5.426 -1.4095 -2.5262 -1.1701
 6894TIP3   OH242096   4.034   1.591  16.107  0.1507 -0.0123  0.1816
 6894TIP3    H142097   4.086   1.638  16.042  0.2481  0.2322  0.4336
 6894TIP3    H242098   4.035   1.648  16.184 -1.2259  0.4392 -0.0963
 6895TIP3   OH242099   1.353   3.481   1.877  0.4724  0.6520  0.1887
 6895TIP3    H142100   1.314   3.566   1.898  1.0192  1.1171 -0.6501
 6895TIP3    H242101   1.443   3.501   1.851  0.2663 -0.0597 -1.1344
 6896TIP3   OH242102   2.537   1.766  17.134 -0.2045  0.1177 -0.2572
 6896TIP3    H142103   2.523   1.755  17.229 -1.7169  2.8783 -0.0421
 6896TIP3    H242104   2.631   1.781  17.125  0.2421 -1.8462  0.5356
 6897TIP3   OH242105   2.407   1.878  15.362 -0.4754 -0.1391  0.0630
 6897TIP3    H142106   2.314   1.856  15.359 -0.8248  1.2716 -0.1655
 6897TIP3    H242107   2.432   1.888  15.270 -0.6472  1.5452  0.1666
 6898TIP3   OH242108   2.021   5.963   2.872  0.2657 -0.9657  0.0521
 6898TIP3    H142109   1.993   6.029   2.808  1.6466  1.4979  1.8139
 6898TIP3    H242110   2.101   5.926   2.835  0.4289 -0.4011 -0.1684
 6899TIP3   OH242111   1.661   5.092   6.197  0.0999  0.7979 -0.5979
 6899TIP3    H142112   1.669   5.185   6.220 -1.3792  1.2071 -1.6037
 6899TIP3    H242113   1.624   5.092   6.109 -3.7342 -0.6575  0.7519
 6900TIP3   OH242114   3.197   1.549   4.352  0.1693 -0.0721 -0.0519
 6900TIP3    H142115   3.250   1.627   4.369  2.1894 -1.1908 -0.7855
 6900TIP3    H242116   3.232   1.483   4.412  0.3323 -1.1431 -1.2851
 6901TIP3   OH242117   2.248   6.624   4.839  0.1370  0.4355  0.1619
 6901TIP3    H142118   2.249   6.657   4.749  1.1844 -2.0438 -0.8153
 6901TIP3    H242119   2.155   6.619   4.862 -0.2231 -0.4108 -1.3907
 6902TIP3   OH242120   5.564   2.816   5.241 -0.0662  0.1735  0.3925
 6902TIP3    H142121   5.657   2.840   5.235  0.0666 -0.4300  0.0147
 6902TIP3    H242122   5.520   2.899   5.260  0.4071  0.6861 -0.6738
 6903TIP3   OH242123   4.436   0.242  13.269  0.5459 -0.2820 -0.0239
 6903TIP3    H142124   4.483   0.196  13.200 -0.7353 -1.3257 -0.2471
 6903TIP3    H242125   4.350   0.260  13.232  0.3174  0.4465  0.8066
 6904TIP3   OH242126   5.548   4.904  11.897  0.1339 -0.1256 -0.0658
 6904TIP3    H142127   5.623   4.946  11.939  0.0913  0.4459 -0.5399
 6904TIP3    H242128   5.586   4.836  11.841  0.3854  0.7663 -1.0135
 6905TIP3   OH242129   0.691   2.778   2.033 -0.5822 -0.9186 -0.0774
 6905TIP3    H142130   0.706   2.756   2.125 -0.2930  3.0118  1.0058
 6905TIP3    H242131   0.777   2.766   1.991  0.3298  0.9530  1.1350
 6906TIP3   OH242132   1.288   3.919  11.560  0.5027 -0.2470 -0.1365
 6906TIP3    H142133   1.346   3.994  11.544 -1.1134  0.6523 -2.4308
 6906TIP3    H242134   1.301   3.863  11.483  0.1939 -1.3118  0.5732
 6907TIP3   OH242135   6.020   0.078  13.628 -0.5938 -0.2679 -0.5751
 6907TIP3    H142136   6.098   0.076  13.683 -0.3205  1.0019 -0.8963
 6907TIP3    H242137   6.053   0.099  13.540 -1.3376  0.9640 -0.5854
 6908TIP3   OH242138   3.810   1.630  12.697  0.3679  0.0967  0.4221
 6908TIP3    H142139   3.865   1.552  12.700  1.3408  0.6569 -1.5889
 6908TIP3    H242140   3.804   1.658  12.789  1.0061 -1.6202  1.0313
 6909TIP3   OH242141   4.573   1.434   2.224 -0.5657 -0.0730  0.3538
 6909TIP3    H142142   4.587   1.340   2.228 -0.2944 -0.0700 -0.3817
 6909TIP3    H242143   4.633   1.465   2.156 -1.8706  0.3826 -0.6437
 6910TIP3   OH242144   0.357   1.658   3.411 -0.2100 -0.0815 -0.1086
 6910TIP3    H142145   0.432   1.701   3.452  0.0686  0.5188 -1.1925
 6910TIP3    H242146   0.379   1.655   3.318 -2.1869  1.5720 -0.7140
 6911TIP3   OH242147   3.961   1.637  12.445  0.0057 -0.7736 -0.7598
 6911TIP3    H142148   4.025   1.698  12.482 -1.5268  1.1650 -1.1857
 6911TIP3    H242149   3.882   1.650  12.497 -1.2291 -0.2430 -2.6534
 6912TIP3   OH242150   0.202   0.575  17.026  0.4147 -0.5151 -0.0222
 6912TIP3    H142151   0.113   0.544  17.040  0.3510  0.0056  0.7576
 6912TIP3    H242152   0.257   0.502  17.055  0.2656 -1.1964 -1.3398
 6913TIP3   OH242153   6.387   6.293  16.032  0.3666  0.2713  0.0438
 6913TIP3    H142154   6.385   6.293  15.937  2.4610  0.2292 -0.0459
 6913TIP3    H242155   6.310   6.243  16.058  0.9900 -1.7223 -1.6772
 6914TIP3   OH242156   6.629   5.037  16.638 -0.4657 -0.3016 -0.1228
 6914TIP3    H142157   6.554   4.989  16.674 -1.6320  1.2948 -0.3472
 6914TIP3    H242158   6.702   4.975  16.645 -1.5287 -1.4657  1.2160
 6915TIP3   OH242159   1.596   3.656   6.040 -0.3756 -0.3987  0.3353
 6915TIP3    H142160   1.643   3.639   6.121  0.7184 -1.1814 -0.4343
 6915TIP3    H242161   1.514   3.608   6.048  0.1545 -1.2679  0.5844
 6916TIP3   OH242162   4.882   6.421   3.947 -0.2051 -0.5677 -0.6693
 6916TIP3    H142163   4.959   6.476   3.930 -0.1146 -0.5915 -0.3334
 6916TIP3    H242164   4.832   6.470   4.013  0.1767 -1.1777  0.0775
 6917TIP3   OH242165   4.364   2.508   2.178  0.7124  0.2192 -0.2653
 6917TIP3    H142166   4.449   2.466   2.167  0.6275  0.0962 -0.4627
 6917TIP3    H242167   4.354   2.520   2.272  1.6196  1.6230 -0.3165
 6918TIP3   OH242168   1.646   6.466  11.732 -0.1127  0.1912  0.5004
 6918TIP3    H142169   1.660   6.550  11.690 -1.1645  1.2465  2.1499
 6918TIP3    H242170   1.678   6.478  11.821  0.5841 -1.4751  0.5234
 6919TIP3   OH242171   5.852   6.693   2.317 -0.2825 -0.4139  0.9271
 6919TIP3    H142172   5.871   6.668   2.227 -0.5615 -0.4129  0.8673
 6919TIP3    H242173   5.898   6.628   2.370 -0.4833 -0.6800  0.7778
 6920TIP3   OH242174   5.559   3.382   2.079  0.1179  0.1565 -0.0597
 6920TIP3    H142175   5.624   3.384   2.010  0.9479  0.0019  0.6984
 6920TIP3    H242176   5.550   3.473   2.108  0.1466  0.1472 -0.0216
 6921TIP3   OH242177   2.291   2.808  16.884 -0.6310  0.0426 -0.3648
 6921TIP3    H142178   2.337   2.760  16.815  1.1271 -2.8475  2.5365
 6921TIP3    H242179   2.200   2.781  16.874 -0.5034  0.0254 -1.7574
 6922TIP3   OH242180   5.993   0.251  13.856 -0.4401  0.4771 -0.4913
 6922TIP3    H142181   6.038   0.167  13.849 -0.8928  0.0568  1.2335
 6922TIP3    H242182   5.979   0.278  13.765  0.6259 -0.8039 -1.0714
 6923TIP3   OH242183   0.736   3.324   2.219 -0.9485 -0.2443 -0.4910
 6923TIP3    H142184   0.754   3.256   2.284 -0.7365 -0.0072 -0.2992
 6923TIP3    H242185   0.812   3.323   2.162 -0.5784  0.3561 -0.0282
 6924TIP3   OH242186   3.064   0.160   2.716 -0.2381  0.5236  0.9959
 6924TIP3    H142187   3.100   0.071   2.725  0.0240  0.7084  1.8382
 6924TIP3    H242188   3.063   0.195   2.805  2.2091  2.3705  0.4124
 6925TIP3   OH242189   5.927   1.172   4.746  0.6041  0.1408 -0.1375
 6925TIP3    H142190   5.998   1.211   4.796  0.8524  0.0476 -0.4150
 6925TIP3    H242191   5.898   1.098   4.800  0.3537  0.5004  0.2295
 6926TIP3   OH242192   2.373   6.635   5.430 -0.0212  0.3913 -0.9040
 6926TIP3    H142193   2.412   6.605   5.512  1.3488  1.1016 -1.2463
 6926TIP3    H242194   2.440   6.693   5.392 -1.4369  1.6757 -1.5501
 6927TIP3   OH242195   4.846   4.523  15.818 -0.6088  0.2188 -0.5814
 6927TIP3    H142196   4.835   4.576  15.897 -2.6138  1.1761 -1.4043
 6927TIP3    H242197   4.932   4.484  15.826 -0.8363  0.1130  2.1624
 6928TIP3   OH242198   3.584   3.778   3.402  0.4850  0.6760  0.3664
 6928TIP3    H142199   3.631   3.695   3.411 -0.1319  0.3706  0.8501
 6928TIP3    H242200   3.620   3.833   3.472  0.5215  0.6409  0.3752
 6929TIP3   OH242201   4.964   6.295   3.610 -0.7033 -0.3932 -0.1015
 6929TIP3    H142202   4.949   6.291   3.705 -1.2844 -0.4815 -0.1918
 6929TIP3    H242203   5.059   6.298   3.601 -0.6733  1.5038  0.5428
 6930TIP3   OH242204   4.861   0.413   4.160 -0.0263  0.1059  0.0098
 6930TIP3    H142205   4.887   0.502   4.181  1.8307 -0.1825 -0.9048
 6930TIP3    H242206   4.941   0.371   4.128 -0.7960 -1.9631  0.6254
 6931TIP3   OH242207   5.256   1.368  15.191  0.8281  0.0807  0.2478
 6931TIP3    H142208   5.278   1.275  15.197  1.0550 -0.2110 -3.1727
 6931TIP3    H242209   5.338   1.410  15.164  0.7038  1.2956  1.6471
 6932TIP3   OH242210   5.146   0.259   4.423 -0.5039  0.4818 -0.3298
 6932TIP3    H142211   5.074   0.263   4.485 -1.4884  0.2059 -1.4153
 6932TIP3    H242212   5.189   0.176   4.441  0.2872  1.1514  1.0776
 6933TIP3   OH242213   0.406   6.277  12.031  0.1247  0.0411 -0.2501
 6933TIP3    H142214   0.377   6.367  12.047 -0.8127 -0.3057  0.0260
 6933TIP3    H242215   0.459   6.255  12.108 -1.0834 -0.2395  0.5155
 6934TIP3   OH242216   0.282   4.117  13.662  0.0813 -0.0095 -0.4719
 6934TIP3    H142217   0.192   4.117  13.629  0.2823  0.6425 -1.0480
 6934TIP3    H242218   0.300   4.025  13.681 -0.5246 -0.2188 -0.8579
 6935TIP3   OH242219   6.431   4.377   5.681 -0.5841  0.2212 -0.0398
 6935TIP3    H142220   6.377   4.373   5.602 -0.7207  1.4854 -0.0286
 6935TIP3    H242221   6.521   4.386   5.649 -0.5245 -0.3689 -0.0489
 6936TIP3   OH242222   4.334   2.733   1.420  0.4083  0.9696  0.5452
 6936TIP3    H142223   4.318   2.740   1.326  0.8876 -1.0514  0.2646
 6936TIP3    H242224   4.401   2.798   1.438  0.1499  1.5277 -0.4706
 6937TIP3   OH242225   4.857   1.871   5.493  0.3800  0.3399  0.1215
 6937TIP3    H142226   4.852   1.965   5.515  1.5103  0.5676 -0.5090
 6937TIP3    H242227   4.879   1.870   5.400 -0.9327 -0.5868 -0.2040
 6938TIP3   OH242228   2.801   6.172   3.820  0.1960 -0.2226  0.3232
 6938TIP3    H142229   2.766   6.110   3.884 -0.4353 -0.1179  0.0775
 6938TIP3    H242230   2.767   6.142   3.736 -1.2201  1.2102  0.3369
 6939TIP3   OH242231   4.687   4.781  11.498  0.0748 -0.0077  0.1113
 6939TIP3    H142232   4.782   4.786  11.504  0.3067  0.0556 -2.3679
 6939TIP3    H242233   4.658   4.871  11.487 -0.0732 -0.1521 -0.8073
 6940TIP3   OH242234   1.126   4.271  17.104 -0.5051  0.0138  0.4147
 6940TIP3    H142235   1.150   4.181  17.082 -0.3847 -0.0847  0.9267
 6940TIP3    H242236   1.202   4.324  17.078  0.0535 -0.2254  1.5051
 6941TIP3   OH242237   6.091   6.662  12.248  0.0559  0.6009 -0.2035
 6941TIP3    H142238   6.169   6.614  12.277 -0.3383 -1.2602 -1.9754
 6941TIP3    H242239   6.025   6.643  12.314  0.2473 -0.3652 -0.2787
 6942TIP3   OH242240   6.263   5.717   1.547 -0.3820 -0.2195  0.4060
 6942TIP3    H142241   6.347   5.762   1.542  1.0560 -2.7315  0.3313
 6942TIP3    H242242   6.282   5.634   1.592 -2.9365 -0.6363  0.9051
 6943TIP3   OH242243   3.467   6.725  13.455 -0.1354  0.4700 -0.2006
 6943TIP3    H142244   3.512   6.793  13.405 -1.6069  1.2278 -0.5584
 6943TIP3    H242245   3.528   6.702  13.525  0.3923  2.1955 -0.0494
 6944TIP3   OH242246   6.125   3.388  16.687  0.3250 -0.2770  0.3469
 6944TIP3    H142247   6.054   3.373  16.625  0.0376  1.0699  0.3195
 6944TIP3    H242248   6.203   3.396  16.632  0.7142 -2.7128  0.4374
 6945TIP3   OH242249   2.026   2.455  14.506 -0.0182  0.0524  0.1320
 6945TIP3    H142250   2.070   2.539  14.516 -0.0023  0.1539 -0.6833
 6945TIP3    H242251   2.048   2.406  14.586  1.8201 -0.0015 -0.3548
 6946TIP3   OH242252   3.086   1.766   0.289 -0.1253  0.2144  0.2441
 6946TIP3    H142253   3.068   1.745   0.197 -1.5354 -0.8409  0.7320
 6946TIP3    H242254   3.098   1.681   0.331 -2.9819  0.4435  1.6988
 6947TIP3   OH242255   1.763   1.306   1.574  0.4254  0.9874  0.0534
 6947TIP3    H142256   1.835   1.281   1.515  0.2346  0.6954 -0.0583
 6947TIP3    H242257   1.693   1.244   1.553 -0.2400  1.9449 -0.5953
 6948TIP3   OH242258   5.908   3.899   4.991  0.1789  0.5061  0.4052
 6948TIP3    H142259   5.916   3.862   5.079 -2.1610  0.1423  0.5305
 6948TIP3    H242260   5.937   3.990   5.000 -3.2634  1.5568  2.4455
 6949TIP3   OH242261   1.772   2.647  14.031 -0.5495  0.4870  0.0371
 6949TIP3    H142262   1.774   2.718  14.096 -3.0530  0.3935  0.3454
 6949TIP3    H242263   1.686   2.607  14.043 -0.8781  0.0639 -2.9598
 6950TIP3   OH242264   6.517   1.701   1.316 -0.6038  0.3985  0.2958
 6950TIP3    H142265   6.556   1.638   1.378 -0.5378 -0.2695 -0.4160
 6950TIP3    H242266   6.584   1.768   1.306 -0.0379 -0.2194 -0.1316
 6951TIP3   OH242267   6.736   1.015   2.211 -0.5036 -0.5126  0.5418
 6951TIP3    H142268   6.761   0.990   2.122  0.2376 -3.0483  1.3675
 6951TIP3    H242269   6.769   1.104   2.221  0.2027 -0.5100 -1.4241
 6952TIP3   OH242270   3.670   2.482  11.998  0.2895  0.3024  0.2180
 6952TIP3    H142271   3.759   2.504  12.027 -0.0079  1.9308 -0.0158
 6952TIP3    H242272   3.639   2.561  11.954 -1.1854 -0.3405  0.0451
 6953TIP3   OH242273   2.655   2.423  12.735 -0.2316 -0.1128  0.0870
 6953TIP3    H142274   2.570   2.381  12.743  0.6889 -2.6581 -2.1133
 6953TIP3    H242275   2.709   2.381  12.803 -0.5394  1.1468  1.1527
 6954TIP3   OH242276   1.478   6.123   1.114 -0.6565  0.4874  0.6505
 6954TIP3    H142277   1.529   6.042   1.107 -2.5744 -0.6653 -0.7826
 6954TIP3    H242278   1.508   6.176   1.041 -0.1355  0.6585  0.9803
 6955TIP3   OH242279   6.086   4.816  15.679  0.4007 -0.2041 -0.2377
 6955TIP3    H142280   6.099   4.757  15.753  0.6499 -1.2924 -1.1057
 6955TIP3    H242281   6.086   4.758  15.602 -1.2587  0.7162 -0.9891
 6956TIP3   OH242282   4.176   0.066   4.114 -0.2308  0.4589  0.2558
 6956TIP3    H142283   4.210   0.002   4.177 -0.5598  0.0646  0.0349
 6956TIP3    H242284   4.182   0.150   4.160  0.4788  0.3133  0.4430
 6957TIP3   OH242285   4.021   3.324  14.016  0.9682  0.0171  0.1798
 6957TIP3    H142286   3.967   3.245  14.009  0.9516 -0.2007  2.2241
 6957TIP3    H242287   4.109   3.294  13.992  0.8599 -0.4894  0.4011
 6958TIP3   OH242288   1.084   0.803  15.600 -0.0212 -0.1746 -0.2832
 6958TIP3    H142289   1.038   0.886  15.601 -1.3445 -0.8624 -1.1723
 6958TIP3    H242290   1.131   0.802  15.516  0.9954  0.1714  0.2594
 6959TIP3   OH242291   6.751   6.348   4.516 -0.2494 -0.4355  0.4162
 6959TIP3    H142292   6.677   6.408   4.508 -0.5675 -0.6691  1.4344
 6959TIP3    H242293   6.826   6.398   4.483 -0.7449  0.0250 -0.0396
 6960TIP3   OH242294   1.872   5.099  13.522  0.2439  0.3049  0.0712
 6960TIP3    H142295   1.921   5.081  13.602 -2.6053  1.4688  2.2424
 6960TIP3    H242296   1.865   5.194  13.519 -2.7128  0.1958  0.5148
 6961TIP3   OH242297   4.174   2.352   5.385 -0.0819  0.9739  0.1878
 6961TIP3    H142298   4.143   2.353   5.295 -0.6424 -0.2691  0.3525
 6961TIP3    H242299   4.095   2.364   5.438  0.4112  3.2034  0.5233
 6962TIP3   OH242300   2.857   2.844   5.520  0.1055 -0.0068 -0.0875
 6962TIP3    H142301   2.879   2.864   5.611  0.2747  1.8627 -0.5064
 6962TIP3    H242302   2.818   2.757   5.524 -0.6347  0.3621  1.8757
 6963TIP3   OH242303   3.386   5.254  13.871 -0.1425  0.0945 -0.0131
 6963TIP3    H142304   3.436   5.323  13.915 -0.2100 -0.9575  1.8157
 6963TIP3    H242305   3.441   5.227  13.797  0.9045  0.5918  0.5656
 6964TIP3   OH242306   1.556   1.138   1.504 -0.1623 -0.0151  0.0371
 6964TIP3    H142307   1.622   1.090   1.454 -0.0341  0.4632 -0.2647
 6964TIP3    H242308   1.528   1.077   1.572 -0.4512 -0.7373 -0.7094
 6965TIP3   OH242309   2.936   3.105   1.674 -0.4264 -0.1412  0.3192
 6965TIP3    H142310   2.997   3.177   1.693 -0.5987  0.4725 -1.2947
 6965TIP3    H242311   2.858   3.127   1.724  0.1703 -0.2037  1.3106
 6966TIP3   OH242312   1.837   2.145  14.319 -0.3777  0.2034  0.1834
 6966TIP3    H142313   1.826   2.117  14.228  2.8096  0.8445 -0.5055
 6966TIP3    H242314   1.838   2.240  14.315  0.3975  0.2240  0.8038
 6967TIP3   OH242315   3.436   2.612   0.714 -0.0069 -0.4137 -0.3572
 6967TIP3    H142316   3.371   2.554   0.673  1.9446 -2.8663 -0.2034
 6967TIP3    H242317   3.443   2.581   0.804  2.3341 -1.1418 -0.7384
 6968TIP3   OH242318   2.764   0.144   1.541 -0.5430  0.8342  0.3394
 6968TIP3    H142319   2.845   0.182   1.505 -0.8282  0.3153 -0.9011
 6968TIP3    H242320   2.767   0.165   1.634 -0.5333  3.6668 -0.2058
 6969TIP3   OH242321   6.354   4.870  13.771 -0.4032 -0.0414 -0.1512
 6969TIP3    H142322   6.294   4.938  13.799  1.3392  2.1141 -1.3620
 6969TIP3    H242323   6.372   4.820  13.851 -0.7977  1.7023  1.0834
 6970TIP3   OH242324   4.601   4.434  12.297  0.7528  0.1505  0.4128
 6970TIP3    H142325   4.661   4.461  12.228  0.4743  0.4070  0.2724
 6970TIP3    H242326   4.518   4.418  12.252  1.5317 -3.6153 -0.0029
 6971TIP3   OH242327   2.072   3.930  14.186  0.1300  0.0805  0.0197
 6971TIP3    H142328   1.999   3.878  14.153  0.0513  1.1077 -1.5318
 6971TIP3    H242329   2.057   3.934  14.280 -0.9833 -0.9796 -0.0806
 6972TIP3   OH242330   0.826   6.705  15.684 -0.4739 -0.6662  0.7905
 6972TIP3    H142331   0.788   6.619  15.669 -2.5069  0.3814 -0.5476
 6972TIP3    H242332   0.761   6.751  15.737 -0.1539  0.5136  0.1909
 6973TIP3   OH242333   6.663   3.967   3.863 -0.1538 -0.0313  0.0738
 6973TIP3    H142334   6.654   4.053   3.903 -1.1230  0.5435 -1.2899
 6973TIP3    H242335   6.638   3.980   3.772 -1.7423 -2.0415  0.1437
 6974TIP3   OH242336   4.979   6.529  13.161  0.7333 -0.1347 -0.3118
 6974TIP3    H142337   4.910   6.490  13.107 -0.4862  0.4517  0.7733
 6974TIP3    H242338   5.043   6.562  13.098  0.4191 -1.3565 -1.3198
 6975TIP3   OH242339   1.758   4.950   0.436 -0.1775 -0.3441  0.2977
 6975TIP3    H142340   1.696   4.962   0.364 -0.9492  0.9351  1.1321
 6975TIP3    H242341   1.800   4.866   0.418 -0.7874 -0.3333 -1.3090
 6976TIP3   OH242342   5.825   1.066   3.284 -0.3565  0.2374  0.2545
 6976TIP3    H142343   5.796   1.090   3.372 -0.2205  1.9377 -0.1434
 6976TIP3    H242344   5.760   1.104   3.226 -0.8616 -1.5104 -0.3837
 6977TIP3   OH242345   6.698   0.987   4.800  0.2904 -0.3790 -0.0865
 6977TIP3    H142346   6.749   1.067   4.789 -0.5254  0.0611 -0.7204
 6977TIP3    H242347   6.728   0.930   4.730  0.1120 -0.2267 -0.2868
 6978TIP3   OH242348   1.410   1.893   2.474 -0.1163  0.2252 -0.0570
 6978TIP3    H142349   1.442   1.831   2.407  1.6223  0.1429  0.7822
 6978TIP3    H242350   1.343   1.844   2.521 -0.3779 -0.2034 -0.8456
 6979TIP3   OH242351   6.361   0.455   2.229  0.0693 -0.3498 -1.2779
 6979TIP3    H142352   6.325   0.493   2.150 -0.8318 -0.6591 -1.0254
 6979TIP3    H242353   6.298   0.387   2.254  0.1727 -0.0461 -0.1355
 6980TIP3   OH242354   1.260   3.791   1.146 -0.2393 -0.0505 -0.2700
 6980TIP3    H142355   1.186   3.813   1.201 -0.1447  0.8920 -0.5027
 6980TIP3    H242356   1.231   3.811   1.057  0.5097  1.0104 -0.3058
 6981TIP3   OH242357   6.206   5.648   3.278 -0.1827 -0.3069 -0.2697
 6981TIP3    H142358   6.155   5.581   3.233 -0.7575  0.0554 -0.1710
 6981TIP3    H242359   6.233   5.606   3.360  1.3695 -1.1725 -1.1726
 6982TIP3   OH242360   6.639   1.403  13.045 -0.5017  0.1719  0.5846
 6982TIP3    H142361   6.682   1.339  12.988 -0.8250 -0.9306  1.5339
 6982TIP3    H242362   6.704   1.471  13.059  0.1060 -0.3075  0.1331
 6983TIP3   OH242363   0.783   6.580  14.912  0.1435  0.0369  0.4579
 6983TIP3    H142364   0.767   6.672  14.932  1.0331  0.0969  0.9241
 6983TIP3    H242365   0.696   6.540  14.912 -0.0960  0.5113  2.1300
 6984TIP3   OH242366   5.301   0.531   1.640 -0.2047 -0.0790  0.2647
 6984TIP3    H142367   5.274   0.523   1.548  1.4521 -1.5488 -0.1559
 6984TIP3    H242368   5.223   0.564   1.685 -1.2184  0.1933 -1.5719
 6985TIP3   OH242369   5.254   3.979  16.950  0.0245  0.7421 -0.5897
 6985TIP3    H142370   5.169   4.010  16.918  0.2337  1.0491 -0.8594
 6985TIP3    H242371   5.238   3.956  17.042 -0.2440  1.2323 -0.5082
 6986TIP3   OH242372   6.340   2.360  10.683  0.2556  0.0639 -0.1640
 6986TIP3    H142373   6.315   2.295  10.749  1.3205 -0.5605 -0.3512
 6986TIP3    H242374   6.401   2.314  10.626  1.2923  1.3155 -0.1167
 6987TIP3   OH242375   4.384   4.997   6.327 -0.6931 -0.4962  0.0576
 6987TIP3    H142376   4.325   5.068   6.355 -0.0466 -0.4575  1.3688
 6987TIP3    H242377   4.375   4.930   6.394 -1.5718 -1.8680 -1.3557
 6988TIP3   OH242378   4.452   2.381  10.969 -0.6747  0.2965 -0.1548
 6988TIP3    H142379   4.386   2.315  10.947  0.4885 -0.1589 -2.5983
 6988TIP3    H242380   4.466   2.429  10.887  2.5907 -0.1334  0.0394
 6989TIP3   OH242381   2.562   0.156   3.357 -0.0782 -0.2375  0.1726
 6989TIP3    H142382   2.476   0.126   3.388  0.6059 -0.2925  2.1666
 6989TIP3    H242383   2.567   0.124   3.267 -0.8106 -3.1930  1.0432
 6990TIP3   OH242384   1.480   4.281  15.216 -0.1829 -0.4558  0.0258
 6990TIP3    H142385   1.534   4.250  15.144 -1.5281 -0.3150 -1.0884
 6990TIP3    H242386   1.464   4.373  15.196 -1.3880 -0.6584 -0.0717
 6991TIP3   OH242387   1.020   1.720   4.634  0.2087  0.3249  0.4934
 6991TIP3    H142388   1.115   1.709   4.627  0.1787 -0.0033  0.5777
 6991TIP3    H242389   1.008   1.813   4.652  0.5048  0.3985  0.3131
 6992TIP3   OH242390   4.455   3.476  16.977  0.2747  1.0528  0.1567
 6992TIP3    H142391   4.422   3.552  16.929  0.5134  1.2959  0.3689
 6992TIP3    H242392   4.458   3.405  16.913 -0.6106  1.0369  0.1231
 6993TIP3   OH242393   5.568   2.263   4.217 -0.3469  0.2169 -0.4323
 6993TIP3    H142394   5.617   2.216   4.285  0.4790  1.4884 -0.1106
 6993TIP3    H242395   5.608   2.235   4.135  0.3030  0.5314 -0.2286
 6994TIP3   OH242396   5.030   3.718  11.170 -0.0839 -0.3434  0.5728
 6994TIP3    H142397   4.995   3.633  11.198  1.1325 -0.4484  1.8930
 6994TIP3    H242398   5.119   3.700  11.143  0.2511  0.5345  1.0491
 6995TIP3   OH242399   3.152   4.493  16.486  0.0384  0.2630 -0.4818
 6995TIP3    H142400   3.192   4.445  16.559 -0.8659 -0.6239 -0.5418
 6995TIP3    H242401   3.098   4.559  16.527  1.3327  1.3138 -0.3947
 6996TIP3   OH242402   1.000   5.821  14.095  0.7007  0.4344  0.0426
 6996TIP3    H142403   0.963   5.901  14.132  1.6487  0.9461 -0.0759
 6996TIP3    H242404   1.005   5.761  14.169  3.5009  1.7751  1.0758
 6997TIP3   OH242405   3.264   2.509   0.359  0.4347  0.1749 -0.1980
 6997TIP3    H142406   3.179   2.490   0.320  0.6812 -0.6812 -0.3432
 6997TIP3    H242407   3.257   2.480   0.449  0.4493  0.4791 -0.0961
 6998TIP3   OH242408   5.800   3.200  16.769 -0.2736 -0.1677 -0.1964
 6998TIP3    H142409   5.766   3.232  16.853 -0.5395 -0.1613 -0.3042
 6998TIP3    H242410   5.721   3.181  16.718 -0.1147 -0.6239 -0.2752
 6999TIP3   OH242411   4.104   6.503  13.395  0.3514 -0.5496  0.0218
 6999TIP3    H142412   4.016   6.512  13.360  0.6502  0.3750 -0.5208
 6999TIP3    H242413   4.103   6.554  13.476  0.3671 -0.6331  0.0754
 7000TIP3   OH242414   0.593   5.650   6.495 -0.0355 -0.4646  0.4698
 7000TIP3    H142415   0.500   5.659   6.517 -0.3810 -0.7264 -0.8082
 7000TIP3    H242416   0.594   5.597   6.415  1.1679  0.1518  0.0503
 7001TIP3   OH242417   6.141   0.137   4.085 -0.7371  0.1852 -0.3702
 7001TIP3    H142418   6.113   0.046   4.079 -1.5339  0.4241 -0.4365
 7001TIP3    H242419   6.101   0.170   4.166 -0.8595  0.6012 -0.5941
 7002TIP3   OH242420   1.656   3.389  13.825  0.8027 -0.6288 -0.2973
 7002TIP3    H142421   1.699   3.310  13.856 -0.3472 -0.4093  2.1019
 7002TIP3    H242422   1.707   3.461  13.863  1.4888 -0.2070 -1.9622
 7003TIP3   OH242423   1.201   4.489  13.709 -0.4090  0.3949  0.0635
 7003TIP3    H142424   1.174   4.569  13.665  0.8611  0.4067 -0.7362
 7003TIP3    H242425   1.296   4.486  13.699 -0.2176 -0.2854  1.6708
 7004TIP3   OH242426   5.370   0.054   3.134  0.1446 -0.0311 -0.9849
 7004TIP3    H142427   5.285   0.036   3.092 -0.9009  2.4180 -0.0752
 7004TIP3    H242428   5.349   0.109   3.209  2.5636  0.5672 -0.6669
 7005TIP3   OH242429   6.205   3.237   6.076 -0.1078 -0.2899 -0.2768
 7005TIP3    H142430   6.149   3.302   6.034  0.5023 -0.5149 -1.5036
 7005TIP3    H242431   6.294   3.266   6.057  0.1768 -0.9529  0.0105
 7006TIP3   OH242432   0.670   0.051   3.328 -0.1801  0.7363 -0.4458
 7006TIP3    H142433   0.608   0.013   3.265  0.4793  1.5053 -1.5865
 7006TIP3    H242434   0.736   0.095   3.274  1.2230  0.1779  0.7366
 7007TIP3   OH242435   4.468   5.691  12.502 -0.2607  0.3343 -0.1296
 7007TIP3    H142436   4.546   5.748  12.497 -0.1520  0.1825 -0.1655
 7007TIP3    H242437   4.468   5.644  12.419 -0.0401 -0.1207  0.1260
 7008TIP3   OH242438   4.754   4.749  14.462  0.1193  0.0478 -0.1128
 7008TIP3    H142439   4.837   4.784  14.432 -0.2250  2.4659  1.5170
 7008TIP3    H242440   4.777   4.672  14.513  1.5293  1.4066  1.3930
 7009TIP3   OH242441   2.652   6.757   4.662  0.1105 -0.2118  0.5407
 7009TIP3    H142442   2.578   6.742   4.603  1.5101 -2.4281 -0.7734
 7009TIP3    H242443   2.729   6.756   4.605  1.3521 -0.2925  2.1541
 7010TIP3   OH242444   5.714   5.279   3.037  0.2309 -0.4620 -0.6288
 7010TIP3    H142445   5.797   5.230   3.039  1.0663  0.8147 -1.7212
 7010TIP3    H242446   5.688   5.276   2.945  0.1177  0.8090 -0.6530
 7011TIP3   OH242447   0.292   3.560   1.475  0.1237  0.3217 -0.3134
 7011TIP3    H142448   0.305   3.600   1.389  0.7827 -0.8244 -0.7667
 7011TIP3    H242449   0.335   3.475   1.469  0.6322  0.4341  1.3313
 7012TIP3   OH242450   4.920   4.536  16.795  0.2616  0.4412 -0.2253
 7012TIP3    H142451   4.924   4.542  16.890 -1.1433 -0.4242 -0.0707
 7012TIP3    H242452   5.006   4.503  16.769  0.4318  0.0250  0.8153
 7013TIP3   OH242453   1.704   2.391  14.693  0.2703 -0.1518  0.1141
 7013TIP3    H142454   1.768   2.339  14.741  0.4782  0.2031  0.2300
 7013TIP3    H242455   1.645   2.425  14.760 -1.5956 -2.5084 -0.1946
 7014TIP3   OH242456   6.508   2.972   2.229 -0.1168 -0.1881 -0.2927
 7014TIP3    H142457   6.531   3.019   2.149 -1.4464  0.3390 -0.3821
 7014TIP3    H242458   6.491   3.040   2.294  0.6759 -0.6073  0.3782
 7015TIP3   OH242459   4.426   3.457   4.960  0.3156 -0.4721 -0.2982
 7015TIP3    H142460   4.363   3.395   4.998 -1.1008  0.0949 -1.6346
 7015TIP3    H242461   4.485   3.402   4.908  0.6290 -0.9560  0.5496
 7016TIP3   OH242462   2.853   1.552  12.323  0.1165  0.6941 -0.0750
 7016TIP3    H142463   2.812   1.634  12.348 -1.7566 -0.3887  0.6145
 7016TIP3    H242464   2.839   1.494  12.398  3.3641  0.3347  0.4026
 7017TIP3   OH242465   0.112   2.774   0.448 -0.2690  0.4464  0.1654
 7017TIP3    H142466   0.153   2.698   0.406 -2.0399  1.2229 -3.3174
 7017TIP3    H242467   0.061   2.736   0.520 -0.8910 -1.7288 -1.2899
 7018TIP3   OH242468   6.561   5.197   4.984 -0.9003 -0.0276 -0.4222
 7018TIP3    H142469   6.540   5.279   4.939  0.0325  0.5022  0.0805
 7018TIP3    H242470   6.655   5.186   4.970 -0.5359  0.2513  1.5295
 7019TIP3   OH242471   1.750   5.503   0.125 -0.2255 -0.1130 -0.0527
 7019TIP3    H142472   1.763   5.408   0.119  3.2069  0.3132 -1.3661
 7019TIP3    H242473   1.738   5.531   0.034  0.6087  0.8836  0.1253
 7020TIP3   OH242474   2.028   2.543   3.662  0.7186  0.2043 -0.4357
 7020TIP3    H142475   1.992   2.525   3.750 -2.4241  2.9084 -0.9767
 7020TIP3    H242476   2.120   2.562   3.677  0.9466 -2.1306  1.8469
 7021TIP3   OH242477   0.880   4.636  16.266 -0.1305 -0.5490 -0.6872
 7021TIP3    H142478   0.961   4.648  16.217  0.1552 -1.1200 -0.3611
 7021TIP3    H242479   0.827   4.713  16.244 -0.6097 -1.4684 -3.0189
 7022TIP3   OH242480   2.665   1.409  12.174 -0.3950 -0.6248  0.2501
 7022TIP3    H142481   2.593   1.465  12.203  0.4343 -0.3698  1.9813
 7022TIP3    H242482   2.744   1.455  12.202  0.4626 -0.9546 -1.4953
 7023TIP3   OH242483   0.459   0.127   1.524  0.8432  0.4407  0.5990
 7023TIP3    H142484   0.510   0.100   1.448  0.4146  1.2006  0.0217
 7023TIP3    H242485   0.499   0.209   1.552  0.0858  0.9353  0.2683
 7024TIP3   OH242486   6.341   6.695   5.283  0.5733 -0.2084 -0.1834
 7024TIP3    H142487   6.398   6.673   5.208  1.2525  1.7471 -0.2908
 7024TIP3    H242488   6.398   6.742   5.343 -0.4146 -0.2131  0.7818
 7025TIP3   OH242489   4.403   3.299  13.507  0.1298 -0.1413 -0.3136
 7025TIP3    H142490   4.325   3.259  13.545  0.0669 -1.5044 -1.7372
 7025TIP3    H242491   4.475   3.268  13.561 -0.2857  1.1504  1.0258
 7026TIP3   OH242492   0.488   5.340   5.234 -0.1188 -0.0185  0.4350
 7026TIP3    H142493   0.399   5.360   5.261 -0.3552  0.9380 -0.9321
 7026TIP3    H242494   0.538   5.418   5.256  0.1109 -0.0506  0.0442
 7027TIP3   OH242495   4.075   6.575  15.819  0.3187  0.3845  0.2898
 7027TIP3    H142496   4.130   6.516  15.768 -2.1749 -1.7370 -0.1410
 7027TIP3    H242497   4.135   6.615  15.882  2.1009 -3.1748  1.1256
 7028TIP3   OH242498   2.187   4.425  17.323 -0.4379 -0.2757 -0.5170
 7028TIP3    H142499   2.118   4.376  17.279  1.0269 -1.4546 -1.6363
 7028TIP3    H242500   2.190   4.389  17.412  0.6674 -2.3691 -1.3436
 7029TIP3   OH242501   1.717   6.496  12.470 -0.0519  0.1005  0.0410
 7029TIP3    H142502   1.792   6.545  12.505  1.5288 -0.3521 -2.4678
 7029TIP3    H242503   1.641   6.547  12.497  1.3880  2.6667 -0.4026
 7030TIP3   OH242504   3.965   5.312   0.025 -0.2979 -0.4297 -0.2335
 7030TIP3    H142505   4.059   5.299   0.040 -0.1502  0.5083 -0.2575
 7030TIP3    H242506   3.925   5.298   0.110 -0.1241 -0.7476 -0.2026
 7031TIP3   OH242507   6.432   2.259  11.624 -0.3383 -0.2504  0.0747
 7031TIP3    H142508   6.449   2.260  11.530 -0.9148  0.6780 -0.0276
 7031TIP3    H242509   6.338   2.276  11.632  0.0581  1.9914  0.8573
 7032TIP3   OH242510   6.740   4.684   1.359  0.1145  0.5505 -0.5122
 7032TIP3    H142511   6.733   4.602   1.311  1.4347 -0.3044  0.6841
 7032TIP3    H242512   6.657   4.729   1.342 -0.6889 -1.0721 -1.0788
 7033TIP3   OH242513   0.107   6.132  13.430 -0.5651  0.1367  0.7026
 7033TIP3    H142514   0.067   6.069  13.491 -1.7306 -0.0232 -0.1929
 7033TIP3    H242515   0.111   6.086  13.347  0.2929  0.6271  0.4572
 7034TIP3   OH242516   2.156   2.698  15.690  0.2124 -0.3008  0.1822
 7034TIP3    H142517   2.191   2.628  15.746 -0.2197 -0.8214 -0.1847
 7034TIP3    H242518   2.088   2.739  15.744  1.6082  0.9708  1.0447
 7035TIP3   OH242519   2.727   4.625  14.093  0.1953  0.5994  0.3539
 7035TIP3    H142520   2.818   4.599  14.077 -0.5318 -1.5011 -0.6971
 7035TIP3    H242521   2.732   4.686  14.167  2.3320 -0.4764  1.1633
 7036TIP3   OH242522   0.583   1.649   3.863 -0.6016 -0.5998  0.4510
 7036TIP3    H142523   0.586   1.556   3.886  0.0212 -0.3684  1.3593
 7036TIP3    H242524   0.655   1.688   3.912  0.2101  0.0965 -1.2352
 7037TIP3   OH242525   0.956   6.636   2.853  0.6305 -0.0179  0.5045
 7037TIP3    H142526   0.918   6.675   2.932 -0.8869 -0.0434 -0.1809
 7037TIP3    H242527   0.884   6.634   2.790  1.2591 -1.8802 -0.2198
 7038TIP3   OH242528   1.265   1.199  12.953  0.2791  0.0604 -0.3910
 7038TIP3    H142529   1.345   1.202  12.901 -0.4475 -0.4700 -1.6023
 7038TIP3    H242530   1.291   1.227  13.040  2.0876 -1.4819 -0.3661
 7039TIP3   OH242531   4.878   5.750  13.309 -0.4845 -0.5789  0.2220
 7039TIP3    H142532   4.870   5.723  13.400 -0.0156 -1.1240  0.1081
 7039TIP3    H242533   4.950   5.813  13.310 -2.7252  2.1852  0.7938
 7040TIP3   OH242534   4.848   0.632  12.073  0.3791  0.7074  0.5380
 7040TIP3    H142535   4.816   0.625  12.163  1.1539  1.1460  0.8564
 7040TIP3    H242536   4.822   0.720  12.044 -0.8779  0.1658 -0.0910
 7041TIP3   OH242537   4.451   1.339   0.087  0.1371  0.2261 -0.3985
 7041TIP3    H142538   4.480   1.430   0.081  2.1927 -0.1095  2.3671
 7041TIP3    H242539   4.502   1.293   0.021 -1.5964  1.1043 -2.4783
 7042TIP3   OH242540   3.660   5.079   2.123 -0.0628  0.1195  0.0931
 7042TIP3    H142541   3.744   5.109   2.158 -0.0635  0.7137 -0.3869
 7042TIP3    H242542   3.606   5.065   2.201  0.5332 -0.4500  0.4144
 7043TIP3   OH242543   2.604   0.148  13.838 -0.2187 -0.0854 -0.0603
 7043TIP3    H142544   2.547   0.156  13.762  2.0900  2.5243 -1.7067
 7043TIP3    H242545   2.666   0.220  13.830  2.0281 -1.4801  2.7139
 7044TIP3   OH242546   0.796   2.533  15.955  0.5160 -0.2299 -0.3878
 7044TIP3    H142547   0.850   2.609  15.979 -0.3219  0.2928 -0.1012
 7044TIP3    H242548   0.815   2.518  15.862  0.6246  0.3892 -0.4711
 7045TIP3   OH242549   0.211   3.804  12.329 -0.5094  0.6221  0.6115
 7045TIP3    H142550   0.279   3.868  12.349 -0.0003 -0.2175  1.6095
 7045TIP3    H242551   0.210   3.799  12.233 -0.3384  1.8729  0.5324
 7046TIP3   OH242552   3.073   6.390   4.102 -0.2119  0.5364  0.1540
 7046TIP3    H142553   3.093   6.315   4.045  0.4520 -0.5987  1.8220
 7046TIP3    H242554   3.132   6.459   4.072  1.4713 -0.6312  0.6095
 7047TIP3   OH242555   6.264   5.191   5.922 -0.2334 -0.0544  0.3967
 7047TIP3    H142556   6.283   5.284   5.911 -1.0127  0.0458 -0.1973
 7047TIP3    H242557   6.267   5.156   5.833 -0.9968 -0.3848  0.4936
 7048TIP3   OH242558   5.409   2.202  16.212  0.6208 -0.0120  0.3823
 7048TIP3    H142559   5.438   2.292  16.226  0.9241 -0.2872  1.6464
 7048TIP3    H242560   5.360   2.179  16.291 -0.4877 -0.5720 -0.4341
 7049TIP3   OH242561   6.278   0.365   4.449  0.1126  0.1704  0.6602
 7049TIP3    H142562   6.200   0.396   4.404  0.7497  2.0836  0.7706
 7049TIP3    H242563   6.250   0.347   4.538 -0.5784 -0.9856  0.2218
 7050TIP3   OH242564   0.820   0.288   0.962  0.3179 -0.1595  0.0868
 7050TIP3    H142565   0.761   0.326   0.897 -0.8443 -0.7418  0.7693
 7050TIP3    H242566   0.786   0.319   1.046  0.2719 -1.4433  0.5607
 7051TIP3   OH242567   5.604   2.235   5.205  0.5202 -0.0587  0.0908
 7051TIP3    H142568   5.623   2.181   5.281 -0.5176 -0.2771  0.2038
 7051TIP3    H242569   5.510   2.224   5.189  0.2855  1.6259  0.0643
 7052TIP3   OH242570   0.787   6.508  11.520 -0.9282 -0.2647  0.5190
 7052TIP3    H142571   0.777   6.443  11.450 -1.0428  0.1086  0.1851
 7052TIP3    H242572   0.848   6.467  11.582  0.7316  0.1618 -0.7428
 7053TIP3   OH242573   5.931   5.811  14.480  0.4886  0.2118  0.6621
 7053TIP3    H142574   5.984   5.737  14.450  0.9288  0.3821  1.0025
 7053TIP3    H242575   5.994   5.869  14.524  0.1842  0.8815  0.2370
 7054TIP3   OH242576   5.224   2.435   4.886 -0.1145 -0.5502 -0.5165
 7054TIP3    H142577   5.307   2.394   4.861  0.6211 -0.0421  0.9985
 7054TIP3    H242578   5.226   2.521   4.844 -0.3540 -0.9302 -1.3255
 7055TIP3   OH242579   6.583   5.316  15.717  0.0502  0.1351 -0.2680
 7055TIP3    H142580   6.618   5.251  15.657 -1.0553 -0.4172 -0.3523
 7055TIP3    H242581   6.611   5.286  15.804  0.7603  0.3545 -0.4150
 7056TIP3   OH242582   6.069   5.334  13.373  0.3977 -0.0935  0.6300
 7056TIP3    H142583   6.121   5.311  13.450  0.0482 -1.0680  0.5828
 7056TIP3    H242584   6.065   5.430  13.375  0.7391 -0.0885  1.5884
 7057TIP3   OH242585   1.378   3.985   5.231  0.0468 -0.1246 -0.0240
 7057TIP3    H142586   1.315   3.989   5.159 -2.2888 -0.5670  1.8311
 7057TIP3    H242587   1.324   3.998   5.309  2.3442 -0.3719  1.6943
 7058TIP3   OH242588   6.286   1.522  10.507  0.3962 -0.0267  0.4341
 7058TIP3    H142589   6.253   1.501  10.594  0.5098 -0.6634  0.3307
 7058TIP3    H242590   6.323   1.610  10.515  0.9773 -0.3367  1.1886
 7059TIP3   OH242591   1.970   2.544  11.097 -0.1244  0.2520 -0.3115
 7059TIP3    H142592   2.048   2.516  11.144  0.5367  0.2210 -1.3812
 7059TIP3    H242593   1.976   2.501  11.012 -2.3515 -1.3656  0.2572
 7060TIP3   OH242594   5.895   5.722   6.176  0.4636  0.1323 -0.5418
 7060TIP3    H142595   5.804   5.692   6.173 -1.1928  4.1330  2.2582
 7060TIP3    H242596   5.930   5.684   6.257  0.2679  0.9927 -0.0466
 7061TIP3   OH242597   1.750   0.983  14.679  0.2801 -0.1030 -0.0191
 7061TIP3    H142598   1.734   0.976  14.773  0.8809 -0.1299  0.0870
 7061TIP3    H242599   1.714   0.902  14.643 -2.0215  0.8970 -0.1279
 7062TIP3   OH242600   0.949   3.439  16.762 -0.1476  0.0054 -0.4631
 7062TIP3    H142601   1.004   3.415  16.836  0.4770  0.5547 -0.7316
 7062TIP3    H242602   0.860   3.440  16.797 -0.1431 -1.9777 -0.2889
 7063TIP3   OH242603   0.715   4.510   6.373 -0.0317  0.2532 -0.0362
 7063TIP3    H142604   0.754   4.597   6.371 -1.5794  1.1239  2.4120
 7063TIP3    H242605   0.622   4.526   6.386 -0.2420 -1.7326  1.4171
 7064TIP3   OH242606   4.498   0.666  13.627 -0.7010  0.8358 -0.0796
 7064TIP3    H142607   4.501   0.700  13.538  0.9227  0.0300 -0.3595
 7064TIP3    H242608   4.576   0.612  13.635 -1.5406 -0.2243  1.3942
 7065TIP3   OH242609   5.657   0.469   0.905  0.1664 -0.4030  0.1889
 7065TIP3    H142610   5.566   0.441   0.910  0.2219 -0.5964  0.1172
 7065TIP3    H242611   5.707   0.388   0.892  0.4564 -0.4405  1.4021
 7066TIP3   OH242612   6.707   3.438   0.145  1.0028  0.6258  0.0278
 7066TIP3    H142613   6.633   3.425   0.086 -1.6622 -1.1796  3.4223
 7066TIP3    H242614   6.693   3.525   0.183  2.0882  1.3157 -1.0722
 7067TIP3   OH242615   5.678   2.890   5.504 -0.7483  0.0135 -0.4393
 7067TIP3    H142616   5.587   2.892   5.534 -0.7845 -0.4596 -0.5113
 7067TIP3    H242617   5.680   2.820   5.439 -0.3835  0.1810 -0.6103
 7068TIP3   OH242618   3.731   0.048  15.325 -0.2119 -0.1955  0.4456
 7068TIP3    H142619   3.740  -0.048  15.320 -2.2691 -0.4286  0.3534
 7068TIP3    H242620   3.680   0.070  15.247  0.9231  1.1061  0.0419
 7069TIP3   OH242621   1.607   1.725   0.375  0.0037  0.0046  0.6900
 7069TIP3    H142622   1.680   1.726   0.314 -0.0104  1.2463  0.6669
 7069TIP3    H242623   1.529   1.717   0.320  0.0856 -0.6477  0.6686
 7070TIP3   OH242624   0.883   4.227   2.685  0.3900  0.2227  0.5088
 7070TIP3    H142625   0.913   4.150   2.637  0.4434 -0.2901  1.3390
 7070TIP3    H242626   0.809   4.195   2.738 -0.1324  0.9388  0.2297
 7071TIP3   OH242627   6.668   2.447   1.580  0.1817  0.3517 -0.1282
 7071TIP3    H142628   6.690   2.497   1.501  1.0097  0.2083 -0.0017
 7071TIP3    H242629   6.700   2.502   1.652 -0.2786  0.3335  0.0950
 7072TIP3   OH242630   6.141   1.763   5.099 -0.2269 -0.2256 -0.0061
 7072TIP3    H142631   6.203   1.733   5.032 -0.8368 -0.1126 -0.6341
 7072TIP3    H242632   6.191   1.824   5.152  0.5267 -0.9900  0.1976
 7073TIP3   OH242633   2.602   2.272  11.008 -0.0069  0.4207 -0.0418
 7073TIP3    H142634   2.509   2.262  10.989 -0.1181  0.9583  0.2034
 7073TIP3    H242635   2.630   2.345  10.953  0.3116  0.1446 -0.2483
 7074TIP3   OH242636   3.837   3.938  12.728 -0.7598 -0.5117  0.4670
 7074TIP3    H142637   3.901   3.889  12.676 -0.9785  0.1372 -0.4444
 7074TIP3    H242638   3.852   3.909  12.818 -0.3770 -1.6769  0.0494
 7075TIP3   OH242639   6.658   5.323   2.039  0.8269  1.0074  0.3751
 7075TIP3    H142640   6.738   5.334   1.988  1.5025 -0.0861  1.1655
 7075TIP3    H242641   6.663   5.234   2.074 -0.4465  1.1281  0.9350
 7076TIP3   OH242642   4.558   5.960  12.661 -0.0135 -0.3965 -0.2616
 7076TIP3    H142643   4.603   5.893  12.609  1.2787  0.2122  0.0389
 7076TIP3    H242644   4.611   5.970  12.740 -0.0606  1.0848 -0.3716
 7077TIP3   OH242645   3.487   4.541   1.247  0.2074  0.2145 -0.0015
 7077TIP3    H142646   3.436   4.526   1.167 -3.8771  2.0034  1.9747
 7077TIP3    H242647   3.482   4.636   1.261 -0.3708 -0.1665  3.0094
 7078TIP3   OH242648   3.801   3.319   5.867  0.1080 -0.4508 -0.7170
 7078TIP3    H142649   3.813   3.324   5.962  1.0206  0.9466 -0.8766
 7078TIP3    H242650   3.855   3.243   5.841  2.0234  0.7219 -0.3891
 7079TIP3   OH242651   6.263   1.516  13.795  0.4323  0.7870 -0.1736
 7079TIP3    H142652   6.348   1.558  13.797  0.0003  1.7248  2.8106
 7079TIP3    H242653   6.213   1.558  13.865 -1.4109 -1.8633  0.2886
 7080TIP3   OH242654   5.144   5.185  13.595  0.3272  0.1580  0.8613
 7080TIP3    H142655   5.181   5.271  13.577 -1.4767  0.4622 -2.0586
 7080TIP3    H242656   5.098   5.195  13.678 -0.0037  2.1160  0.4879
 7081TIP3   OH242657   0.965   5.157   0.075  0.4995  0.0416  0.3219
 7081TIP3    H142658   0.885   5.172   0.124  0.2664 -2.2231  0.7393
 7081TIP3    H242659   0.938   5.158  -0.017  0.5800  2.2402  0.2658
 7082TIP3   OH242660   5.506   5.874   2.927 -0.3660  0.2386 -0.2440
 7082TIP3    H142661   5.450   5.796   2.923 -0.9229  0.6347 -0.2784
 7082TIP3    H242662   5.532   5.889   2.836  0.0559 -0.1288 -0.1867
 7083TIP3   OH242663   5.295   3.479  16.526 -0.0461 -0.2632  0.1880
 7083TIP3    H142664   5.367   3.455  16.583  0.1417 -2.3130 -0.8381
 7083TIP3    H242665   5.337   3.523  16.451  0.2927 -2.1754 -0.8021
 7084TIP3   OH242666   6.073   6.364  16.426 -0.4395  0.3452  0.1558
 7084TIP3    H142667   6.121   6.369  16.344 -0.5436 -0.1217  0.0663
 7084TIP3    H242668   6.087   6.450  16.467 -0.0899  0.4507 -0.1777
 7085TIP3   OH242669   1.609   1.297   5.784  0.1828  0.0616  0.3525
 7085TIP3    H142670   1.518   1.324   5.777  0.0536 -0.4169  0.1152
 7085TIP3    H242671   1.643   1.345   5.860  0.2791  1.7103 -0.6893
 7086TIP3   OH242672   4.856   1.040  12.820  0.6954  0.1625  0.0111
 7086TIP3    H142673   4.800   1.014  12.894  1.0609 -1.3830 -0.2193
 7086TIP3    H242674   4.945   1.039  12.856  1.0564 -2.1422 -0.7600
 7087TIP3   OH242675   1.427   5.281  14.033 -0.2704 -0.3710  0.6353
 7087TIP3    H142676   1.428   5.198  13.986  1.4983  0.0141 -0.0746
 7087TIP3    H242677   1.406   5.257  14.123  0.8200 -1.6749  0.5729
 7088TIP3   OH242678   3.436   0.938  14.406  0.1392  0.0434 -0.5719
 7088TIP3    H142679   3.408   0.886  14.481 -0.3721  0.8174 -0.2179
 7088TIP3    H242680   3.532   0.941  14.413  0.0260  1.1432  0.7641
 7089TIP3   OH242681   1.398   0.904   4.766  0.2947 -0.5376 -0.0846
 7089TIP3    H142682   1.329   0.949   4.814 -2.6811 -1.7081 -2.8812
 7089TIP3    H242683   1.381   0.811   4.780  1.2964 -0.8594 -0.8695
 7090TIP3   OH242684   2.879   5.697   4.155 -0.1367  0.0915 -0.5887
 7090TIP3    H142685   2.806   5.747   4.193 -1.3920 -1.3896 -0.9400
 7090TIP3    H242686   2.944   5.694   4.225 -1.2301 -0.2015  0.4525
 7091TIP3   OH242687   4.397   0.747   1.393 -0.1868  0.1536 -0.2705
 7091TIP3    H142688   4.466   0.803   1.357  0.0146 -1.1477 -2.0493
 7091TIP3    H242689   4.432   0.658   1.387 -0.7482 -0.2676  1.9017
 7092TIP3   OH242690   2.337   1.584   5.924  0.0396  0.1126  0.2952
 7092TIP3    H142691   2.386   1.502   5.919  1.0159  0.7580 -1.6546
 7092TIP3    H242692   2.253   1.565   5.882  0.0605 -0.0188  0.3134
 7093TIP3   OH242693   3.168   0.122  17.329  0.7300 -0.3305  0.2761
 7093TIP3    H142694   3.191   0.201  17.280 -1.1611  0.1621  0.0887
 7093TIP3    H242695   3.238   0.113  17.394  0.8397  1.6861  0.5161
 7094TIP3   OH242696   5.212   3.961  12.000  0.1747  0.8161 -0.4970
 7094TIP3    H142697   5.247   4.048  11.981  1.4464 -0.1595 -3.1992
 7094TIP3    H242698   5.130   3.956  11.951 -0.6738  0.9446  0.8445
 7095TIP3   OH242699   4.888   5.572   6.202  0.1728 -0.1174  0.4926
 7095TIP3    H142700   4.811   5.619   6.235  0.3014 -0.0466  0.6901
 7095TIP3    H242701   4.937   5.637   6.153 -0.6699 -0.5226 -0.9331
 7096TIP3   OH242702   2.401   2.601  16.095 -0.0509  0.2023 -0.4100
 7096TIP3    H142703   2.470   2.663  16.119  0.7747 -0.7587 -0.2120
 7096TIP3    H242704   2.394   2.543  16.171 -1.4142  0.5480 -0.2372
 7097TIP3   OH242705   2.102   3.480   0.343 -0.3198 -0.0231  0.3440
 7097TIP3    H142706   2.182   3.435   0.316 -1.6486 -2.2267 -0.1957
 7097TIP3    H242707   2.099   3.468   0.438 -0.5625 -0.9626  0.2282
 7098TIP3   OH242708   0.353   2.100   5.354  0.1793  0.2327  0.1323
 7098TIP3    H142709   0.378   2.018   5.397  0.1769  0.0299 -0.2454
 7098TIP3    H242710   0.278   2.076   5.299 -0.5516  0.7311  0.8804
 7099TIP3   OH242711   4.004   3.560   0.144 -0.3409  0.6166  0.0171
 7099TIP3    H142712   3.954   3.579   0.223 -2.5255  0.7311 -1.3097
 7099TIP3    H242713   3.964   3.480   0.109  1.6742 -0.3941 -0.1483
 7100TIP3   OH242714   5.286   1.177   3.193 -0.6790  0.2156 -0.4766
 7100TIP3    H142715   5.293   1.189   3.288  1.8848  0.6274 -0.6492
 7100TIP3    H242716   5.193   1.158   3.178 -0.8465 -1.6624  2.2915
 7101TIP3   OH242717   5.183   1.893  11.511  0.3722  0.2383 -0.1376
 7101TIP3    H142718   5.199   1.809  11.469 -2.0631  0.2088 -1.1788
 7101TIP3    H242719   5.182   1.956  11.439 -0.3820  0.7304  0.2827
 7102TIP3   OH242720   0.344   5.675   2.174 -0.1175  0.2002  0.2526
 7102TIP3    H142721   0.365   5.754   2.124  0.2709  0.3773  0.6897
 7102TIP3    H242722   0.324   5.706   2.262 -1.2535 -0.0669  0.1005
 7103TIP3   OH242723   3.804   1.234  11.938  0.4822 -0.2377  0.4383
 7103TIP3    H142724   3.848   1.214  11.855 -0.1933  1.1576 -0.2872
 7103TIP3    H242725   3.804   1.150  11.985  1.0611 -1.0205 -0.8794
 7104TIP3   OH242726   0.290   6.190  13.638  0.5112 -0.4224  0.2158
 7104TIP3    H142727   0.311   6.118  13.578  2.3903  1.3003 -1.3643
 7104TIP3    H242728   0.201   6.215  13.614  0.5020 -1.0722 -0.4740
 7105TIP3   OH242729   0.595   1.269   0.318 -0.4742  0.2089 -0.5075
 7105TIP3    H142730   0.674   1.266   0.372 -0.9021 -0.8996  0.0946
 7105TIP3    H242731   0.545   1.193   0.346 -2.2047  1.4169 -0.2075
 7106TIP3   OH242732   1.077   2.947   0.667 -0.4583 -0.0232 -0.0233
 7106TIP3    H142733   1.113   2.882   0.608  1.3943 -1.6106  2.6456
 7106TIP3    H242734   1.138   3.020   0.663  0.7695 -0.9221  1.2471
 7107TIP3   OH242735   1.531   1.978   1.038 -0.3629 -0.2478  0.5601
 7107TIP3    H142736   1.567   2.054   0.991 -0.8803 -0.0198  0.5339
 7107TIP3    H242737   1.585   1.905   1.009 -0.5234 -0.0709 -0.2105
 7108TIP3   OH242738   6.335   2.904   4.050 -0.1381 -0.1853 -0.0096
 7108TIP3    H142739   6.365   2.990   4.080  1.1909  0.0153 -1.7367
 7108TIP3    H242740   6.259   2.923   3.995 -0.7733 -0.2774  0.8214
 7109TIP3   OH242741   3.257   0.211   3.946 -0.1466 -0.3034  0.1856
 7109TIP3    H142742   3.330   0.266   3.973 -0.3147  0.2815 -0.5216
 7109TIP3    H242743   3.258   0.215   3.850 -1.5513  0.3222  0.1768
 7110TIP3   OH242744   0.455   1.161  11.800 -0.2018  0.3617  0.4976
 7110TIP3    H142745   0.429   1.101  11.730  0.0558  0.3997  0.3696
 7110TIP3    H242746   0.384   1.155  11.864 -0.8402  0.9117 -0.1277
 7111TIP3   OH242747   1.511   2.700   6.178 -0.2264 -0.7119  0.3655
 7111TIP3    H142748   1.522   2.676   6.270  0.4012 -2.7692 -0.2024
 7111TIP3    H242749   1.435   2.650   6.148  0.0562 -0.6810 -0.4373
 7112TIP3   OH242750   6.667   5.891  13.475  0.6039  0.3714  0.2539
 7112TIP3    H142751   6.604   5.961  13.459  1.4448  0.5576 -2.9036
 7112TIP3    H242752   6.615   5.810  13.470  0.2856  0.6017 -0.1617
 7113TIP3   OH242753   6.657   0.314   6.122  0.1497 -0.2523 -0.9473
 7113TIP3    H142754   6.669   0.385   6.059 -0.2330 -0.8158 -1.6724
 7113TIP3    H242755   6.637   0.358   6.205  2.6380  0.5749 -0.7040
 7114TIP3   OH242756   1.987   1.915   1.613  0.3574 -0.0622 -0.0124
 7114TIP3    H142757   1.957   1.826   1.631  0.5734 -0.4012 -1.1999
 7114TIP3    H242758   2.036   1.908   1.531  1.7038  0.8896  0.6704
 7115TIP3   OH242759   3.945   1.456  12.091  0.6282 -0.7875  0.1900
 7115TIP3    H142760   3.894   1.384  12.129  1.4486 -1.1329  0.6676
 7115TIP3    H242761   4.036   1.423  12.091  1.2309  0.7576  1.7082
 7116TIP3   OH242762   1.953   4.639   2.875  0.0946  0.0761  0.4775
 7116TIP3    H142763   1.881   4.577   2.865 -1.5216  1.8623  0.5254
 7116TIP3    H242764   1.996   4.639   2.789 -0.9224  0.1296 -0.0483
 7117TIP3   OH242765   2.145   5.616   2.416 -0.1635 -0.3774 -0.1154
 7117TIP3    H142766   2.109   5.700   2.388  0.2848 -0.6206 -1.4576
 7117TIP3    H242767   2.108   5.603   2.503 -1.4288  0.5035 -0.4923
 7118TIP3   OH242768   3.746   2.485  14.134 -0.0550  0.0418  0.0686
 7118TIP3    H142769   3.657   2.486  14.169 -0.0633 -1.2899  0.1398
 7118TIP3    H242770   3.745   2.416  14.067  0.0863  2.1860 -2.3062
 7119TIP3   OH242771   3.421   0.331   6.070 -0.4986 -0.7929  0.1042
 7119TIP3    H142772   3.452   0.252   6.026 -0.2513  0.0754 -1.3533
 7119TIP3    H242773   3.492   0.393   6.061 -0.7513 -0.3387  1.1007
 7120TIP3   OH242774   2.638   1.929  14.459 -0.1298  0.6036 -0.2957
 7120TIP3    H142775   2.629   1.911  14.553  1.0336 -0.7829 -0.4224
 7120TIP3    H242776   2.548   1.944  14.429 -0.8011 -1.3472  0.5831
 7121TIP3   OH242777   5.742   3.013  13.196 -0.0354  0.8101 -0.0296
 7121TIP3    H142778   5.675   2.976  13.139 -0.0695  1.1218 -0.1941
 7121TIP3    H242779   5.742   2.956  13.273 -0.7224  0.9958  0.1163
 7122TIP3   OH242780   3.264   4.936  14.183  0.2883  0.4758 -0.0419
 7122TIP3    H142781   3.206   4.863  14.204  0.2986  0.4563 -0.0814
 7122TIP3    H242782   3.346   4.895  14.156  0.3601  0.5066  0.1343
 7123TIP3   OH242783   2.129   1.732  15.625 -0.2697 -0.7285 -0.1372
 7123TIP3    H142784   2.115   1.824  15.603 -2.1767 -1.0673 -0.5141
 7123TIP3    H242785   2.160   1.734  15.716 -0.6543  0.2736 -0.0158
 7124TIP3   OH242786   5.362   4.255   3.463 -0.2167 -0.3205 -0.5655
 7124TIP3    H142787   5.323   4.237   3.548  0.6446  0.5030  0.0355
 7124TIP3    H242788   5.290   4.247   3.401 -1.6209  2.0332  0.5858
 7125TIP3   OH242789   4.581   5.322   3.811  0.4019 -0.2840  0.0363
 7125TIP3    H142790   4.596   5.282   3.897 -1.3922 -1.9232 -0.3400
 7125TIP3    H242791   4.615   5.411   3.820  2.1284 -1.0433  1.7773
 7126TIP3   OH242792   3.320   5.299   1.457 -0.1125 -0.4423  0.4790
 7126TIP3    H142793   3.265   5.257   1.523 -0.9462 -1.3862 -0.7697
 7126TIP3    H242794   3.352   5.378   1.499 -0.1263 -1.3185  2.2109
 7127TIP3   OH242795   2.493   3.814   2.559 -0.2843 -0.7954 -0.3359
 7127TIP3    H142796   2.550   3.756   2.610  0.5710 -0.7772 -1.2407
 7127TIP3    H242797   2.519   3.902   2.584 -0.5429 -0.7922 -0.0773
 7128TIP3   OH242798   4.493   2.998  13.009  0.1069 -0.1155  0.0888
 7128TIP3    H142799   4.585   2.979  13.030  0.1940 -1.5135 -1.4215
 7128TIP3    H242800   4.444   2.926  13.049 -0.4022  0.7276  1.0618
 7129TIP3   OH242801   4.841   6.559   2.244 -0.3825 -0.6233  0.6334
 7129TIP3    H142802   4.892   6.533   2.321  1.3932  1.4342  0.2474
 7129TIP3    H242803   4.902   6.552   2.171 -0.3793  2.3565  0.2111
 7130TIP3   OH242804   2.739   1.580  14.071  0.5155  0.2511  0.3237
 7130TIP3    H142805   2.658   1.532  14.088 -0.1302  0.9897 -0.5723
 7130TIP3    H242806   2.720   1.631  13.992  2.2310 -0.4184 -0.5570
 7131TIP3   OH242807   1.131   6.520  16.366  0.0492  0.3213  0.1202
 7131TIP3    H142808   1.056   6.527  16.308  0.7669  2.3117 -0.6689
 7131TIP3    H242809   1.203   6.492  16.310 -0.1937 -2.3603  1.0203
 7132TIP3   OH242810   6.073   2.119   3.158  0.1530  0.8465  0.4881
 7132TIP3    H142811   6.025   2.041   3.186  0.1871  0.5472 -0.2742
 7132TIP3    H242812   6.151   2.084   3.115 -0.1603  1.2765 -0.4561
 7133TIP3   OH242813   6.216   6.380  15.555 -0.1064  0.6282 -0.1425
 7133TIP3    H142814   6.138   6.434  15.567 -0.8559 -0.3991 -0.1868
 7133TIP3    H242815   6.200   6.333  15.472  0.8170  0.8208 -0.4401
 7134TIP3   OH242816   2.407   0.314  14.375  0.0463 -0.7399 -0.2594
 7134TIP3    H142817   2.385   0.345  14.288  1.8864 -0.5418 -0.7117
 7134TIP3    H242818   2.492   0.354  14.394  0.3043 -1.8233  1.0709
 7135TIP3   OH242819   4.071   2.594  11.966 -0.0428  0.3614 -0.6040
 7135TIP3    H142820   4.138   2.586  12.034 -0.5588 -2.0646 -0.2966
 7135TIP3    H242821   4.000   2.644  12.007  0.0171 -0.3283  0.3634
 7136TIP3   OH242822   3.193   0.516   5.095 -0.4711  0.3455 -0.6229
 7136TIP3    H142823   3.282   0.489   5.116 -1.1995 -1.3411  0.4608
 7136TIP3    H242824   3.165   0.570   5.169 -0.9748 -0.6788 -0.0466
 7137TIP3   OH242825   5.757   5.780   3.795 -0.0910 -0.4351 -0.4126
 7137TIP3    H142826   5.771   5.789   3.701  2.4734 -0.8644 -0.1362
 7137TIP3    H242827   5.711   5.696   3.805 -0.3179 -0.4144 -1.2624
 7138TIP3   OH242828   0.007   1.870   1.352 -0.1104 -0.0665 -0.6967
 7138TIP3    H142829  -0.004   1.949   1.405  3.0002 -0.7801  1.2208
 7138TIP3    H242830   0.050   1.900   1.272 -1.0571  0.4503 -1.0276
 7139TIP3   OH242831   2.160   1.362  17.303 -0.1560  0.8190  0.0162
 7139TIP3    H142832   2.232   1.388  17.246  0.9608  1.0207  1.4703
 7139TIP3    H242833   2.181   1.402  17.388 -2.4169  1.5852  0.2735
 7140TIP3   OH242834   1.951   1.644   3.981  0.3199 -0.5868 -0.0236
 7140TIP3    H142835   1.955   1.552   3.957  2.1447 -0.5802  0.1335
 7140TIP3    H242836   1.880   1.679   3.927 -0.2051 -2.0030 -0.2975
 7141TIP3   OH242837   2.737   6.753  16.361  0.2020 -1.0047  0.1381
 7141TIP3    H142838   2.771   6.777  16.447  0.4423 -0.5155 -0.0919
 7141TIP3    H242839   2.659   6.806  16.349  0.7588 -0.2728 -0.3896
 7142TIP3   OH242840   3.317   2.595  14.573  0.0883  0.4260  0.5520
 7142TIP3    H142841   3.327   2.612  14.479 -0.9123  1.1955  0.5639
 7142TIP3    H242842   3.395   2.546  14.597  2.0530  3.0618 -0.0007
 7143TIP3   OH242843   2.657   3.962   3.528 -0.1751  0.0645  0.1494
 7143TIP3    H142844   2.671   3.874   3.563 -0.1126 -2.2335 -4.7853
 7143TIP3    H242845   2.729   4.014   3.564  1.8940 -2.8572  0.5982
 7144TIP3   OH242846   1.511   5.961   6.107 -0.4147  0.0975 -0.7072
 7144TIP3    H142847   1.520   5.899   6.180  0.1236  1.3615  0.3466
 7144TIP3    H242848   1.570   5.929   6.040 -1.0736 -1.2139 -0.7011
 7145TIP3   OH242849   3.707   0.259   1.927  0.1170 -0.0616  0.3721
 7145TIP3    H142850   3.789   0.237   1.970 -0.5238 -2.4437  0.4958
 7145TIP3    H242851   3.726   0.252   1.833 -0.3703 -2.5908  0.4076
 7146TIP3   OH242852   6.387   4.659  11.775  0.2091 -0.0215 -0.0886
 7146TIP3    H142853   6.393   4.574  11.818 -0.0163  0.3360  0.6652
 7146TIP3    H242854   6.342   4.715  11.838 -0.7937  0.3262 -1.0891
 7147TIP3   OH242855   0.011   3.164   5.981  0.0281  0.6153 -0.6925
 7147TIP3    H142856  -0.066   3.130   6.028 -0.0679 -0.0970 -1.3370
 7147TIP3    H242857   0.083   3.151   6.042 -0.4355  1.7991  0.1371
 7148TIP3   OH242858   3.410   4.925  11.851  0.0827  0.1841 -0.1764
 7148TIP3    H142859   3.467   4.944  11.776 -1.7472  1.2908 -1.3667
 7148TIP3    H242860   3.322   4.926  11.814 -0.8273  0.0482  1.8920
 7149TIP3   OH242861   1.212   5.282   1.377 -0.1989  0.4109  0.0131
 7149TIP3    H142862   1.244   5.372   1.385 -0.1639  0.2300  2.4767
 7149TIP3    H242863   1.152   5.285   1.302 -0.5108  2.5612  0.2817
 7150TIP3   OH242864   4.066   2.152   2.522  0.1788 -0.2466 -0.1456
 7150TIP3    H142865   4.079   2.229   2.577 -0.1366 -0.3878  0.1347
 7150TIP3    H242866   3.984   2.169   2.475 -0.8069 -1.1194  1.1731
 7151TIP3   OH242867   3.714   4.778  12.860 -0.8014  0.0235  0.3304
 7151TIP3    H142868   3.724   4.873  12.869 -0.5811 -0.0119  0.4721
 7151TIP3    H242869   3.633   4.767  12.811  0.6255  0.4023 -2.3202
 7152TIP3   OH242870   0.675   5.538  14.639  0.2100 -0.2710  0.1670
 7152TIP3    H142871   0.673   5.476  14.712  1.6555 -1.7949 -1.0195
 7152TIP3    H242872   0.688   5.484  14.561 -1.5641  1.2684 -1.3213
 7153TIP3   OH242873   0.565   1.042  15.844 -0.4414 -0.3086 -0.1756
 7153TIP3    H142874   0.483   0.995  15.860 -1.0095  0.4521 -0.7991
 7153TIP3    H242875   0.542   1.134  15.849  0.4844 -0.0815  0.1273
 7154TIP3   OH242876   4.940   1.339  12.764  0.1418 -0.4159  0.1030
 7154TIP3    H142877   4.877   1.382  12.707  1.8586  1.6279 -0.3840
 7154TIP3    H242878   4.929   1.246  12.747 -0.3966  0.0615 -2.5076
 7155TIP3   OH242879   4.408   5.709  17.255 -0.5162 -0.3769  0.1684
 7155TIP3    H142880   4.425   5.668  17.170  0.1829  2.1086 -0.9731
 7155TIP3    H242881   4.329   5.665  17.287 -0.2945 -1.9887 -1.3249
 7156TIP3   OH242882   4.260   0.818  12.265  0.3614  0.5418 -0.3331
 7156TIP3    H142883   4.313   0.763  12.208 -0.9392  0.2890 -1.3403
 7156TIP3    H242884   4.209   0.757  12.318  1.2741  0.7773  0.8528
 7157TIP3   OH242885   1.580   0.391  16.127  0.2708 -0.0045  0.3510
 7157TIP3    H142886   1.504   0.442  16.156  0.2021 -0.1385  0.4080
 7157TIP3    H242887   1.617   0.442  16.055 -1.2202 -1.0611 -1.2442
 7158TIP3   OH242888   2.144   5.307   0.161  0.2471  0.3748 -0.0895
 7158TIP3    H142889   2.146   5.373   0.091 -1.6799  0.1175 -0.4461
 7158TIP3    H242890   2.217   5.330   0.218  2.4033  0.1428 -2.5493
 7159TIP3   OH242891   5.707   6.151  15.090  0.5066  0.7571  0.3145
 7159TIP3    H142892   5.624   6.110  15.117  1.6551 -0.9738  1.3976
 7159TIP3    H242893   5.714   6.132  14.997  2.0296 -3.7268  1.1105
 7160TIP3   OH242894   0.863   3.890  14.360 -0.3428  0.2559  0.2109
 7160TIP3    H142895   0.881   3.958  14.426  0.7241 -1.1860  1.4847
 7160TIP3    H242896   0.857   3.809  14.411 -0.2470 -0.8011 -1.4071
 7161TIP3   OH242897   1.002   3.682   2.094  0.5028 -0.1755  0.2159
 7161TIP3    H142898   0.927   3.723   2.052  1.6849  0.8317 -0.9737
 7161TIP3    H242899   0.970   3.658   2.181 -0.9054  1.0968  0.0879
 7162TIP3   OH242900   0.905   2.448   3.190 -0.1253  0.0584  0.2519
 7162TIP3    H142901   0.894   2.525   3.134 -1.1203  1.5261  2.3273
 7162TIP3    H242902   0.844   2.383   3.155 -0.5729  0.8626 -0.4786
 7163TIP3   OH242903   5.261   5.909   3.155  0.4878 -0.2051  0.7420
 7163TIP3    H142904   5.273   5.815   3.172 -1.2095 -0.5931 -0.0044
 7163TIP3    H242905   5.166   5.922   3.158  0.5037  1.0024 -1.5914
 7164TIP3   OH242906   4.328   3.339  16.585  0.2538 -0.2478  0.3788
 7164TIP3    H142907   4.418   3.355  16.615  1.3900 -1.4793 -2.0765
 7164TIP3    H242908   4.306   3.253  16.622  1.3658 -1.4207 -1.5514
 7165TIP3   OH242909   2.304   1.875  12.484 -0.4110  0.0895  0.7156
 7165TIP3    H142910   2.360   1.911  12.552 -0.0358  1.4334 -0.2544
 7165TIP3    H242911   2.227   1.842  12.530 -1.1260  2.8303  1.6595
 7166TIP3   OH242912   6.715   4.599  13.124  0.4094 -0.3989  0.0310
 7166TIP3    H142913   6.705   4.518  13.075  1.1951  0.8018 -2.2409
 7166TIP3    H242914   6.735   4.665  13.058  1.8029  1.2935  2.0172
 7167TIP3   OH242915   5.769   2.668   6.821  0.0483  0.3490  0.3244
 7167TIP3    H142916   5.686   2.678   6.773  0.2861  1.4144  0.1131
 7167TIP3    H242917   5.809   2.754   6.818  0.1756  0.4067  2.2981
 7168TIP3   OH242918   1.238   4.342   0.221  0.3223  0.2928 -0.7602
 7168TIP3    H142919   1.207   4.414   0.275  0.4302  0.2795 -0.6799
 7168TIP3    H242920   1.200   4.358   0.135 -1.9052 -1.0388 -0.0894
 7169TIP3   OH242921   0.277   3.284  14.256  0.1636  0.4073  0.8331
 7169TIP3    H142922   0.349   3.222  14.271  0.8697  1.1485  0.5682
 7169TIP3    H242923   0.201   3.240  14.294  0.4950 -0.9329  0.0417
 7170TIP3   OH242924   6.595   4.000  16.641 -0.5139 -0.1161  0.3437
 7170TIP3    H142925   6.551   3.922  16.676 -1.5565  0.7929  1.1339
 7170TIP3    H242926   6.623   4.049  16.719  0.0367  0.3626 -0.1420
 7171TIP3   OH242927   2.323   4.310   3.301  0.0702  0.3086  0.7771
 7171TIP3    H142928   2.396   4.254   3.326 -2.3449 -3.7042 -0.3247
 7171TIP3    H242929   2.319   4.304   3.206 -1.9468  0.0036  0.8371
 7172TIP3   OH242930   2.610   2.115   3.803  0.4798  0.6072 -0.1788
 7172TIP3    H142931   2.704   2.111   3.792  0.4746 -0.3704  0.0985
 7172TIP3    H242932   2.582   2.025   3.816 -0.3198  1.0044  1.1205
 7173TIP3   OH242933   4.013   0.375  16.162  0.2078 -0.4752 -0.0095
 7173TIP3    H142934   3.952   0.327  16.219 -0.0126 -0.0903  0.0812
 7173TIP3    H242935   4.048   0.308  16.104  0.1557 -0.8084  0.3380
 7174TIP3   OH242936   5.240   1.641   3.101  0.0381 -0.1965 -0.3725
 7174TIP3    H142937   5.155   1.619   3.063  0.5812  0.3793 -2.0510
 7174TIP3    H242938   5.266   1.563   3.150 -1.6863 -0.1665  0.6514
 7175TIP3   OH242939   0.940   4.518   0.727  0.0346 -0.1501  0.2975
 7175TIP3    H142940   0.922   4.609   0.705  0.9924  0.5410  2.1238
 7175TIP3    H242941   0.873   4.468   0.681 -1.8820  1.6566  0.9688
 7176TIP3   OH242942   4.090   4.670   5.253 -0.0417 -0.7084  0.5671
 7176TIP3    H142943   4.062   4.581   5.230 -1.1461 -0.4815  0.9811
 7176TIP3    H242944   4.178   4.659   5.288  1.0243 -1.3015 -2.0254
 7177TIP3   OH242945   0.712   6.746  11.710 -0.5302  0.6066  0.0289
 7177TIP3    H142946   0.664   6.724  11.630  1.1661 -1.2694 -0.5656
 7177TIP3    H242947   0.655   6.808  11.756 -1.7869  1.3575 -2.3633
 7178TIP3   OH242948   1.226   4.753  12.810 -0.3875 -0.4553  0.2557
 7178TIP3    H142949   1.216   4.808  12.888 -0.2109  0.1779 -0.1636
 7178TIP3    H242950   1.312   4.713  12.819  0.8674  1.8159 -0.9734
 7179TIP3   OH242951   1.019   2.707  14.324  0.2193 -0.0011  0.4611
 7179TIP3    H142952   1.090   2.672  14.377 -0.0810 -0.2434  0.7047
 7179TIP3    H242953   0.943   2.653  14.346 -0.6145  1.6334  1.9103
 7180TIP3   OH242954   6.259   5.766   6.000 -0.5043 -0.3736  0.4509
 7180TIP3    H142955   6.266   5.714   5.920 -0.1795  1.8910 -1.1184
 7180TIP3    H242956   6.169   5.754   6.030 -0.8000 -0.8446 -0.5943
 7181TIP3   OH242957   4.913   1.660  14.130 -0.0849  0.0547 -0.5827
 7181TIP3    H142958   4.977   1.680  14.062  1.2077 -0.7827  0.3287
 7181TIP3    H242959   4.906   1.565  14.130 -1.8538  0.1617 -1.0969
 7182TIP3   OH242960   0.556   5.186  12.371 -0.4176  0.3887 -0.1520
 7182TIP3    H142961   0.596   5.211  12.454 -3.0161 -1.5492  1.8566
 7182TIP3    H242962   0.609   5.112  12.340  0.8894  1.4615 -0.5944
 7183TIP3   OH242963   2.578   3.891   1.525  0.4803  0.4672 -0.4421
 7183TIP3    H142964   2.646   3.835   1.488 -0.3914 -0.3885 -0.8059
 7183TIP3    H242965   2.496   3.855   1.490 -0.4629 -0.6127  2.5871
 7184TIP3   OH242966   4.465   2.101   2.197 -0.2440  0.5016  0.3261
 7184TIP3    H142967   4.403   2.068   2.133 -0.4201  0.1713  0.6636
 7184TIP3    H242968   4.416   2.166   2.247 -1.0717 -1.3618  2.1090
 7185TIP3   OH242969   3.574   2.708  16.325 -0.5469 -0.2870  0.0257
 7185TIP3    H142970   3.580   2.775  16.393 -1.5378  1.4721 -1.5130
 7185TIP3    H242971   3.589   2.625  16.371  1.5642  1.0148  1.8584
 7186TIP3   OH242972   6.277   3.267  15.808 -0.0608 -0.4395  1.0705
 7186TIP3    H142973   6.239   3.347  15.843 -1.3359 -0.9285  0.8637
 7186TIP3    H242974   6.219   3.197  15.840  0.2366 -1.1402  0.1210
 7187TIP3   OH242975   4.832   0.451  11.274 -0.1643  0.4559 -0.1925
 7187TIP3    H142976   4.844   0.508  11.198  0.2393 -0.8874 -1.1773
 7187TIP3    H242977   4.738   0.432  11.274 -0.1348  0.2984 -0.4852
 7188TIP3   OH242978   5.093   2.906   2.585  0.4158 -0.4200  0.6026
 7188TIP3    H142979   5.075   2.940   2.498  2.3778 -3.1154 -1.0055
 7188TIP3    H242980   5.127   2.981   2.634  0.7203  0.8236 -1.4312
 7189TIP3   OH242981   1.191   4.083  15.990 -0.1615  0.2999  0.3045
 7189TIP3    H142982   1.196   3.996  16.031  2.4058 -0.1046 -0.6626
 7189TIP3    H242983   1.270   4.088  15.937 -0.4374  3.1308  0.0472
 7190TIP3   OH242984   5.566   2.726   5.864 -0.1473  0.5701 -0.1834
 7190TIP3    H142985   5.527   2.680   5.790 -0.5070 -0.7596  0.7980
 7190TIP3    H242986   5.496   2.733   5.928  0.9099 -1.0373  1.2407
 7191TIP3   OH242987   4.354   0.597  15.815 -0.0955 -0.0371  0.5047
 7191TIP3    H142988   4.286   0.657  15.846  0.1725 -0.1588  1.3387
 7191TIP3    H242989   4.349   0.522  15.874  0.9113  0.0544  0.7261
 7192TIP3   OH242990   2.466   0.523  16.399  0.2498  0.6410 -0.3099
 7192TIP3    H142991   2.430   0.573  16.472  0.4950  0.7516 -0.2660
 7192TIP3    H242992   2.410   0.446  16.392 -0.5206  1.2228 -0.7815
 7193TIP3   OH242993   2.798   6.371   0.502  0.5959  0.3083  0.0432
 7193TIP3    H142994   2.798   6.390   0.408 -0.5386  0.4281  0.0478
 7193TIP3    H242995   2.763   6.450   0.542 -4.3028 -1.4693  0.0626
 7194TIP3   OH242996   2.364   0.831  14.881  0.3172  0.0028  0.3136
 7194TIP3    H142997   2.452   0.797  14.898  0.2119 -0.6772 -0.4847
 7194TIP3    H242998   2.362   0.915  14.928  1.7008  0.4706 -0.3972
 7195TIP3   OH242999   1.461   3.427   0.021  0.1357  0.1853  0.1357
 7195TIP3    H143000   1.502   3.501   0.064  1.7309  0.2407 -1.3600
 7195TIP3    H243001   1.472   3.354   0.082 -0.3102  0.8752  1.0601
 7196TIP3   OH243002   6.607   1.733   0.889  0.1165 -0.0073  0.1924
 7196TIP3    H143003   6.519   1.703   0.909 -0.8749  1.2480 -1.8338
 7196TIP3    H243004   6.619   1.811   0.943 -1.1952  1.4223 -1.4374
 7197TIP3   OH243005   6.353   3.368   0.428  0.0680 -0.7571  0.0335
 7197TIP3    H143006   6.327   3.397   0.515  1.4479  0.3355  0.1173
 7197TIP3    H243007   6.313   3.431   0.369 -1.0582 -1.6291 -0.1746
 7198TIP3   OH243008   1.438   3.037   4.607 -0.3915  0.0400 -0.3007
 7198TIP3    H143009   1.383   3.064   4.533 -0.2917  0.0220 -0.3806
 7198TIP3    H243010   1.522   3.079   4.591 -0.7820  1.1929  0.5215
 7199TIP3   OH243011   0.112   1.348   0.722  0.1815  0.4504 -0.3990
 7199TIP3    H143012   0.185   1.383   0.773 -0.2801 -1.3232  1.6625
 7199TIP3    H243013   0.034   1.386   0.763 -0.1696 -0.5015 -0.1478
 7200TIP3   OH243014   1.079   4.952  11.225  0.0791 -0.2091  0.0171
 7200TIP3    H143015   1.141   5.022  11.205 -0.6057  0.8426  1.4116
 7200TIP3    H243016   0.995   4.983  11.190  0.3415 -1.7986 -2.2206
 7201TIP3   OH243017   2.678   2.032   4.456 -0.0071  0.5636 -0.2538
 7201TIP3    H143018   2.610   1.971   4.428 -0.8512 -0.6858  3.8488
 7201TIP3    H243019   2.760   1.986   4.440 -0.5141 -0.7005  0.6635
 7202TIP3   OH243020   3.614   2.348   3.176 -0.0554 -0.7819 -0.5262
 7202TIP3    H143021   3.648   2.267   3.136  1.8589  0.1528 -0.9283
 7202TIP3    H243022   3.569   2.319   3.255  1.4529 -2.1788 -0.1299
 7203TIP3   OH243023   1.203   2.438  10.964  0.0734 -0.4496 -0.1609
 7203TIP3    H143024   1.138   2.439  11.035  0.4943 -0.3611  0.2257
 7203TIP3    H243025   1.227   2.530  10.953 -0.4081 -0.3966 -0.8076
 7204TIP3   OH243026   1.311   1.300   6.022 -0.1359 -0.6918 -0.7467
 7204TIP3    H143027   1.263   1.365   5.969 -0.0470 -0.9570 -1.1521
 7204TIP3    H243028   1.242   1.248   6.063 -0.2041 -1.3126 -1.6244
 7205TIP3   OH243029   5.134   0.139   0.473  0.7760  0.0537 -0.3134
 7205TIP3    H143030   5.136   0.045   0.491  2.0186  0.1231  0.0459
 7205TIP3    H243031   5.180   0.149   0.390  1.5877  0.4259  0.1652
 7206TIP3   OH243032   2.057   3.985   5.828 -0.1790  0.0138  0.4270
 7206TIP3    H143033   2.000   3.910   5.811 -0.7918  0.7721 -0.9494
 7206TIP3    H243034   2.141   3.959   5.789  0.0556 -0.5434  1.2643
 7207TIP3   OH243035   4.717   0.505  13.560 -0.0713  0.3419  0.6627
 7207TIP3    H143036   4.724   0.410  13.552 -0.8670  0.4144 -1.5907
 7207TIP3    H243037   4.786   0.529  13.622  0.7868 -1.6156  0.5383
 7208TIP3   OH243038   3.291   2.476   5.279  0.7054 -0.1960 -0.2324
 7208TIP3    H143039   3.301   2.429   5.362  0.0053 -0.7836 -0.4622
 7208TIP3    H243040   3.202   2.512   5.283 -0.0394 -1.7509 -1.4461
 7209TIP3   OH243041   5.035   0.749   1.633  0.1347  0.3116  0.3341
 7209TIP3    H143042   5.084   0.710   1.561  0.2316  0.6015  0.2421
 7209TIP3    H243043   5.098   0.805   1.678 -0.1162  0.6957  0.2077
 7210TIP3   OH243044   4.514   0.163   1.493  0.4288  0.2323 -0.2879
 7210TIP3    H143045   4.464   0.119   1.425 -0.4060  0.8721 -0.1008
 7210TIP3    H243046   4.457   0.233   1.524  2.0114  2.0086 -1.1366
 7211TIP3   OH243047   0.080   0.955  11.671  0.1168  0.3066 -0.0167
 7211TIP3    H143048  -0.014   0.950  11.690  0.2212 -2.6548  0.0931
 7211TIP3    H243049   0.085   0.962  11.575 -0.2212 -0.8342 -0.1282
 7212TIP3   OH243050   6.248   1.273  14.014 -0.3719  0.4171 -0.1243
 7212TIP3    H143051   6.291   1.338  14.070 -2.8733  1.9348  0.2073
 7212TIP3    H243052   6.298   1.274  13.933  0.4546  1.7622  0.3665
 7213TIP3   OH243053   2.185   4.849  17.317 -0.3245  0.4440 -0.6855
 7213TIP3    H143054   2.195   4.788  17.244 -1.6238  1.2165 -1.5360
 7213TIP3    H243055   2.146   4.795  17.387  1.9890 -0.5878 -0.0825
 7214TIP3   OH243056   1.547   2.636   4.981  0.2937  0.3165  0.6565
 7214TIP3    H143057   1.535   2.698   4.909  1.8365  0.1377  0.2136
 7214TIP3    H243058   1.461   2.631   5.023 -0.7145  0.2660 -1.2855
 7215TIP3   OH243059   4.850   2.358  13.427 -0.0739  0.4104  0.6243
 7215TIP3    H143060   4.787   2.313  13.370 -0.0036  1.5950 -0.4398
 7215TIP3    H243061   4.820   2.338  13.516 -0.5711 -0.9499  0.1840
 7216TIP3   OH243062   0.585   4.866  14.812 -0.4002 -0.0889  0.2205
 7216TIP3    H143063   0.527   4.940  14.828 -1.2691 -0.3527 -1.4265
 7216TIP3    H243064   0.575   4.809  14.888 -0.8401  0.7808  0.8188
 7217TIP3   OH243065   0.608   4.037  11.580 -0.1505  0.0986  0.5335
 7217TIP3    H143066   0.609   4.089  11.500  0.8588 -0.4201  0.1853
 7217TIP3    H243067   0.552   3.962  11.561 -0.3628  0.2630  0.5091
 7218TIP3   OH243068   4.983   2.503   1.484  0.6322  0.2380  0.4236
 7218TIP3    H143069   5.073   2.478   1.503  0.8260 -0.0035 -0.7218
 7218TIP3    H243070   4.971   2.481   1.392  0.5118  3.4923 -0.4658
 7219TIP3   OH243071   1.983   4.306   1.578  0.1866  0.6832 -0.0877
 7219TIP3    H143072   2.029   4.242   1.524  0.7976  1.3372 -0.3586
 7219TIP3    H243073   1.922   4.348   1.519 -0.0531  0.5153  0.0377
 7220TIP3   OH243074   2.456   3.085   3.557 -0.5507  0.0983 -0.0140
 7220TIP3    H143075   2.397   3.129   3.618 -1.8942  0.3607 -1.4271
 7220TIP3    H243076   2.543   3.113   3.582 -1.3093  3.3575 -0.6242
 7221TIP3   OH243077   1.075   6.471  14.773 -0.5583  0.0706 -0.3201
 7221TIP3    H143078   0.985   6.456  14.745 -0.4403  1.4466 -1.5501
 7221TIP3    H243079   1.123   6.484  14.691  1.2298 -2.7191  0.1229
 7222TIP3   OH243080   1.362   2.840   0.112 -0.0300  0.5390 -0.2440
 7222TIP3    H143081   1.388   2.931   0.094  0.1396  0.7184  0.8343
 7222TIP3    H243082   1.333   2.807   0.027  0.9182  1.2596 -0.8781
 7223TIP3   OH243083   5.809   2.885  12.786 -0.2896  0.0235 -0.3930
 7223TIP3    H143084   5.718   2.901  12.813 -0.8209  0.7384 -2.4053
 7223TIP3    H243085   5.814   2.790  12.777 -0.4788 -0.1204  0.8286
 7224TIP3   OH243086   4.908   3.345  10.908 -0.3548  0.0087 -0.0263
 7224TIP3    H143087   4.938   3.392  10.985 -1.0220 -0.2358  0.3913
 7224TIP3    H243088   4.826   3.303  10.935 -0.5958 -0.0863 -0.8614
 7225TIP3   OH243089   3.568   4.238  14.646  0.5037  0.6399 -0.6993
 7225TIP3    H143090   3.605   4.207  14.564 -0.3332 -0.3811 -0.7211
 7225TIP3    H243091   3.643   4.271  14.696  1.4759 -1.3754 -0.7264
 7226TIP3   OH243092   3.832   0.580  11.113 -0.0020 -0.1036  0.2020
 7226TIP3    H143093   3.802   0.659  11.158  0.5943  0.0635  0.3186
 7226TIP3    H243094   3.913   0.607  11.070 -0.5444 -0.2686 -0.9665
 7227TIP3   OH243095   6.372   4.967   2.204 -0.1089  0.2392  0.4064
 7227TIP3    H143096   6.410   5.006   2.283 -0.7786  0.6282  0.5441
 7227TIP3    H243097   6.294   5.018   2.187  0.0335  0.1667 -0.5283
 7228TIP3   OH243098   2.743   1.392   2.664 -0.4936  0.5541  0.1902
 7228TIP3    H143099   2.758   1.471   2.715  0.2861  1.5726 -1.5247
 7228TIP3    H243100   2.827   1.346   2.666 -0.5862  0.3819  0.1714
 7229TIP3   OH243101   6.461   6.257   2.438 -0.2427 -0.1892  0.3488
 7229TIP3    H143102   6.449   6.270   2.344  0.1150  0.2960  0.3635
 7229TIP3    H243103   6.471   6.346   2.473 -0.4704 -0.3630  0.8551
 7230TIP3   OH243104   3.499   2.802  15.155  0.2450  0.0407  0.4838
 7230TIP3    H143105   3.512   2.779  15.247 -0.9517 -0.5432  0.5256
 7230TIP3    H243106   3.425   2.863  15.155  1.2652  1.3252  0.0473
 7231TIP3   OH243107   2.050   3.948   4.124  0.5702  0.2726  0.9911
 7231TIP3    H143108   2.057   4.043   4.132  1.2106  0.0910  3.5401
 7231TIP3    H243109   1.957   3.931   4.108  0.6615  1.3331 -1.0273
 7232TIP3   OH243110   1.358   5.232  11.688  0.4118  0.2859  0.2079
 7232TIP3    H143111   1.341   5.323  11.714 -0.2572  0.4402 -0.7139
 7232TIP3    H243112   1.368   5.236  11.593  0.2438 -0.6282  0.1408
 7233TIP3   OH243113   4.714   0.001  11.633  0.8941 -0.0138  0.3643
 7233TIP3    H143114   4.782  -0.056  11.597  0.3221  0.5707 -1.8150
 7233TIP3    H243115   4.646   0.001  11.565 -0.1233  1.4575  1.3452
 7234TIP3   OH243116   3.340   4.114   2.633  0.0358 -0.1072 -0.4935
 7234TIP3    H143117   3.251   4.081   2.638 -0.1984  0.4987 -0.5393
 7234TIP3    H243118   3.395   4.039   2.656 -0.5261 -0.2405  0.4827
 7235TIP3   OH243119   3.503   3.014   6.506  0.1855  0.2660  0.3901
 7235TIP3    H143120   3.497   2.937   6.562 -1.1580  0.6608  0.8179
 7235TIP3    H243121   3.540   3.082   6.562 -1.0854  0.6394  0.7985
 7236TIP3   OH243122   5.644   2.637  10.555  0.3215  0.1796 -0.2843
 7236TIP3    H143123   5.611   2.725  10.572  0.2008  0.1197 -0.2121
 7236TIP3    H243124   5.603   2.582  10.621  2.8497  0.5944  1.8224
 7237TIP3   OH243125   1.328   3.284  15.521 -0.2229  0.1435  0.2958
 7237TIP3    H143126   1.388   3.350  15.487 -0.8184  1.0491  0.9615
 7237TIP3    H243127   1.384   3.209  15.542  0.8680  1.3641  1.9696
 7238TIP3   OH243128   0.545   5.477   4.665 -0.1879  0.0565 -0.2084
 7238TIP3    H143129   0.539   5.556   4.719 -0.6152 -0.2776  0.2312
 7238TIP3    H243130   0.515   5.406   4.721 -0.1201 -0.3773 -0.7096
 7239TIP3   OH243131   0.113   2.954   4.566 -0.3460 -0.2078  0.0580
 7239TIP3    H143132   0.189   3.008   4.588 -0.1145 -0.1313 -0.8948
 7239TIP3    H243133   0.074   2.932   4.651 -1.3737  2.7538  0.4842
 7240TIP3   OH243134   0.809   6.052  16.350 -0.6028 -0.4519 -1.0732
 7240TIP3    H143135   0.849   6.130  16.311 -0.1580  0.9106  1.8251
 7240TIP3    H243136   0.883   5.994  16.369 -0.3611  0.3554  0.6701
 7241TIP3   OH243137   1.014   6.274  12.690 -0.0306  0.7495 -0.3476
 7241TIP3    H143138   0.972   6.240  12.769  0.2324  1.0721 -0.0612
 7241TIP3    H243139   1.096   6.224  12.683  0.0005  0.8012 -0.3509
 7242TIP3   OH243140   0.383   3.381   3.141  0.1395 -0.3230 -0.5879
 7242TIP3    H143141   0.350   3.402   3.054 -0.0887  1.0991 -0.1855
 7242TIP3    H243142   0.470   3.344   3.126  0.6237  1.0821 -1.3705
 7243TIP3   OH243143   5.349   3.132  11.067  0.5418  0.4470  0.2553
 7243TIP3    H143144   5.277   3.142  11.130  0.2670  1.7038 -0.2331
 7243TIP3    H243145   5.322   3.059  11.012 -0.0109  0.4167  0.5535
 7244TIP3   OH243146   1.755   2.194   3.540  0.2060  0.3686 -0.2825
 7244TIP3    H143147   1.663   2.218   3.553 -0.0550 -0.8175  0.2503
 7244TIP3    H243148   1.761   2.171   3.448 -0.2653 -0.4245 -0.1255
 7245TIP3   OH243149   5.117   0.350   3.746  0.1931 -0.0743  0.2766
 7245TIP3    H143150   5.182   0.372   3.812  0.4261  0.9959 -0.2923
 7245TIP3    H243151   5.167   0.338   3.666 -0.3393  1.3532 -0.3012
 7246TIP3   OH243152   5.359   4.482   4.740 -0.2936  0.2821  0.4033
 7246TIP3    H143153   5.338   4.520   4.654  1.7652  1.0212  0.1755
 7246TIP3    H243154   5.297   4.523   4.800 -0.6218  1.0941 -0.4717
 7247TIP3   OH243155   0.857   5.711  11.475 -0.0555  0.3176  0.0115
 7247TIP3    H143156   0.769   5.716  11.437  0.1197 -1.0033 -0.6218
 7247TIP3    H243157   0.882   5.619  11.467  0.4539  0.1922  2.3609
 7248TIP3   OH243158   2.517   4.878   2.095  0.4536  0.5354 -0.0114
 7248TIP3    H143159   2.452   4.905   2.030 -0.2801  2.3164  1.3672
 7248TIP3    H243160   2.473   4.810   2.146  1.0467 -0.8988 -1.3164
 7249TIP3   OH243161   1.121   0.082  13.501  0.0822  0.2955 -0.0488
 7249TIP3    H143162   1.034   0.089  13.539 -0.1581  0.6874 -0.6581
 7249TIP3    H243163   1.174   0.146  13.548  0.5249 -1.1943  1.5897
 7250TIP3   OH243164   5.212   5.570  13.757 -0.3600  0.3788 -0.5986
 7250TIP3    H143165   5.169   5.508  13.816  1.8616 -0.3001  0.4139
 7250TIP3    H243166   5.296   5.589  13.799  1.0665  0.3486 -3.2240
 7251TIP3   OH243167   6.609   6.741   3.462  0.1353 -0.0031  0.1716
 7251TIP3    H143168   6.656   6.784   3.391  0.2830 -0.4085  0.0155
 7251TIP3    H243169   6.519   6.770   3.453 -0.0179 -0.6804 -0.6936
 7252TIP3   OH243170   2.161   2.730  16.024 -0.1187  0.2169 -0.4333
 7252TIP3    H143171   2.217   2.657  16.052 -0.8137  0.0537  0.5821
 7252TIP3    H243172   2.169   2.795  16.093 -1.5860 -0.0345  0.0114
 7253TIP3   OH243173   4.511   0.496   3.811  0.4870  0.3123  0.3833
 7253TIP3    H143174   4.418   0.481   3.828  0.4424 -2.1785 -1.5112
 7253TIP3    H243175   4.554   0.471   3.892 -0.4011  0.4244  0.9059
 7254TIP3   OH243176   4.392   5.841  12.895  0.2934 -0.1751 -0.2244
 7254TIP3    H143177   4.404   5.746  12.906 -1.6037 -0.4141  0.2246
 7254TIP3    H243178   4.327   5.849  12.825 -0.2712  0.7519  0.3881
 7255TIP3   OH243179   3.393   5.987  14.709 -0.4076 -0.0624 -0.2095
 7255TIP3    H143180   3.340   5.948  14.779  0.2749 -0.3252  0.1697
 7255TIP3    H243181   3.380   6.081  14.719  1.0626  0.0218  1.4245
 7256TIP3   OH243182   5.984   1.642   0.211  0.0603 -0.1383 -0.2042
 7256TIP3    H143183   6.077   1.623   0.223  0.0975  0.2441  0.1160
 7256TIP3    H243184   5.947   1.639   0.299  0.3840  2.9411  0.1329
 7257TIP3   OH243185   2.426   2.330  15.413  0.1125 -0.2959 -0.4735
 7257TIP3    H143186   2.434   2.259  15.477  0.7302 -0.3178 -0.5700
 7257TIP3    H243187   2.502   2.319  15.355  0.3759  0.6249 -0.3087
 7258TIP3   OH243188   5.800   1.017  10.898  0.3339  0.0262 -0.5415
 7258TIP3    H143189   5.881   0.980  10.931 -0.4732 -1.7430 -0.4555
 7258TIP3    H243190   5.750   0.942  10.864 -1.1482  1.0884 -0.8458
 7259TIP3   OH243191   4.449   4.155   2.645 -0.3584  0.0502  0.3120
 7259TIP3    H143192   4.543   4.138   2.636  0.1958  2.2119  1.4309
 7259TIP3    H243193   4.419   4.171   2.555 -0.1299 -2.5541 -0.3065
 7260TIP3   OH243194   6.546   5.604   1.106 -0.1033 -0.5486 -0.2508
 7260TIP3    H143195   6.518   5.583   1.195 -0.4605 -2.3721 -0.7473
 7260TIP3    H243196   6.640   5.584   1.105  0.2818  1.1047  0.1470
 7261TIP3   OH243197   2.661   6.188  16.305 -0.0424  0.3459 -0.0118
 7261TIP3    H143198   2.602   6.114  16.319 -0.2043  0.4477 -0.1587
 7261TIP3    H243199   2.686   6.216  16.394 -1.4846  1.3224  0.1225
 7262TIP3   OH243200   3.708   4.249  13.008  0.5275  0.6037 -0.4838
 7262TIP3    H143201   3.797   4.240  12.975  0.2383  0.4068 -1.2454
 7262TIP3    H243202   3.683   4.339  12.985  0.8091  0.9384  0.4682
 7263TIP3   OH243203   0.676   2.029   1.104  0.1080 -0.1376  0.0608
 7263TIP3    H143204   0.747   1.994   1.050 -0.8135 -0.9571 -0.6763
 7263TIP3    H243205   0.719   2.067   1.180  1.4411  0.8909 -1.1577
 7264TIP3   OH243206   2.026   0.320  12.141 -0.8582  0.0217 -0.1980
 7264TIP3    H143207   2.062   0.406  12.121 -0.2131  0.3906  2.2412
 7264TIP3    H243208   1.938   0.321  12.104 -0.7805  1.6413 -0.3909
 7265TIP3   OH243209   0.833   1.338  15.758  0.1399  0.3699  0.1534
 7265TIP3    H143210   0.758   1.374  15.805 -1.2883 -1.4409 -0.6264
 7265TIP3    H243211   0.810   1.247  15.741  2.3759 -0.1531 -0.4427
 7266TIP3   OH243212   0.049   6.711   2.412  0.4275  0.5052  0.0582
 7266TIP3    H143213   0.033   6.805   2.407 -0.9393  0.2310 -1.2604
 7266TIP3    H243214   0.132   6.698   2.365  0.3388  0.9828 -0.2314
 7267TIP3   OH243215   0.658   0.609  14.077 -0.5193 -0.3313 -0.1053
 7267TIP3    H143216   0.685   0.631  13.988 -0.4962  2.0882  0.4180
 7267TIP3    H243217   0.562   0.609  14.073 -0.5215 -0.0029 -0.0968
 7268TIP3   OH243218   3.987   0.427   6.606 -0.4550 -0.3576 -0.1864
 7268TIP3    H143219   3.944   0.486   6.544 -0.6095 -1.2264 -0.9370
 7268TIP3    H243220   4.075   0.464   6.618 -0.6422  0.1691 -0.4243
 7269TIP3   OH243221   6.323   2.069   2.384 -0.2403 -0.1835  0.1113
 7269TIP3    H143222   6.410   2.039   2.359 -0.0438  0.8440 -0.5155
 7269TIP3    H243223   6.316   2.049   2.477  0.1561 -1.4585 -0.1197
 7270TIP3   OH243224   0.640   0.057   2.207  0.0555 -0.9316  0.6313
 7270TIP3    H143225   0.586  -0.001   2.153 -1.0249  0.3231  0.3207
 7270TIP3    H243226   0.728   0.049   2.171 -0.2493 -1.7166  0.0510
 7271TIP3   OH243227   3.240   2.973   2.688  0.4876 -0.0742  1.1197
 7271TIP3    H143228   3.308   2.927   2.738 -0.1920 -3.5726 -0.8301
 7271TIP3    H243229   3.158   2.944   2.726  0.0180  0.6786  0.7109
 7272TIP3   OH243230   0.362   6.553  15.286  0.3451 -0.0621  0.2722
 7272TIP3    H143231   0.379   6.624  15.348  0.2213  1.5815 -1.4831
 7272TIP3    H243232   0.351   6.597  15.202  3.1009 -2.3471 -1.4677
 7273TIP3   OH243233   2.382   6.177  11.262 -0.0480 -0.0208 -0.0166
 7273TIP3    H143234   2.361   6.269  11.276 -1.6975 -0.4674  0.5750
 7273TIP3    H243235   2.426   6.176  11.176  1.4372  1.4859  0.6601
 7274TIP3   OH243236   0.867   3.626   3.858 -0.0365  0.1437 -0.3698
 7274TIP3    H143237   0.799   3.665   3.804  0.7095  0.3669 -1.1717
 7274TIP3    H243238   0.844   3.533   3.861  0.5712 -0.1167 -2.1529
 7275TIP3   OH243239   5.003   5.945   3.171 -0.3088 -0.9088  0.1204
 7275TIP3    H143240   4.923   5.902   3.201 -1.3752  0.8215 -0.0649
 7275TIP3    H243241   4.979   5.982   3.086  0.1090  1.0961  0.8242
 7276TIP3   OH243242   4.224   4.943  14.523  0.3069 -0.1920  0.0605
 7276TIP3    H143243   4.308   4.910  14.492  2.4507  1.7113  3.3306
 7276TIP3    H243244   4.207   4.893  14.603 -1.6527 -0.3878 -0.4276
 7277TIP3   OH243245   3.832   2.745   2.651  0.4493 -0.2313 -0.4584
 7277TIP3    H143246   3.823   2.840   2.636 -0.2277 -0.3276 -0.7086
 7277TIP3    H243247   3.817   2.706   2.566 -0.5858 -0.6263 -0.1196
 7278TIP3   OH243248   4.428   5.722   5.461 -0.0979 -0.1810 -0.1792
 7278TIP3    H143249   4.427   5.726   5.557 -0.1684  1.1556 -0.2062
 7278TIP3    H243250   4.375   5.797   5.434  0.1108 -0.4088 -1.2611
 7279TIP3   OH243251   0.149   3.903  16.145  0.0919  0.3582 -0.2637
 7279TIP3    H143252   0.088   3.973  16.166 -1.0591 -0.4832 -0.7068
 7279TIP3    H243253   0.218   3.946  16.094  0.2883  1.4579  0.8809
 7280TIP3   OH243254   2.834   3.470   0.184  0.4621 -0.6227 -0.0577
 7280TIP3    H143255   2.824   3.393   0.240 -0.9742  0.3800  1.1351
 7280TIP3    H243256   2.871   3.537   0.242 -0.3492  0.2206 -0.4858
 7281TIP3   OH243257   5.790   3.009  11.097  0.4621 -0.2108 -0.3465
 7281TIP3    H143258   5.730   2.986  11.027  0.4219 -0.1158 -0.3424
 7281TIP3    H243259   5.847   3.076  11.060 -0.6815  1.1400  0.2485
 7282TIP3   OH243260   0.273   6.004   0.554  0.3042 -0.2493  0.1841
 7282TIP3    H143261   0.329   6.038   0.623  0.0090 -2.2073  1.4868
 7282TIP3    H243262   0.187   6.042   0.572  0.4009 -0.1468  0.4279
 7283TIP3   OH243263   0.099   0.730  15.907 -0.0233 -0.1326 -0.0401
 7283TIP3    H143264   0.092   0.749  16.001 -1.4967 -0.5915 -0.0364
 7283TIP3    H243265   0.136   0.642  15.903 -1.4599 -0.7625  0.1679
 7284TIP3   OH243266   4.442   4.139  11.494 -0.0504  0.4460  0.0707
 7284TIP3    H143267   4.421   4.201  11.425  0.7686  1.1973  0.4709
 7284TIP3    H243268   4.498   4.074  11.452 -1.8840 -0.7407 -0.6421
 7285TIP3   OH243269   0.056   2.372   3.349 -0.3048  0.3930 -0.1051
 7285TIP3    H143270   0.119   2.442   3.368 -0.7146  0.7561 -0.0825
 7285TIP3    H243271   0.098   2.321   3.279  1.0961 -0.8059  1.5373
 7286TIP3   OH243272   6.177   2.135  15.166 -0.4271 -0.2995 -0.1808
 7286TIP3    H143273   6.261   2.146  15.122 -0.4588 -0.5990 -0.3188
 7286TIP3    H243274   6.195   2.073  15.237 -0.1038  1.0947  0.9985
 7287TIP3   OH243275   4.104   4.849   0.353 -0.2355 -0.0150 -0.5069
 7287TIP3    H143276   4.105   4.808   0.439  0.3157 -1.0761 -0.9967
 7287TIP3    H243277   4.047   4.925   0.363  2.0488  1.5834  1.5680
 7288TIP3   OH243278   0.640   0.154  16.178 -0.1391  0.1576  0.1134
 7288TIP3    H143279   0.731   0.125  16.185 -0.0264  0.1152 -1.1865
 7288TIP3    H243280   0.592   0.099  16.240  0.5812 -0.4864  0.1201
 7289TIP3   OH243281   4.934   5.125  17.387  0.6489 -1.0947  0.2131
 7289TIP3    H143282   4.986   5.111  17.466 -0.2332  1.4372  1.3556
 7289TIP3    H243283   4.942   5.219  17.370 -1.4986 -1.0852 -1.0237
 7290TIP3   OH243284   6.752   6.283  15.354 -0.3042  0.4681 -0.6828
 7290TIP3    H143285   6.773   6.209  15.410  2.1188  0.9250 -0.8759
 7290TIP3    H243286   6.662   6.266  15.325 -0.7026 -1.0958  1.2146
 7291TIP3   OH243287   5.977   1.990   1.358 -0.2468  0.1561 -0.4882
 7291TIP3    H143288   6.001   2.081   1.345  1.7682 -0.3772 -0.8965
 7291TIP3    H243289   6.015   1.944   1.283  1.1011 -1.3575  1.0426
 7292TIP3   OH243290   0.594   4.484  11.891  0.1132  0.5019  0.5634
 7292TIP3    H143291   0.619   4.402  11.934 -0.3784  1.7247  3.4610
 7292TIP3    H243292   0.665   4.545  11.912 -0.5549  1.3832  0.3382
 7293TIP3   OH243293   0.315   2.388   5.396  0.2599 -0.0346 -0.2351
 7293TIP3    H143294   0.337   2.295   5.389  0.4210  0.0672 -1.2805
 7293TIP3    H243295   0.258   2.404   5.321 -1.4865  0.2508  1.1035
 7294TIP3   OH243296   4.113   4.182   1.953 -0.0682  0.2405  0.3919
 7294TIP3    H143297   4.186   4.121   1.969 -1.2353 -1.4477 -0.4045
 7294TIP3    H243298   4.078   4.155   1.868 -0.6460  2.0577  0.0249
 7295TIP3   OH243299   6.737   3.006   4.817  0.5897 -0.3681  0.2234
 7295TIP3    H143300   6.767   2.923   4.855 -0.6099 -1.4386 -1.0656
 7295TIP3    H243301   6.648   3.016   4.851  0.6938  0.3586  0.2876
 7296TIP3   OH243302   4.474   1.613   0.003  0.4053 -0.3142  0.0852
 7296TIP3    H143303   4.509   1.668   0.072  0.2863 -0.3592  0.1814
 7296TIP3    H243304   4.428   1.673  -0.056  0.5453 -0.2701  0.0198
 7297TIP3   OH243305   0.579   2.236   2.670 -0.5930 -0.1384  0.5880
 7297TIP3    H143306   0.625   2.318   2.688 -0.7368  0.4845 -1.6456
 7297TIP3    H243307   0.613   2.174   2.735  0.3020  1.3842  1.6246
 7298TIP3   OH243308   0.403   0.345   1.744  0.2000 -0.2395  0.2841
 7298TIP3    H143309   0.374   0.257   1.719 -1.3812  0.4082 -0.2820
 7298TIP3    H243310   0.345   0.369   1.816  0.1397  0.6018 -0.0388
 7299TIP3   OH243311   5.166   5.391   6.029  0.0087 -0.1601 -0.3646
 7299TIP3    H143312   5.167   5.299   6.003  1.5105  0.1470 -1.5835
 7299TIP3    H243313   5.228   5.396   6.102  0.1348 -0.0838 -0.4752
 7300TIP3   OH243314   2.986   2.257  15.107  0.4107 -0.1670 -0.5704
 7300TIP3    H143315   2.897   2.293  15.100  0.3708  0.0545  0.7556
 7300TIP3    H243316   3.043   2.332  15.093  0.3528  0.0719  0.4284
 7301TIP3   OH243317   5.397   1.032   2.234  0.5661 -0.4733  0.5263
 7301TIP3    H143318   5.430   0.965   2.174  1.8640 -0.4487  1.1839
 7301TIP3    H243319   5.448   1.110   2.213  1.0400 -0.4631  1.6373
 7302TIP3   OH243320   4.025   2.842  15.025 -0.1178  0.0753 -0.8995
 7302TIP3    H143321   3.958   2.892  15.071 -0.9761 -1.4320 -0.4262
 7302TIP3    H243322   4.078   2.802  15.094  0.7297  0.5354 -1.2659
 7303TIP3   OH243323   5.854   1.857  15.322  0.3739  0.3191  0.3634
 7303TIP3    H143324   5.789   1.820  15.382 -1.2723  0.8980 -0.9878
 7303TIP3    H243325   5.871   1.787  15.260  1.4126  0.0194  0.9675
 7304TIP3   OH243326   1.558   5.099  12.232  0.3561  0.2667  0.2621
 7304TIP3    H143327   1.636   5.055  12.264  0.3653 -0.5836 -0.8475
 7304TIP3    H243328   1.553   5.073  12.140 -2.8348 -2.0950  0.9495
 7305TIP3   OH243329   2.681   5.787  14.375 -0.3603 -0.5512  0.5032
 7305TIP3    H143330   2.600   5.831  14.348  1.1707  0.9829 -2.1677
 7305TIP3    H243331   2.678   5.702  14.332 -0.3864 -0.2760 -0.0673
 7306TIP3   OH243332   4.918   5.991  17.140  0.0951 -0.3495 -0.4004
 7306TIP3    H143333   4.849   5.947  17.190  1.4702 -0.5975  1.4228
 7306TIP3    H243334   4.924   6.078  17.180 -1.3531  0.9119 -2.7544
 7307TIP3   OH243335   1.246   5.862  13.364  0.2030 -0.5830  0.3241
 7307TIP3    H143336   1.284   5.877  13.278  0.4711 -0.0963  0.5238
 7307TIP3    H243337   1.315   5.817  13.413  0.9149  1.1575  0.9933
 7308TIP3   OH243338   1.561   1.192  14.310 -0.0340 -0.2938 -0.1710
 7308TIP3    H143339   1.524   1.276  14.284  1.2831 -0.0052 -1.2110
 7308TIP3    H243340   1.559   1.139  14.230 -1.6586 -1.5906  0.6754
 7309TIP3   OH243341   3.899   0.524   3.585 -0.1393 -0.7618 -0.4380
 7309TIP3    H143342   3.808   0.516   3.612  0.1141 -1.5589  0.2026
 7309TIP3    H243343   3.924   0.613   3.610 -1.1095 -0.0627 -1.8123
 7310TIP3   OH243344   3.359   5.390  11.156  0.2261  0.0740 -0.7229
 7310TIP3    H143345   3.446   5.428  11.150  1.0349 -0.9182  2.6236
 7310TIP3    H243346   3.317   5.437  11.228 -1.5395 -0.3515 -1.4269
 7311TIP3   OH243347   6.083   3.019   1.514 -0.2866 -0.1622 -0.7350
 7311TIP3    H143348   6.003   2.997   1.561  1.0041 -0.4414  1.5332
 7311TIP3    H243349   6.127   2.934   1.501 -0.0450  0.0473 -1.3096
 7312TIP3   OH243350   2.043   1.801  17.040 -0.2847  0.4136  0.2601
 7312TIP3    H143351   2.031   1.896  17.037 -0.6483  0.3479 -0.5947
 7312TIP3    H243352   2.108   1.783  16.972 -0.8500 -0.0414 -0.1691
 7313TIP3   OH243353   5.389   0.628  11.535  0.0892  0.4357 -0.1089
 7313TIP3    H143354   5.337   0.630  11.616 -1.1818 -0.4246 -0.8773
 7313TIP3    H243355   5.352   0.556  11.485  0.8378  0.9829 -1.4906
 7314TIP3   OH243356   5.586   5.352   1.464  0.0530 -0.6636 -0.0446
 7314TIP3    H143357   5.646   5.423   1.486 -1.7503  1.0132 -0.2826
 7314TIP3    H243358   5.549   5.325   1.548 -2.2213  1.5062 -0.2295
 7315TIP3   OH243359   5.909   6.152   5.288  0.3214  0.3145 -0.3041
 7315TIP3    H143360   5.955   6.166   5.370  0.4260 -0.4192 -0.2324
 7315TIP3    H243361   5.868   6.066   5.297 -0.4414  0.6321 -0.6577
 7316TIP3   OH243362   3.698   5.278   5.029  0.5668  0.3995  0.1296
 7316TIP3    H143363   3.748   5.239   4.957  1.3493  0.9287  0.3621
 7316TIP3    H243364   3.607   5.262   5.008  0.7740  0.8121 -1.1391
 7317TIP3   OH243365   6.241   5.231  16.360 -0.1300  0.2766 -0.6137
 7317TIP3    H143366   6.231   5.235  16.455 -1.4801  1.8575 -0.7854
 7317TIP3    H243367   6.245   5.322  16.332 -0.2254 -0.1594 -2.1343
 7318TIP3   OH243368   5.554   6.491   1.329  0.1333  0.1509  0.6595
 7318TIP3    H143369   5.536   6.476   1.422 -0.3937 -0.1176  0.5199
 7318TIP3    H243370   5.483   6.445   1.284  0.4983  0.1128  0.1194
 7319TIP3   OH243371   2.985   4.559   5.887  0.0061  0.0873  0.2655
 7319TIP3    H143372   2.918   4.604   5.836  0.7403  1.0130  0.0675
 7319TIP3    H243373   2.993   4.611   5.968  0.2741 -0.1800  0.4160
 7320TIP3   OH243374   2.539   0.118  14.593 -0.0293 -0.0587 -0.1441
 7320TIP3    H143375   2.528   0.111  14.498  0.4108  1.5166 -0.3512
 7320TIP3    H243376   2.578   0.205  14.606  1.6692 -0.9651  1.3421
 7321TIP3   OH243377   5.087   6.460  11.971  0.2887  0.9401  0.5946
 7321TIP3    H143378   5.108   6.552  11.989  1.2095  1.0941 -1.0461
 7321TIP3    H243379   5.167   6.412  11.994 -0.9614  0.1456  3.7807
 7322TIP3   OH243380   1.349   3.359   5.811  0.6094  0.2654 -0.1718
 7322TIP3    H143381   1.285   3.384   5.744  2.0200  1.0465 -1.2657
 7322TIP3    H243382   1.366   3.440   5.859 -0.5679 -0.3285  1.3693
 7323TIP3   OH243383   4.155   6.244   5.271  0.6136  0.2921  0.4024
 7323TIP3    H143384   4.146   6.195   5.353 -0.5118  0.5697  0.4684
 7323TIP3    H243385   4.249   6.257   5.261  0.8679 -1.0612  0.8619
 7324TIP3   OH243386   4.047   2.764   3.176 -0.3280 -0.1836  0.5081
 7324TIP3    H143387   4.125   2.770   3.232 -0.9373  0.7471  1.2888
 7324TIP3    H243388   4.014   2.854   3.172 -1.1171 -0.4938 -0.1771
 7325TIP3   OH243389   2.613   1.830   1.568  0.2332  0.3256  0.0118
 7325TIP3    H143390   2.661   1.792   1.495  0.4027  1.8552 -0.6973
 7325TIP3    H243391   2.681   1.850   1.633  0.3245  0.6751 -0.1866
 7326TIP3   OH243392   3.334   5.572  16.143 -0.0248 -0.1081  0.5327
 7326TIP3    H143393   3.403   5.577  16.077 -0.5758 -1.2136 -0.1543
 7326TIP3    H243394   3.319   5.663  16.169  1.1331  0.2189  0.1228
 7327TIP3   OH243395   5.138   1.479   4.373  0.3107 -0.0787  0.3762
 7327TIP3    H143396   5.204   1.452   4.309  1.4303 -1.3060  1.9744
 7327TIP3    H243397   5.101   1.559   4.336  1.3910 -0.3676 -1.4672
 7328TIP3   OH243398   4.541   2.485   4.473  0.0639 -0.1296 -0.1702
 7328TIP3    H143399   4.484   2.410   4.456  0.1427 -0.1152 -0.5091
 7328TIP3    H243400   4.482   2.552   4.508 -0.4164  0.3801 -1.8131
 7329TIP3   OH243401   5.397   1.909  15.646 -0.5935 -0.1461  0.4837
 7329TIP3    H143402   5.488   1.909  15.676 -0.7513 -0.2583  0.9686
 7329TIP3    H243403   5.365   1.996  15.669 -1.0188 -0.5770  1.5914
 7330TIP3   OH243404   0.640   3.659  10.857  0.0312  0.3051 -0.1888
 7330TIP3    H143405   0.697   3.588  10.826  0.9924  0.1762  1.7199
 7330TIP3    H243406   0.637   3.721  10.785  0.4973 -0.9066 -1.2862
 7331TIP3   OH243407   1.071   3.185   0.893 -0.1111  0.1228  0.1165
 7331TIP3    H143408   1.098   3.182   0.801  0.5956  0.2033  0.3123
 7331TIP3    H243409   1.123   3.116   0.935 -0.1721  0.3216  0.5191
 7332TIP3   OH243410   3.757   1.317   5.565 -0.8791  0.0185 -0.2105
 7332TIP3    H143411   3.798   1.375   5.500  0.2175 -0.5426 -0.0432
 7332TIP3    H243412   3.811   1.328   5.643 -2.5654  1.1881  0.8650
 7333TIP3   OH243413   4.690   2.854   4.795 -0.0020 -0.1659  0.1966
 7333TIP3    H143414   4.729   2.773   4.828  0.0584 -0.0037  0.5330
 7333TIP3    H243415   4.595   2.841   4.806  0.0571  0.2964  1.4376
 7334TIP3   OH243416   0.363   1.044  14.300 -0.1695 -0.2155 -0.0211
 7334TIP3    H143417   0.273   1.014  14.313  0.5083 -1.9151  1.0675
 7334TIP3    H243418   0.372   1.120  14.357 -1.2677  0.7676 -1.1112
 7335TIP3   OH243419   3.799   5.389   3.814 -0.2785  0.5779  0.2211
 7335TIP3    H143420   3.800   5.471   3.863  1.6611 -0.1363  1.5314
 7335TIP3    H243421   3.842   5.410   3.731 -1.9559  1.3864 -0.4838
 7336TIP3   OH243422   1.160   4.522   4.887 -0.0688 -0.6509 -0.2689
 7336TIP3    H143423   1.117   4.521   4.802 -1.4517  0.3123  0.3908
 7336TIP3    H243424   1.090   4.502   4.950  1.0972 -2.2421  0.5969
 7337TIP3   OH243425   0.001   4.116   1.392 -0.8367 -0.2300 -0.2363
 7337TIP3    H143426  -0.013   4.152   1.304 -1.4307  0.1957  0.0267
 7337TIP3    H243427   0.094   4.094   1.394 -0.7862 -0.1132 -0.9251
 7338TIP3   OH243428   4.684   1.428   5.735 -0.1023  0.3796 -0.3391
 7338TIP3    H143429   4.593   1.426   5.765 -0.2064  0.8074 -0.6154
 7338TIP3    H243430   4.726   1.495   5.789  0.4463 -0.8718  0.8570
 7339TIP3   OH243431   4.002   5.646  13.005  0.2766 -0.1646  0.1692
 7339TIP3    H143432   4.049   5.614  13.082 -0.5496  0.1300  0.8134
 7339TIP3    H243433   3.933   5.702  13.041  0.2680  0.4853 -0.8179
 7340TIP3   OH243434   4.704   2.392  16.758 -0.2762 -0.7517 -0.2757
 7340TIP3    H143435   4.665   2.456  16.818 -0.3993  0.8231 -1.9684
 7340TIP3    H243436   4.641   2.320  16.757 -0.8236 -0.3160  0.6312
 7341TIP3   OH243437   1.610   2.845   0.615  0.3900  0.0153  0.6045
 7341TIP3    H143438   1.560   2.804   0.545  0.3082 -0.4191  0.9087
 7341TIP3    H243439   1.693   2.797   0.616 -0.6632 -1.9591  2.6530
 7342TIP3   OH243440   4.195   2.398  17.220 -0.1410 -0.1518  0.0424
 7342TIP3    H143441   4.211   2.341  17.145  2.7800  0.5465  0.0130
 7342TIP3    H243442   4.204   2.487  17.185  1.1234  0.1861  1.1486
 7343TIP3   OH243443   0.157   1.774   3.602 -0.0033 -0.1906  0.2088
 7343TIP3    H143444   0.233   1.722   3.574 -0.4353 -1.2285  0.8850
 7343TIP3    H243445   0.098   1.710   3.642 -1.2575  0.6067 -0.3351
 7344TIP3   OH243446   3.232   3.576  12.131  0.0113  0.4618  0.5158
 7344TIP3    H143447   3.208   3.495  12.175 -1.7133  0.3373 -0.5631
 7344TIP3    H243448   3.328   3.575  12.129  0.0261 -1.7167  0.2297
 7345TIP3   OH243449   1.893   4.207   5.653  0.0603  0.3696  0.1275
 7345TIP3    H143450   1.932   4.227   5.568 -0.0935  0.8591  0.1703
 7345TIP3    H243451   1.963   4.164   5.702 -0.3444 -1.4574 -0.8144
 7346TIP3   OH243452   3.902   1.320  15.614 -0.3630  0.0268  0.1638
 7346TIP3    H143453   3.836   1.261  15.578 -0.6327  0.1839  0.3926
 7346TIP3    H243454   3.859   1.359  15.691 -0.0627  0.2529  0.2173
 7347TIP3   OH243455   4.748   4.740   4.079  0.0969 -0.3925 -0.2003
 7347TIP3    H143456   4.763   4.829   4.047  1.5016 -0.6793 -0.3672
 7347TIP3    H243457   4.753   4.685   4.001 -1.7490 -0.5575 -0.2605
 7348TIP3   OH243458   0.707   2.493  10.624 -0.2051  0.0445 -0.8605
 7348TIP3    H143459   0.670   2.483  10.712 -2.0871 -0.3288 -1.6653
 7348TIP3    H243460   0.697   2.587  10.605 -1.4365 -0.1750 -1.3549
 7349TIP3   OH243461   4.322   3.747  17.056 -0.2246 -0.0161  0.1212
 7349TIP3    H143462   4.330   3.785  16.968 -0.5431 -0.8611 -0.2847
 7349TIP3    H243463   4.272   3.666  17.042 -1.1180  0.3231  1.2146
 7350TIP3   OH243464   4.637   4.258  14.866 -0.2688  0.0904 -0.1890
 7350TIP3    H143465   4.570   4.194  14.889  0.3527 -1.3400 -2.0915
 7350TIP3    H243466   4.672   4.287  14.950 -0.9930 -1.6013  0.7581
 7351TIP3   OH243467   5.770   5.339  13.562 -0.0631 -0.5203  0.3820
 7351TIP3    H143468   5.680   5.360  13.588  0.1451  0.0621  0.6673
 7351TIP3    H243469   5.810   5.425  13.545  0.3768 -0.7881  0.0488
 7352TIP3   OH243470   3.613   4.846   0.835  0.1703 -0.0484 -0.1001
 7352TIP3    H143471   3.669   4.768   0.839 -0.5386 -0.7599 -2.3712
 7352TIP3    H243472   3.525   4.812   0.855  0.0452  0.4158  0.1373
 7353TIP3   OH243473   1.976   6.100  15.962 -0.2245  0.1029  0.3913
 7353TIP3    H143474   2.061   6.073  15.929 -0.0724 -0.4250  1.1761
 7353TIP3    H243475   1.952   6.176  15.910  0.1013 -0.5598 -0.7564
 7354TIP3   OH243476   1.105   4.645   1.643 -0.1029 -0.1747  0.0968
 7354TIP3    H143477   1.102   4.625   1.736  0.9915  2.3924  0.7861
 7354TIP3    H243478   1.150   4.571   1.603  1.6217 -0.2492  2.0120
 7355TIP3   OH243479   4.788   6.115  14.779 -0.0729  0.2366  0.4917
 7355TIP3    H143480   4.819   6.091  14.692 -3.2720  0.7280 -0.9513
 7355TIP3    H243481   4.828   6.200  14.796  1.3724 -0.3145 -0.0343
 7356TIP3   OH243482   4.889   0.796  10.594 -0.3724  0.3429 -0.6411
 7356TIP3    H143483   4.860   0.740  10.666  0.8227 -0.6395 -0.8965
 7356TIP3    H243484   4.813   0.802  10.536 -0.6551 -0.6712 -0.3906
 7357TIP3   OH243485   2.401   6.749  16.560  0.6147  0.5987 -0.6366
 7357TIP3    H143486   2.327   6.740  16.620  1.0445 -0.1939 -0.2091
 7357TIP3    H243487   2.474   6.710  16.607  1.3382  1.4961 -1.0043
 7358TIP3   OH243488   4.594   1.827   6.680  0.7572  0.3077 -0.5408
 7358TIP3    H143489   4.642   1.765   6.734  0.1832  0.4664  0.1573
 7358TIP3    H243490   4.574   1.779   6.599 -4.2712 -2.4039  1.8615
 7359TIP3   OH243491   4.821   0.001   4.430 -0.4796 -0.0059  0.2266
 7359TIP3    H143492   4.874   0.078   4.447  0.9846 -0.5458 -1.5608
 7359TIP3    H243493   4.765   0.026   4.356 -1.5022 -0.0152  0.9736
 7360TIP3   OH243494   3.991   5.311   1.644 -0.3093 -0.0477 -0.1993
 7360TIP3    H143495   3.936   5.234   1.655 -1.4594  0.8176  0.2944
 7360TIP3    H243496   3.938   5.384   1.677  0.2806  1.1392 -1.7357
 7361TIP3   OH243497   5.829   1.278  13.534  0.0728 -0.8032 -0.2322
 7361TIP3    H143498   5.756   1.222  13.561  0.3445 -0.4109  1.4482
 7361TIP3    H243499   5.882   1.222  13.478 -1.1150 -1.3320 -0.8653
 7362TIP3   OH243500   2.555   3.353   4.964  0.0198 -0.9553 -1.1824
 7362TIP3    H143501   2.497   3.277   4.959 -1.1826 -0.0208 -1.7113
 7362TIP3    H243502   2.498   3.427   4.979  1.3533 -0.3432  1.4382
 7363TIP3   OH243503   5.327   5.523  14.559 -0.1332  0.7768  0.1562
 7363TIP3    H143504   5.380   5.530  14.479  0.0294  1.9449  0.3348
 7363TIP3    H243505   5.237   5.517  14.528  0.0967 -2.7824 -0.2081
 7364TIP3   OH243506   2.822   6.278  16.113  0.6843 -0.4202  0.1456
 7364TIP3    H143507   2.780   6.222  16.178  0.7329 -2.4862 -1.4819
 7364TIP3    H243508   2.761   6.351  16.101 -1.5292 -2.2747 -0.6409
 7365TIP3   OH243509   2.255   5.137   4.016 -0.0678 -0.0702  0.2418
 7365TIP3    H143510   2.160   5.139   3.999 -0.3456  1.4553  1.7761
 7365TIP3    H243511   2.281   5.228   4.017  1.3392 -0.4563  0.3629
 7366TIP3   OH243512   1.786   0.113  11.338  0.6713 -0.4498 -0.4628
 7366TIP3    H143513   1.705   0.145  11.379  1.2629  0.0743  0.3425
 7366TIP3    H243514   1.757   0.067  11.260 -0.3735  0.1802 -0.4683
 7367TIP3   OH243515   6.027   4.112  11.801  0.0273  0.2133  0.5128
 7367TIP3    H143516   5.962   4.138  11.735  2.7298  2.2824 -1.5914
 7367TIP3    H243517   6.032   4.187  11.860  1.8266  1.0118 -0.5586
 7368TIP3   OH243518   5.869   4.352  13.625  0.5941 -0.1116 -0.1442
 7368TIP3    H143519   5.880   4.395  13.540  3.7259  2.1075  1.1944
 7368TIP3    H243520   5.959   4.342  13.658 -0.5228 -0.6599  3.0291
 7369TIP3   OH243521   0.331   1.721  11.884 -0.5978  0.0302 -0.2866
 7369TIP3    H143522   0.274   1.706  11.809 -0.6518 -1.1212 -0.0333
 7369TIP3    H243523   0.419   1.706  11.850 -0.5264  0.5985 -0.3731
 7370TIP3   OH243524   6.476   5.450   5.611 -0.4683 -0.1015  0.1423
 7370TIP3    H143525   6.448   5.540   5.627  1.1058  0.4880 -0.1750
 7370TIP3    H243526   6.528   5.456   5.530  1.6573 -0.8250  1.3811
 7371TIP3   OH243527   3.745   2.875  14.827 -0.1771 -0.1424 -0.4231
 7371TIP3    H143528   3.830   2.867  14.782 -0.0503 -1.0897 -0.0282
 7371TIP3    H243529   3.701   2.946  14.781  0.1773 -0.7079 -1.6870
 7372TIP3   OH243530   2.443   5.256  14.197  0.1271 -0.2161  0.0138
 7372TIP3    H143531   2.523   5.284  14.241  0.1353 -0.8003  0.3781
 7372TIP3    H243532   2.467   5.249  14.104  0.6579 -0.9284  0.1941
 7373TIP3   OH243533   1.832   6.382   5.008  0.2718  0.5567 -0.0296
 7373TIP3    H143534   1.862   6.317   4.945  0.3669  0.9095 -0.3462
 7373TIP3    H243535   1.907   6.395   5.066  0.0902  0.0192  0.3378
 7374TIP3   OH243536   2.998   5.673   6.611 -0.5738  0.1943  0.0064
 7374TIP3    H143537   2.945   5.750   6.591 -1.0626  0.0631  0.7512
 7374TIP3    H243538   3.078   5.708   6.650 -1.0698  0.3166  0.9511
 7375TIP3   OH243539   0.415   1.348   6.621 -0.1840 -0.7929  0.4788
 7375TIP3    H143540   0.445   1.267   6.579  2.5622  0.6559 -0.6114
 7375TIP3    H243541   0.427   1.415   6.554 -0.5100  0.8285  1.9895
 7376TIP3   OH243542   4.634   4.340  11.532  0.4940 -0.0353  0.0343
 7376TIP3    H143543   4.559   4.287  11.558  0.3573  0.4481  0.6534
 7376TIP3    H243544   4.633   4.415  11.592  1.6387 -0.1632  0.2427
 7377TIP3   OH243545   0.109   1.535   5.390  0.6817  0.1119  0.0487
 7377TIP3    H143546   0.134   1.488   5.469 -0.0654  0.2895  0.4018
 7377TIP3    H243547   0.041   1.596   5.418  0.8149  0.5863 -0.6224
 7378TIP3   OH243548   4.014   1.527  14.178  0.6255 -0.3234 -0.0691
 7378TIP3    H143549   4.032   1.526  14.084 -0.1757  0.7586 -0.2486
 7378TIP3    H243550   3.991   1.436  14.199  1.4952 -0.7168 -0.7712
 7379TIP3   OH243551   4.534   2.065   5.562 -0.5872  0.6541  0.5621
 7379TIP3    H143552   4.447   2.025   5.556 -0.9699  1.0435  2.7079
 7379TIP3    H243553   4.552   2.096   5.473 -2.3285 -0.0772 -0.0865
 7380TIP3   OH243554   5.976   2.145   4.631 -0.6076  0.1856 -0.4064
 7380TIP3    H143555   6.022   2.225   4.607 -0.2635 -0.1320 -0.8265
 7380TIP3    H243556   5.979   2.143   4.727  0.1538  0.2336 -0.4205
 7381TIP3   OH243557   3.804   1.745   4.403 -0.6461 -0.4671 -0.0673
 7381TIP3    H143558   3.870   1.716   4.340  0.7128 -2.2698  2.0124
 7381TIP3    H243559   3.728   1.691   4.384  0.0022 -1.5252  0.2477
 7382TIP3   OH243560   1.363   0.567  13.682  0.5528 -0.3216  0.4037
 7382TIP3    H143561   1.306   0.618  13.739  2.2553  0.4925  1.4467
 7382TIP3    H243562   1.378   0.485  13.729  0.4133 -0.4437  0.2349
 7383TIP3   OH243563   6.087   4.132  12.145 -0.0764 -0.2365  0.3994
 7383TIP3    H143564   5.995   4.145  12.165  0.0053  0.7055  0.2271
 7383TIP3    H243565   6.101   4.038  12.154 -1.2776 -0.5314 -0.5473
 7384TIP3   OH243566   1.467   3.667  16.861 -0.5438  0.0371  0.3664
 7384TIP3    H143567   1.444   3.726  16.933 -1.5334  2.4175 -1.7778
 7384TIP3    H243568   1.386   3.658  16.810  0.6920  0.3916 -1.7628
 7385TIP3   OH243569   6.545   0.568  15.936  0.0513  0.1918  0.3410
 7385TIP3    H143570   6.510   0.530  16.017  2.3809 -0.5596  1.0947
 7385TIP3    H243571   6.528   0.662  15.945  1.4238  0.3247  2.4348
 7386TIP3   OH243572   1.831   0.365  14.887  0.0944  0.2593 -0.2538
 7386TIP3    H143573   1.879   0.285  14.910  0.1576  0.4377  0.2661
 7386TIP3    H243574   1.858   0.385  14.798  0.1014 -0.2867 -0.3761
 7387TIP3   OH243575   5.864   6.656  14.368  0.1177 -0.4097 -0.6025
 7387TIP3    H143576   5.796   6.707  14.411  0.1567 -0.1388 -0.8586
 7387TIP3    H243577   5.941   6.713  14.367  0.6042 -1.0103  0.4152
 7388TIP3   OH243578   4.778   0.187   1.571  0.3015  0.4530 -0.0344
 7388TIP3    H143579   4.688   0.183   1.539 -1.1098  1.0641  3.3875
 7388TIP3    H243580   4.805   0.096   1.578  0.2748  0.2864 -1.8192
 7389TIP3   OH243581   0.347   6.029  15.423  0.0501  0.0542  0.2078
 7389TIP3    H143582   0.276   5.968  15.406 -0.2226  0.0889  1.1460
 7389TIP3    H243583   0.414   6.007  15.358 -0.3273 -0.7732  0.0869
 7390TIP3   OH243584   5.674   3.674  14.765 -0.6380  0.3735 -0.3371
 7390TIP3    H143585   5.707   3.648  14.851  0.2655  0.5036 -0.6356
 7390TIP3    H243586   5.714   3.612  14.704  1.0678  2.0227 -0.9872
 7391TIP3   OH243587   5.854   6.681  12.792  0.0240  0.4494  0.0272
 7391TIP3    H143588   5.779   6.727  12.753 -1.1313 -1.1609  0.2776
 7391TIP3    H243589   5.924   6.746  12.790 -1.2228  1.8558 -0.6678
 7392TIP3   OH243590   3.040   4.035  12.039 -0.0678  0.2571  0.1273
 7392TIP3    H143591   3.067   4.105  12.099 -0.1409  0.3177  0.0884
 7392TIP3    H243592   3.055   3.955  12.089  1.9161  0.1578 -0.5314
 7393TIP3   OH243593   3.779   0.146   3.426  0.2115  0.0235  0.1405
 7393TIP3    H143594   3.842   0.170   3.494 -0.3017  0.7013  0.3927
 7393TIP3    H243595   3.804   0.199   3.350  0.7584 -0.7013 -0.1956
 7394TIP3   OH243596   1.824   4.472   1.413 -0.3881 -0.2730 -0.1930
 7394TIP3    H143597   1.798   4.559   1.444 -0.0743 -0.3571  0.3285
 7394TIP3    H243598   1.876   4.489   1.334 -0.5348  0.0005 -0.2315
 7395TIP3   OH243599   5.522   6.086  12.079 -0.1806 -0.2918  0.1579
 7395TIP3    H143600   5.524   5.991  12.081  0.2769 -0.2822  0.3442
 7395TIP3    H243601   5.483   6.111  12.163 -1.0507 -0.3273 -0.2276
 7396TIP3   OH243602   4.544   2.775  16.324  0.3657  0.0006 -0.2198
 7396TIP3    H143603   4.552   2.710  16.394  0.1497  0.6937  0.4586
 7396TIP3    H243604   4.450   2.790  16.316  0.4733  2.6451  1.9422
 7397TIP3   OH243605   4.466   3.513  12.332 -0.2244 -0.2842 -0.7069
 7397TIP3    H143606   4.423   3.504  12.417 -0.4928 -1.3912 -0.9391
 7397TIP3    H243607   4.491   3.424  12.309 -0.9561 -0.1364 -2.2029
 7398TIP3   OH243608   5.697   6.459  15.536 -0.3044 -0.0225  0.1845
 7398TIP3    H143609   5.675   6.372  15.505 -0.7598 -0.0379  0.5425
 7398TIP3    H243610   5.664   6.518  15.468 -1.1051 -0.0661  0.5266
 7399TIP3   OH243611   3.067   6.231   0.611  0.1096  0.3472  0.4999
 7399TIP3    H143612   3.020   6.271   0.537  0.6634  1.6481  0.8317
 7399TIP3    H243613   3.131   6.172   0.570 -0.1675  0.4002 -0.0217
 7400TIP3   OH243614   5.918   2.245   6.307  0.1348 -0.3272 -0.0282
 7400TIP3    H143615   5.945   2.254   6.216 -1.2778 -1.3928 -0.5961
 7400TIP3    H243616   5.989   2.195   6.349  0.5222 -0.3382 -0.6892
 7401TIP3   OH243617   1.364   1.817   0.656  0.1060  0.2054  0.5406
 7401TIP3    H143618   1.297   1.755   0.626 -0.1583  0.6518  0.1816
 7401TIP3    H243619   1.437   1.805   0.595 -0.3811  1.0211 -0.2224
 7402TIP3   OH243620   5.417   4.312   0.885 -0.5383 -0.0538 -0.3221
 7402TIP3    H143621   5.398   4.384   0.945  1.4545  0.7865 -0.6333
 7402TIP3    H243622   5.402   4.233   0.937 -0.0740  0.6386  0.9036
 7403TIP3   OH243623   6.010   3.102  15.883  0.6016  0.6642 -0.3736
 7403TIP3    H143624   5.981   3.174  15.826  1.1807  2.3731  1.3858
 7403TIP3    H243625   5.932   3.047  15.894  0.0467  1.2013 -1.4698
 7404TIP3   OH243626   3.352   4.589   2.989 -0.5398  0.4815 -0.0243
 7404TIP3    H143627   3.377   4.588   2.897 -0.7118  0.3432 -0.0703
 7404TIP3    H243628   3.259   4.567   2.989 -0.5300  0.4347  0.1861
 7405TIP3   OH243629   4.717   1.250   4.560 -0.3927 -0.4260  0.8315
 7405TIP3    H143630   4.659   1.324   4.579 -1.3827 -0.9624  0.0230
 7405TIP3    H243631   4.804   1.289   4.550 -1.2293  0.9889 -1.8438
 7406TIP3   OH243632   2.078   6.428  16.336  0.2569 -0.8592 -0.1458
 7406TIP3    H143633   2.143   6.497  16.344  1.1791 -1.5036 -1.5650
 7406TIP3    H243634   2.106   6.360  16.398  0.6149 -0.8814 -0.3281
 7407TIP3   OH243635   5.875   0.479  13.163  0.0342 -0.5625  0.1997
 7407TIP3    H143636   5.813   0.457  13.232  0.0730 -0.3620  0.2984
 7407TIP3    H243637   5.868   0.574  13.153  0.0090 -0.5939 -0.0890
 7408TIP3   OH243638   4.270   6.041  12.224 -0.1426  0.0829 -0.2397
 7408TIP3    H143639   4.268   6.024  12.318 -2.1758 -0.8118 -0.3751
 7408TIP3    H243640   4.359   6.069  12.206  0.4201 -0.1764  1.8721
 7409TIP3   OH243641   2.521   6.309   2.708 -0.4143 -0.4835 -0.1604
 7409TIP3    H143642   2.541   6.247   2.638  0.9748  0.1172 -0.3276
 7409TIP3    H243643   2.605   6.328   2.748 -0.6037  2.1170 -0.8149
 7410TIP3   OH243644   2.961   0.291  12.564  0.2631  0.6413 -0.0066
 7410TIP3    H143645   2.941   0.265  12.473 -1.0658 -0.5981  0.5977
 7410TIP3    H243646   2.885   0.263  12.614  0.5492  2.1877  1.3751
 7411TIP3   OH243647   1.214   1.934  16.305  0.5027  0.4059 -0.5237
 7411TIP3    H143648   1.155   1.899  16.238 -0.4422  0.8699  0.0383
 7411TIP3    H243649   1.255   2.010  16.264  0.3830  0.3402 -0.7708
 7412TIP3   OH243650   0.407   2.049  15.063 -0.0287  0.4148  0.0146
 7412TIP3    H143651   0.434   2.049  15.155 -1.0877  1.9978  0.3765
 7412TIP3    H243652   0.457   1.978  15.023 -1.1746 -1.8155  2.2711
 7413TIP3   OH243653   6.199   2.433  15.917  0.2374  0.1959 -0.1587
 7413TIP3    H143654   6.213   2.517  15.875  0.2252  0.1042 -0.3448
 7413TIP3    H243655   6.269   2.427  15.982 -0.2977  0.7506  0.4814
 7414TIP3   OH243656   6.259   1.375  11.704  0.3109  0.3511 -0.0501
 7414TIP3    H143657   6.355   1.370  11.704  0.3110 -0.0995 -1.7617
 7414TIP3    H243658   6.239   1.463  11.735  1.2856  0.6279 -0.1833
 7415TIP3   OH243659   4.483   5.517   4.151  0.0529 -0.1308  0.5110
 7415TIP3    H143660   4.401   5.484   4.187  0.0661 -1.1598 -0.3612
 7415TIP3    H243661   4.462   5.541   4.061  1.0288 -1.8316 -0.2090
 7416TIP3   OH243662   4.471   0.964  16.285  0.2614 -0.3795  0.2125
 7416TIP3    H143663   4.535   0.943  16.353  0.2237  0.3576  0.4880
 7416TIP3    H243664   4.391   0.922  16.314 -0.7829  2.7949  2.5795
 7417TIP3   OH243665   0.303   6.597  14.562 -0.3938 -0.1864  0.1780
 7417TIP3    H143666   0.271   6.623  14.476 -0.7983  0.0734  0.3999
 7417TIP3    H243667   0.237   6.537  14.595 -0.8651  0.6448  0.7951
 7418TIP3   OH243668   2.961   6.308  16.362 -0.3332 -0.2817 -0.0055
 7418TIP3    H143669   2.942   6.314  16.268 -1.5235  0.0167  0.2411
 7418TIP3    H243670   3.033   6.244  16.368 -0.5777 -0.6732 -1.0717
 7419TIP3   OH243671   1.976   2.483   5.204 -0.0502  0.4899  0.1361
 7419TIP3    H143672   1.897   2.537   5.193 -0.6196 -0.1700  0.8366
 7419TIP3    H243673   1.979   2.429   5.126  1.3734  2.5433 -1.3136
 7420TIP3   OH243674   3.258   3.620  14.935  0.4514  0.8488  0.0288
 7420TIP3    H143675   3.243   3.580  15.020 -3.1275  0.2851 -0.6948
 7420TIP3    H243676   3.253   3.714  14.951 -0.4906  0.7359  0.4362
 7421TIP3   OH243677   4.139   2.421  13.434 -0.0430 -0.3826 -0.6550
 7421TIP3    H143678   4.052   2.459  13.425 -0.1056 -0.1405  0.8187
 7421TIP3    H243679   4.174   2.419  13.345 -0.9087  1.0370 -1.0434
 7422TIP3   OH243680   6.175   2.414  12.184 -0.2753  0.4931 -0.0577
 7422TIP3    H143681   6.247   2.453  12.135  1.5139 -1.6610  0.6568
 7422TIP3    H243682   6.096   2.450  12.144  1.0658 -0.3316 -3.8612
 7423TIP3   OH243683   5.320   4.263   2.507 -0.0581  0.5770 -0.5865
 7423TIP3    H143684   5.358   4.343   2.545  1.1080  0.2030 -0.9037
 7423TIP3    H243685   5.283   4.291   2.424 -0.7476  1.0071 -0.1453
 7424TIP3   OH243686   3.422   5.079  12.423  0.3180 -0.1296 -0.0119
 7424TIP3    H143687   3.511   5.111  12.436 -0.5825  2.2245  0.8869
 7424TIP3    H243688   3.371   5.157  12.401 -1.4770 -1.4636 -0.8844
 7425TIP3   OH243689   6.260   0.761  12.394  0.3103  0.2796  0.2177
 7425TIP3    H143690   6.318   0.763  12.318  0.5629 -0.5274  0.3810
 7425TIP3    H243691   6.184   0.711  12.365  0.1719  0.4218  0.3344
 7426TIP3   OH243692   4.303   3.147   3.562 -0.7065  0.5228  0.4127
 7426TIP3    H143693   4.324   3.080   3.496  1.0207  1.7363 -0.3608
 7426TIP3    H243694   4.388   3.167   3.603 -1.6414  0.3012  2.5448
 7427TIP3   OH243695   5.187   3.712   4.214  0.2301 -0.4980 -0.1782
 7427TIP3    H143696   5.157   3.716   4.305  1.1889  2.9337  0.1440
 7427TIP3    H243697   5.280   3.735   4.218 -0.0739  1.4444 -2.0659
 7428TIP3   OH243698   3.749   4.261   0.183 -0.2439 -0.4803 -0.0880
 7428TIP3    H143699   3.829   4.217   0.154 -0.0837 -0.8941  0.9488
 7428TIP3    H243700   3.771   4.297   0.269 -2.1526 -3.6356  1.9288
 7429TIP3   OH243701   3.138   4.582  15.594 -0.3467  0.6818  0.0947
 7429TIP3    H143702   3.226   4.546  15.604 -0.6491 -0.8391 -2.0230
 7429TIP3    H243703   3.148   4.674  15.618  1.0565 -0.1169  3.0604
 7430TIP3   OH243704   6.075   2.909   0.411  0.2748 -0.1014 -0.1470
 7430TIP3    H143705   6.094   2.996   0.375 -1.5326  0.3663 -0.0449
 7430TIP3    H243706   5.995   2.921   0.461  1.2743 -1.3456  1.8616
 7431TIP3   OH243707   3.580   2.465  16.441  0.4142 -0.4278  0.3581
 7431TIP3    H143708   3.575   2.484  16.535 -1.0273 -0.1938  0.2591
 7431TIP3    H243709   3.497   2.422  16.421  1.3689 -1.9871 -0.4988
 7432TIP3   OH243710   2.896   1.687  13.657 -0.1937  0.0737  0.9606
 7432TIP3    H143711   2.948   1.722  13.730 -0.7136  2.0145  0.4628
 7432TIP3    H243712   2.944   1.714  13.578 -0.7287 -0.1758  0.5400
 7433TIP3   OH243713   1.238   0.335   0.081 -0.3673 -0.1249  0.3956
 7433TIP3    H143714   1.272   0.249   0.107 -0.3008 -0.1042  0.3797
 7433TIP3    H243715   1.314   0.379   0.043  0.2330  0.8384  2.5660
 7434TIP3   OH243716   1.207   1.357   4.767 -0.0263 -0.6464  0.2903
 7434TIP3    H143717   1.247   1.304   4.835 -0.4941 -0.2366  0.8998
 7434TIP3    H243718   1.274   1.364   4.699  0.8031 -0.2880  1.1140
 7435TIP3   OH243719   6.192   1.457   0.852  0.0465 -0.1300 -0.1988
 7435TIP3    H143720   6.153   1.516   0.788  0.8995  0.9438  0.2519
 7435TIP3    H243721   6.189   1.504   0.935  1.9232 -0.1516 -0.0731
 7436TIP3   OH243722   0.155   1.710   2.398  0.4284  0.2238  0.8138
 7436TIP3    H143723   0.204   1.663   2.466 -0.5615  0.4548  1.7161
 7436TIP3    H243724   0.126   1.641   2.338  1.1681 -0.0039  0.7062
 7437TIP3   OH243725   0.889   2.233  12.756  0.2936 -0.0667 -0.0131
 7437TIP3    H143726   0.949   2.166  12.791  0.6636 -0.8742 -2.0451
 7437TIP3    H243727   0.836   2.259  12.831  0.6503 -2.1139  1.0204
 7438TIP3   OH243728   3.013   1.803  15.114 -0.1384  0.2619 -0.6338
 7438TIP3    H143729   3.104   1.777  15.100  0.0192  0.8215 -0.6971
 7438TIP3    H243730   2.994   1.863  15.042 -0.9639 -0.8235 -1.3398
 7439TIP3   OH243731   3.797   0.711  15.434 -0.3579  0.5190  0.6528
 7439TIP3    H143732   3.882   0.696  15.475 -0.5538 -0.4997  0.6988
 7439TIP3    H243733   3.811   0.690  15.341 -0.5478  0.4098  0.6482
 7440TIP3   OH243734   0.449   4.740   2.433 -0.8852 -0.3404 -0.5822
 7440TIP3    H143735   0.477   4.827   2.403 -0.9585  0.0518  0.4560
 7440TIP3    H243736   0.371   4.757   2.486 -0.7254 -1.0075 -0.1221
 7441TIP3   OH243737   6.254   5.001  14.402 -0.1978  0.4124  0.2720
 7441TIP3    H143738   6.169   5.036  14.428 -0.8166 -0.2599 -0.7576
 7441TIP3    H243739   6.313   5.025  14.473 -1.4175  0.1964  1.3871
 7442TIP3   OH243740   1.280   1.983  15.993  0.1835 -0.0189  0.3034
 7442TIP3    H143741   1.362   2.024  16.020 -0.4295  0.4186  1.6151
 7442TIP3    H243742   1.225   2.056  15.965 -0.1840 -0.1674  0.6259
 7443TIP3   OH243743   2.436   6.407  13.952  0.0729  0.4470 -0.0888
 7443TIP3    H143744   2.431   6.397  13.857  2.5251 -0.9573 -0.1529
 7443TIP3    H243745   2.525   6.437  13.969 -0.2811  0.6102  1.8101
 7444TIP3   OH243746   2.276   1.608   3.516 -0.1665  0.6043  0.0697
 7444TIP3    H143747   2.224   1.604   3.596 -1.1932  2.9309 -0.3911
 7444TIP3    H243748   2.344   1.673   3.535  0.2004  0.4233 -0.6086
 7445TIP3   OH243749   1.844   2.430  14.313  0.9652  0.3366 -0.0275
 7445TIP3    H143750   1.780   2.500  14.329 -1.2422 -1.4949 -0.3703
 7445TIP3    H243751   1.909   2.441  14.383  0.5554  2.5097  0.0899
 7446TIP3   OH243752   4.930   0.383   1.674 -0.3518 -0.4369 -0.2587
 7446TIP3    H143753   4.903   0.374   1.765 -1.4968 -0.5529 -0.5978
 7446TIP3    H243754   4.869   0.328   1.625 -0.0199 -0.0436 -1.1410
 7447TIP3   OH243755   5.138   3.390  11.283  0.4956 -0.1642  0.0208
 7447TIP3    H143756   5.146   3.296  11.301  1.1655 -0.2647 -0.7596
 7447TIP3    H243757   5.221   3.414  11.242 -0.5027  0.2865 -1.8529
 7448TIP3   OH243758   4.394   0.486  14.118  0.2574  0.0116  0.3223
 7448TIP3    H143759   4.303   0.455  14.108  0.2902 -0.4548  1.3917
 7448TIP3    H243760   4.418   0.516  14.030 -1.3869  1.4155  0.3063
 7449TIP3   OH243761   2.960   6.469  11.728  0.7950 -0.6162 -0.1833
 7449TIP3    H143762   3.039   6.439  11.681 -0.4949 -2.2168 -1.4445
 7449TIP3    H243763   2.918   6.530  11.667  0.2963 -0.9345 -0.1655
 7450TIP3   OH243764   1.931   1.630  14.767 -0.5349  0.2385  0.0690
 7450TIP3    H143765   1.869   1.697  14.796 -1.1139 -0.2194 -0.0921
 7450TIP3    H243766   1.877   1.553  14.749 -0.0938  0.2499 -1.4450
 7451TIP3   OH243767   0.607   2.827  16.166  0.1701 -0.3636  0.2998
 7451TIP3    H143768   0.584   2.871  16.084  0.2686  0.5487  0.7516
 7451TIP3    H243769   0.589   2.734  16.149  1.3248 -0.3694 -1.1555
 7452TIP3   OH243770   4.008   6.029  12.908  0.0110  0.2351 -0.3333
 7452TIP3    H143771   3.959   6.007  12.987  0.5638 -0.9698 -0.3139
 7452TIP3    H243772   3.941   6.031  12.839 -0.3480  0.5169  0.0144
 7453TIP3   OH243773   2.153   4.347  14.255 -0.3010 -0.0499  0.1638
 7453TIP3    H143774   2.237   4.311  14.281  0.2218  1.6659  0.9596
 7453TIP3    H243775   2.171   4.393  14.173  0.1049  2.2431  1.4622
 7454TIP3   OH243776   2.996   4.280   2.980 -0.4713 -0.0017  0.0230
 7454TIP3    H143777   3.017   4.190   2.958 -0.6021 -1.0854  3.6586
 7454TIP3    H243778   2.900   4.284   2.978 -0.4623  0.0920 -0.2411
 7455TIP3   OH243779   0.917   0.835  14.569  0.6829 -0.1321 -0.2607
 7455TIP3    H143780   0.932   0.771  14.639  1.5115  0.8878  0.5258
 7455TIP3    H243781   1.004   0.870  14.549  0.2476  0.7921 -0.6073
 7456TIP3   OH243782   1.114   1.226   3.774 -0.0166 -0.5154 -0.3633
 7456TIP3    H143783   1.053   1.195   3.841 -1.0690 -0.9624 -1.4791
 7456TIP3    H243784   1.149   1.308   3.810  0.1023 -1.1716  1.0833
 7457TIP3   OH243785   4.212   5.421   4.172  0.5624  0.3004 -0.0687
 7457TIP3    H143786   4.198   5.347   4.112 -1.5766 -0.4002  1.2179
 7457TIP3    H243787   4.141   5.482   4.152  1.5220  1.4256 -0.1749
 7458TIP3   OH243788   5.702   6.004  15.666 -0.5806 -0.5424  0.7127
 7458TIP3    H143789   5.743   6.084  15.699 -0.7933 -0.4910  0.8500
 7458TIP3    H243790   5.762   5.934  15.691 -0.5362 -0.4579  0.8401
 7459TIP3   OH243791   5.519   0.177   5.170  0.1130  0.0403 -0.2903
 7459TIP3    H143792   5.560   0.238   5.231 -1.3053  3.0388 -2.0994
 7459TIP3    H243793   5.477   0.112   5.225  2.0134  0.4321  1.7520
 7460TIP3   OH243794   3.496   1.910  12.684 -0.0427  0.1288 -0.4961
 7460TIP3    H143795   3.572   1.883  12.632  0.8363 -0.4404  1.0171
 7460TIP3    H243796   3.423   1.860  12.648  0.3799  0.3237 -1.6633
 7461TIP3   OH243797   1.453   5.818   0.651 -0.6921  0.3158  0.4412
 7461TIP3    H143798   1.382   5.782   0.704  0.0553 -0.0014  1.2603
 7461TIP3    H243799   1.476   5.899   0.696 -1.7493  1.3908 -0.8718
 7462TIP3   OH243800   3.875   2.104  13.221 -0.0278 -0.2774  0.3919
 7462TIP3    H143801   3.889   2.144  13.307 -1.9449 -2.6362  1.9541
 7462TIP3    H243802   3.780   2.094  13.215  0.1695 -1.5564 -1.3421
 7463TIP3   OH243803   1.451   1.727  15.082 -1.0183  0.3805 -0.3153
 7463TIP3    H143804   1.409   1.754  15.000  2.2280  0.3979 -2.1604
 7463TIP3    H243805   1.390   1.664  15.120 -4.9057  3.7391 -0.1653
 7464TIP3   OH243806   1.910   3.125  11.345  0.5747  0.3550  0.0357
 7464TIP3    H143807   1.847   3.192  11.371  1.9085  1.5853  0.2171
 7464TIP3    H243808   1.913   3.132  11.249 -0.4014 -0.5095 -0.0702
 7465TIP3   OH243809   0.205   0.376   5.679 -0.5807  0.3999  0.3919
 7465TIP3    H143810   0.231   0.417   5.761  1.7415 -1.2689  0.6067
 7465TIP3    H243811   0.189   0.284   5.701 -1.7800  0.3181 -0.7030
 7466TIP3   OH243812   6.208   4.755  13.587 -0.3806  0.2601  0.0038
 7466TIP3    H143813   6.165   4.829  13.545 -2.2160 -0.5464  0.3527
 7466TIP3    H243814   6.265   4.794  13.653 -1.4155  1.3832  0.2739
 7467TIP3   OH243815   2.568   0.010   1.382 -0.6144  0.2052 -0.4927
 7467TIP3    H143816   2.610   0.056   1.455 -0.5608 -1.8640  0.8788
 7467TIP3    H243817   2.641  -0.032   1.335 -0.7840  0.1384 -0.6978
 7468TIP3   OH243818   1.693   4.454   4.278 -0.1874  0.4359  0.1231
 7468TIP3    H143819   1.774   4.405   4.275 -1.3232 -1.7273  1.8066
 7468TIP3    H243820   1.666   4.463   4.187  0.8400 -0.7557 -0.3119
 7469TIP3   OH243821   4.607   3.361  16.427 -0.1713 -0.0657 -0.4380
 7469TIP3    H143822   4.617   3.365  16.522 -1.9133 -0.4493 -0.1922
 7469TIP3    H243823   4.630   3.449  16.396  2.8943 -0.6205  0.0032
 7470TIP3   OH243824   1.810   4.804   1.075  0.2886 -0.0662  0.3044
 7470TIP3    H143825   1.779   4.812   0.985  2.3609  0.0531 -0.4534
 7470TIP3    H243826   1.762   4.728   1.110  1.5161 -1.9916 -1.8710
 7471TIP3   OH243827   5.668   5.066  16.505  0.5744  0.0130 -0.6617
 7471TIP3    H143828   5.758   5.088  16.527  0.6902 -0.6796 -0.4215
 7471TIP3    H243829   5.667   5.060  16.409  0.7766  0.0539 -0.6657
 7472TIP3   OH243830   4.737   3.602   0.521  0.3803  0.2088  0.4391
 7472TIP3    H143831   4.679   3.632   0.590  0.8995 -1.9191  1.9074
 7472TIP3    H243832   4.825   3.619   0.554  0.6547  1.3051 -0.7605
 7473TIP3   OH243833   5.096   3.367  11.642  0.4043 -0.5903 -0.0675
 7473TIP3    H143834   5.062   3.291  11.690 -1.2123 -0.2005 -0.5152
 7473TIP3    H243835   5.031   3.383  11.573  1.2979  0.5064 -0.6909
 7474TIP3   OH243836   6.329   0.049   5.805 -0.1457 -0.2332  0.2371
 7474TIP3    H143837   6.260   0.045   5.739  0.4871 -0.0722 -0.4392
 7474TIP3    H243838   6.341  -0.042   5.832  2.2353 -0.9247 -2.6514
 7475TIP3   OH243839   0.789   0.648  15.104 -0.2860  0.0253  0.1754
 7475TIP3    H143840   0.728   0.631  15.033 -0.1128 -0.7934  0.2178
 7475TIP3    H243841   0.834   0.565  15.119 -0.2761  0.1978  1.2038
 7476TIP3   OH243842   3.250   1.735  12.151  0.2414 -0.3737 -0.3731
 7476TIP3    H143843   3.245   1.647  12.114 -3.3320  0.0934 -1.3501
 7476TIP3    H243844   3.277   1.790  12.077  0.7103 -0.3963 -0.2230
 7477TIP3   OH243845   5.274   4.875   0.461  0.4247 -0.7881 -0.4229
 7477TIP3    H143846   5.264   4.925   0.542 -0.2703 -2.2273  0.4329
 7477TIP3    H243847   5.275   4.783   0.490  0.8331 -1.3087 -1.9918
 7478TIP3   OH243848   6.571   0.732   4.714 -0.1481  0.3325  0.2279
 7478TIP3    H143849   6.508   0.706   4.782 -0.9125 -2.0163 -1.2633
 7478TIP3    H243850   6.654   0.743   4.762 -1.0036  0.4146  1.7699
 7479TIP3   OH243851   3.227   2.654  11.637  0.1516 -0.2678 -0.6208
 7479TIP3    H143852   3.173   2.625  11.563  0.9343  0.5957 -1.5715
 7479TIP3    H243853   3.314   2.664  11.600  1.2015 -2.3829  1.0675
 7480TIP3   OH243854   5.742   3.989   5.664 -0.1558  0.1872 -0.0590
 7480TIP3    H143855   5.834   3.973   5.645 -0.6017 -0.7653 -1.6972
 7480TIP3    H243856   5.728   3.950   5.750  0.5621 -1.4124 -0.6277
 7481TIP3   OH243857   5.804   2.145   4.377 -0.2961 -0.2674 -0.7716
 7481TIP3    H143858   5.846   2.223   4.340 -0.9773  1.2904  1.5495
 7481TIP3    H243859   5.839   2.138   4.465 -1.3888 -1.7033 -0.4183
 7482TIP3   OH243860   0.243   6.524  15.922 -0.7264  0.4579  0.0716
 7482TIP3    H143861   0.327   6.564  15.945  0.7897 -2.4137 -0.0275
 7482TIP3    H243862   0.197   6.517  16.006  0.4799 -0.7294  0.6726
 7483TIP3   OH243863   3.503   0.514  13.079  0.1583  1.0055 -0.2670
 7483TIP3    H143864   3.511   0.589  13.020  2.3447  1.1536  0.1268
 7483TIP3    H243865   3.576   0.523  13.140 -0.1459 -0.8843  0.4582
 7484TIP3   OH243866   0.191   5.141   0.992 -0.2669  0.7808 -0.1568
 7484TIP3    H143867   0.176   5.064   0.937  2.0010  0.4885 -0.4762
 7484TIP3    H243868   0.204   5.213   0.930  0.2317  0.8694  0.0421
 7485TIP3   OH243869   4.050   4.545   3.689 -0.0499 -0.2568 -0.5304
 7485TIP3    H143870   4.085   4.462   3.721 -1.5641 -0.4239  0.8569
 7485TIP3    H243871   4.124   4.605   3.693  1.2508 -1.6339 -2.1660
 7486TIP3   OH243872   6.456   6.003   4.006 -0.2873  0.2674 -0.3374
 7486TIP3    H143873   6.369   5.963   4.020  0.3867 -0.5703  2.0359
 7486TIP3    H243874   6.450   6.088   4.050 -0.6776  1.4196 -2.4988
 7487TIP3   OH243875   6.427   5.483   1.369 -0.7750 -0.4705  0.3689
 7487TIP3    H143876   6.425   5.514   1.459  0.9471  1.3977 -0.1624
 7487TIP3    H243877   6.510   5.436   1.361 -1.1273 -1.0271 -0.1342
 7488TIP3   OH243878   6.416   0.046   0.297  0.1703 -0.1952  0.0121
 7488TIP3    H143879   6.367   0.103   0.237  0.7742 -0.1242 -0.4164
 7488TIP3    H243880   6.500   0.090   0.309  0.8903 -1.2950 -0.8192
 7489TIP3   OH243881   6.375   0.149   1.256  0.5899  0.1668 -0.0827
 7489TIP3    H143882   6.378   0.119   1.166 -1.1915 -1.9390  0.4775
 7489TIP3    H243883   6.301   0.211   1.259 -0.6522 -1.2621  0.2582
 7490TIP3   OH243884   2.198   1.988   3.496  0.0125  0.0625 -0.6693
 7490TIP3    H143885   2.130   1.938   3.451 -0.6411  1.3762 -1.2044
 7490TIP3    H243886   2.167   2.079   3.493  1.8659  0.7340 -1.0803
 7491TIP3   OH243887   6.167   2.449   5.536  0.3884 -0.2365 -0.4699
 7491TIP3    H143888   6.098   2.462   5.471 -2.0842 -0.0842  1.9570
 7491TIP3    H243889   6.162   2.356   5.559 -0.2372  0.0971  0.8885
 7492TIP3   OH243890   6.560   3.233   3.949 -0.1059 -0.0331  0.1646
 7492TIP3    H143891   6.550   3.158   3.890  0.0196  0.9386 -1.1462
 7492TIP3    H243892   6.653   3.234   3.972 -0.2060 -0.5704  0.5934
 7493TIP3   OH243893   0.659   5.962  14.298  0.2763  0.2762 -0.0431
 7493TIP3    H143894   0.734   5.980  14.241  0.7987  0.9005  0.8195
 7493TIP3    H243895   0.637   6.047  14.336 -1.3506  0.2485 -0.8459
 7494TIP3   OH243896   1.964   0.983   5.265 -0.1056 -0.5211 -0.0486
 7494TIP3    H143897   1.886   0.950   5.310 -1.1770 -0.9377 -2.1010
 7494TIP3    H243898   2.036   0.934   5.304 -1.1735 -2.0895  0.0675
 7495TIP3   OH243899   5.621   0.247   3.544  0.1143  0.6705 -0.3875
 7495TIP3    H143900   5.715   0.252   3.558  0.1910  0.2262 -0.7629
 7495TIP3    H243901   5.611   0.228   3.451 -0.3550  1.0487 -0.4200
 7496TIP3   OH243902   6.040   0.974   4.178  0.3160 -0.2808  0.5462
 7496TIP3    H143903   6.068   1.014   4.095  1.1023  0.3825  1.1180
 7496TIP3    H243904   5.970   1.032   4.210 -0.2431 -0.7390  0.1829
 7497TIP3   OH243905   3.036   3.270  14.515 -0.0056  0.2651  1.1042
 7497TIP3    H143906   3.087   3.347  14.488  1.5863 -0.7505  1.1032
 7497TIP3    H243907   3.083   3.235  14.590  0.5560 -1.9269 -0.1731
 7498TIP3   OH243908   4.778   4.907  11.832  0.1334  0.0641  0.1815
 7498TIP3    H143909   4.812   4.888  11.745  0.6662 -1.9795  0.7952
 7498TIP3    H243910   4.834   4.978  11.865 -0.2839  1.0923 -1.2163
 7499TIP3   OH243911   6.514   0.508  12.167 -0.3548 -0.7048 -0.0339
 7499TIP3    H143912   6.592   0.547  12.205 -0.4241 -1.5404  1.0355
 7499TIP3    H243913   6.444   0.571  12.185 -0.5635 -1.4717  2.1119
 7500TIP3   OH243914   3.591   2.967  11.718 -0.1820 -0.0644  0.3631
 7500TIP3    H143915   3.518   2.953  11.779 -0.2569  0.0393  0.2987
 7500TIP3    H243916   3.551   2.959  11.631 -0.6092  2.2422  0.2659
 7501TIP3   OH243917   4.609   2.156   2.536  0.9389  0.3401 -0.4543
 7501TIP3    H143918   4.544   2.114   2.479  0.7086  0.9642 -0.6552
 7501TIP3    H243919   4.558   2.190   2.610  1.2243 -0.3855  0.0965
 7502TIP3   OH243920   5.055   0.862  13.524 -0.2338 -0.1705 -0.7009
 7502TIP3    H143921   4.983   0.801  13.510 -1.7995  1.5689 -0.6048
 7502TIP3    H243922   5.056   0.917  13.446  0.3936  0.3895 -0.3143
 7503TIP3   OH243923   5.520   3.124   3.136  0.5107  0.0448 -0.0486
 7503TIP3    H143924   5.560   3.196   3.087 -0.1721 -1.8966 -3.8199
 7503TIP3    H243925   5.426   3.139   3.128  0.3676 -1.0726 -0.6439
 7504TIP3   OH243926   6.425   4.551  13.351 -0.1784  0.2655 -0.1463
 7504TIP3    H143927   6.469   4.513  13.427 -1.8463  1.8251  1.7113
 7504TIP3    H243928   6.450   4.494  13.278  2.6206 -0.4964  1.2522
 7505TIP3   OH243929   2.961   5.489  14.716  0.4506 -0.0121  0.8311
 7505TIP3    H143930   2.922   5.526  14.795  0.1926  1.6903 -0.0399
 7505TIP3    H243931   2.893   5.499  14.649  1.7778  1.7168 -0.3742
 7506TIP3   OH243932   1.647   3.198   6.615  0.0274  0.5784  0.2455
 7506TIP3    H143933   1.651   3.127   6.552  2.5140  1.3584 -0.5865
 7506TIP3    H243934   1.652   3.154   6.700 -1.7605 -0.3833 -0.0998
 7507TIP3   OH243935   6.635   6.691  12.925 -0.1976  0.5474  0.0315
 7507TIP3    H143936   6.622   6.599  12.902 -0.5217 -0.2805  3.0668
 7507TIP3    H243937   6.700   6.723  12.863 -0.4172 -1.5746 -1.3905
 7508TIP3   OH243938   6.026   4.364   4.882  0.0888 -0.0976 -0.6216
 7508TIP3    H143939   6.031   4.453   4.846 -0.3028 -0.1590 -0.8291
 7508TIP3    H243940   6.109   4.324   4.856  0.8362  0.6108  0.5784
 7509TIP3   OH243941   2.721   3.121  14.119  0.0395  0.5363 -0.3556
 7509TIP3    H143942   2.795   3.171  14.153  0.6833 -1.0123  0.6030
 7509TIP3    H243943   2.754   3.033  14.107 -1.9780 -0.6019  1.5968
 7510TIP3   OH243944   0.180   1.864  12.089 -0.1583  0.0249  0.0256
 7510TIP3    H143945   0.245   1.932  12.109  0.1087  0.5153 -2.1760
 7510TIP3    H243946   0.222   1.811  12.021 -0.8163 -1.6860  0.8850
 7511TIP3   OH243947   4.691   3.496  17.143  0.0445  0.3071  0.0093
 7511TIP3    H143948   4.604   3.490  17.105 -0.8329  1.8030  1.6025
 7511TIP3    H243949   4.721   3.585  17.120  1.3143 -0.2981 -0.7992
 7512TIP3   OH243950   3.841   4.553  15.187 -0.3500  0.4345 -0.7041
 7512TIP3    H143951   3.825   4.645  15.208 -0.2583  0.4622 -0.7539
 7512TIP3    H243952   3.821   4.545  15.094 -2.1263 -0.0074 -0.3141
 7513TIP3   OH243953   1.722   3.752   4.577 -0.2650  0.1450  0.1781
 7513TIP3    H143954   1.716   3.683   4.644 -1.1611  0.9716  0.9771
 7513TIP3    H243955   1.791   3.810   4.608  0.0571 -0.0482 -0.1720
 7514TIP3   OH243956   1.053   1.448   5.926  0.2477  0.4293  0.1587
 7514TIP3    H143957   0.965   1.417   5.903  0.7048  0.6179 -2.0223
 7514TIP3    H243958   1.057   1.438   6.021 -1.7016 -0.7018  0.1846
 7515TIP3   OH243959   1.380   1.910  13.520  0.2386 -0.0494  0.4230
 7515TIP3    H143960   1.292   1.884  13.546 -0.0135 -0.0293 -0.3749
 7515TIP3    H243961   1.430   1.829  13.520  0.9954  0.2844  3.6364
 7516TIP3   OH243962   4.780   2.377   2.925 -0.0023 -0.3024 -0.3217
 7516TIP3    H143963   4.708   2.421   2.970  0.0801  0.4198 -0.8832
 7516TIP3    H243964   4.853   2.379   2.987 -0.5205 -1.2528  0.3469
 7517TIP3   OH243965   3.128   3.783  16.086  0.4571  0.1774 -0.3912
 7517TIP3    H143966   3.209   3.791  16.135  0.4092  0.3848 -0.3459
 7517TIP3    H243967   3.145   3.827  16.003  0.1377  0.9058 -0.0733
 7518TIP3   OH243968   4.683   4.622  13.786 -0.0094 -0.0885 -0.4936
 7518TIP3    H143969   4.686   4.556  13.856 -0.3548 -0.5897 -0.9438
 7518TIP3    H243970   4.741   4.691  13.817 -0.6651  0.0091  0.6042
 7519TIP3   OH243971   0.006   4.751  14.080  0.6458  0.1139  0.0423
 7519TIP3    H143972   0.003   4.833  14.029  0.7787 -1.0207 -1.8823
 7519TIP3    H243973  -0.064   4.760  14.144 -0.9154  0.8014 -1.6797
 7520TIP3   OH243974   2.339   0.678  14.240  0.4016  0.2012  0.0823
 7520TIP3    H143975   2.254   0.634  14.249  0.0226  0.3656 -2.0956
 7520TIP3    H243976   2.318   0.771  14.238  0.3223  0.2051 -2.3901
 7521TIP3   OH243977   0.128   2.256   4.270  0.1515 -0.0076 -0.0620
 7521TIP3    H143978   0.171   2.256   4.185 -0.0244  0.6186 -0.1609
 7521TIP3    H243979   0.088   2.343   4.276  0.9363  0.2892  1.0581
 7522TIP3   OH243980   0.088   6.502  17.387  0.3207  0.4457  0.2369
 7522TIP3    H143981   0.183   6.490  17.380  0.5142  2.3562 -1.1654
 7522TIP3    H243982   0.078   6.579  17.443 -0.3955  0.4075  0.1712
 7523TIP3   OH243983   0.398   4.451   3.115 -0.5771 -0.4494  0.1893
 7523TIP3    H143984   0.381   4.460   3.022  1.3428 -1.0286 -0.2667
 7523TIP3    H243985   0.386   4.539   3.151 -1.5759 -0.2789 -0.5408
 7524TIP3   OH243986   4.885   1.615   2.373 -0.2317 -0.3452  0.7162
 7524TIP3    H143987   4.942   1.548   2.333  0.3203 -0.3445  1.4744
 7524TIP3    H243988   4.891   1.598   2.467 -0.6864  0.3082  0.8690
 7525TIP3   OH243989   2.548   5.879   3.546 -0.7362  0.1346  0.0775
 7525TIP3    H143990   2.593   5.963   3.557  1.9925 -0.6520 -3.2191
 7525TIP3    H243991   2.599   5.817   3.598 -2.0574  0.2385  1.5743
 7526TIP3   OH243992   1.584   0.214  14.865 -0.3682 -0.1098  0.0430
 7526TIP3    H143993   1.663   0.267  14.876 -0.6130  0.2742 -0.0375
 7526TIP3    H243994   1.564   0.219  14.772  1.4648 -3.0214 -0.6670
 7527TIP3   OH243995   2.640   4.099   0.925 -0.0881  0.8256 -0.1946
 7527TIP3    H143996   2.549   4.111   0.899 -0.1747  0.8229  0.1043
 7527TIP3    H243997   2.673   4.031   0.867 -0.0789  1.3109 -0.7647
 7528TIP3   OH243998   4.129   1.211  14.669  0.1020  0.2351 -0.1412
 7528TIP3    H143999   4.049   1.164  14.694 -1.2090  1.2351 -2.1798
 7528TIP3    H244000   4.200   1.150  14.689 -1.2680 -1.2009  0.5315
 7529TIP3   OH244001   5.057   0.078  11.489  0.0993 -0.1172 -0.5328
 7529TIP3    H144002   5.127   0.082  11.423 -1.2434 -0.2966 -2.0208
 7529TIP3    H244003   5.045  -0.015  11.506 -0.8535 -0.1930 -1.5119
 7530TIP3   OH244004   1.082   0.463  11.826  0.1195 -0.4944  0.0117
 7530TIP3    H144005   1.038   0.423  11.901  0.0129  0.3419  0.4139
 7530TIP3    H244006   1.153   0.403  11.804  0.7671 -0.2951  1.4243
 7531TIP3   OH244007   5.104   5.061  14.608 -0.3327 -0.2939  0.4057
 7531TIP3    H144008   5.178   5.046  14.548 -0.8793 -0.5242 -0.2263
 7531TIP3    H244009   5.096   5.156  14.613 -0.3290 -0.2708  0.0418
 7532TIP3   OH244010   5.980   1.021  16.112  0.3764 -0.1377 -0.1426
 7532TIP3    H144011   5.988   1.080  16.037  0.6840  0.2530  0.1909
 7532TIP3    H244012   5.887   1.022  16.134 -0.0683 -1.7252 -1.6834
 7533TIP3   OH244013   1.827   1.432  14.106 -0.4182  0.3111 -0.3451
 7533TIP3    H144014   1.772   1.503  14.141 -0.8293  0.2856 -0.9336
 7533TIP3    H244015   1.824   1.444  14.011 -1.3137 -1.0745 -0.5285
 7534TIP3   OH244016   5.507   5.376   4.973  0.1123  0.2261 -0.3674
 7534TIP3    H144017   5.590   5.338   5.001 -0.4142 -1.0603 -0.4496
 7534TIP3    H244018   5.467   5.411   5.053  0.4306  0.2496 -0.2188
 7535TIP3   OH244019   1.584   2.767  12.995  0.1488  0.6807  0.0154
 7535TIP3    H144020   1.491   2.770  13.017  0.2267 -0.1488  0.4858
 7535TIP3    H244021   1.587   2.782  12.900 -0.5863 -0.7187 -0.2521
 7536TIP3   OH244022   3.989   0.321  15.782  0.1087  0.5805  0.5508
 7536TIP3    H144023   3.904   0.347  15.748 -0.8437 -1.3420  1.2733
 7536TIP3    H244024   4.048   0.394  15.762 -1.2385  1.1049 -1.7689
 7537TIP3   OH244025   0.362   3.427   6.602  0.1721  0.0663 -0.4535
 7537TIP3    H144026   0.419   3.423   6.679 -0.1726 -2.6488 -0.2103
 7537TIP3    H244027   0.355   3.520   6.581  1.9872  0.7233  1.5040
 7538TIP3   OH244028   2.412   2.959  14.514 -0.2945  0.4213 -0.1634
 7538TIP3    H144029   2.375   3.028  14.570 -1.0426 -0.4251  0.4048
 7538TIP3    H244030   2.462   2.904  14.575 -2.2953 -1.3500 -0.0064
 7539TIP3   OH244031   5.695   6.678   0.306 -0.1905 -0.8886  0.1339
 7539TIP3    H144032   5.603   6.658   0.294 -0.2471 -0.1283 -0.7849
 7539TIP3    H244033   5.730   6.689   0.218  0.9266 -1.7445  0.4321
 7540TIP3   OH244034   6.758   4.447  14.821  0.3535 -0.3082 -0.0930
 7540TIP3    H144035   6.726   4.357  14.819 -1.2288  0.2302 -1.3205
 7540TIP3    H244036   6.686   4.496  14.860  0.0781  0.8091 -1.9288
 7541TIP3   OH244037   0.437   6.207   0.071 -0.4124  0.2561  0.0810
 7541TIP3    H144038   0.360   6.153   0.055  0.3521 -1.0913  0.7565
 7541TIP3    H244039   0.438   6.218   0.166  0.0470  0.5267  0.0459
 7542TIP3   OH244040   4.248   3.655   4.848 -0.4792 -0.4237 -0.2722
 7542TIP3    H144041   4.261   3.680   4.757  2.1135 -1.8237 -0.3855
 7542TIP3    H244042   4.324   3.600   4.869 -2.0627 -1.8896  2.1065
 7543TIP3   OH244043   4.958   4.816  16.848 -0.1996  0.7687 -0.3843
 7543TIP3    H144044   4.908   4.747  16.803 -0.4661  0.8761 -0.2525
 7543TIP3    H244045   5.048   4.804  16.816 -0.2879  0.5088 -0.5437
 7544TIP3   OH244046   1.424   6.477  12.542 -0.1464 -0.2612  0.0753
 7544TIP3    H144047   1.338   6.462  12.582 -1.4511 -0.8056 -2.6843
 7544TIP3    H244048   1.485   6.428  12.597 -1.7620 -0.8092  1.4700
 7545TIP3   OH244049   2.526   1.998  17.380  0.3215  0.6044  0.1908
 7545TIP3    H144050   2.495   2.033  17.297  0.1064 -1.0424 -0.4412
 7545TIP3    H244051   2.446   1.982  17.431  0.3894  0.4908  0.2618
 7546TIP3   OH244052   3.368   1.393   4.520 -0.5101 -0.3109 -0.2256
 7546TIP3    H144053   3.426   1.468   4.516 -0.8518 -0.0654 -0.7134
 7546TIP3    H244054   3.421   1.319   4.491 -0.3456 -0.1510 -0.3281
 7547TIP3   OH244055   6.551   0.292  15.286  0.1457  0.6058 -0.0920
 7547TIP3    H144056   6.469   0.332  15.317 -0.8055 -0.7117 -0.8427
 7547TIP3    H244057   6.607   0.290  15.364 -0.8154  0.8004  0.6223
 7548TIP3   OH244058   2.318   5.420  15.493 -0.5378  0.4081 -0.0662
 7548TIP3    H144059   2.299   5.388  15.581  0.6082 -0.4233 -0.1007
 7548TIP3    H244060   2.408   5.451  15.497 -0.9253  1.6655 -0.6053
 7549TIP3   OH244061   3.486   6.550  11.636  0.4164 -0.2636  0.1132
 7549TIP3    H144062   3.421   6.506  11.580 -1.8801  2.9744 -0.0995
 7549TIP3    H244063   3.552   6.582  11.575 -0.4653  0.6178 -0.4200
 7550TIP3   OH244064   3.065   0.123   1.705 -0.1361  0.0337 -0.1336
 7550TIP3    H144065   3.024   0.201   1.742  0.4837 -0.1986  1.0786
 7550TIP3    H244066   3.120   0.156   1.634  0.7661  0.8079  0.8985
 7551TIP3   OH244067   3.534   1.777  15.523  0.4894 -0.1171  0.1443
 7551TIP3    H144068   3.487   1.726  15.457  0.5255 -1.2599  0.9839
 7551TIP3    H244069   3.515   1.734  15.606 -1.0674  2.3532  1.1967
 7552TIP3   OH244070   6.574   4.227  17.119 -0.3687  0.5345  0.4263
 7552TIP3    H144071   6.604   4.150  17.167 -0.6983  0.7218  0.9438
 7552TIP3    H244072   6.626   4.300  17.154  0.5649  0.4366 -0.6698
 7553TIP3   OH244073   0.695   0.674  12.487  0.3210  0.3902  0.4805
 7553TIP3    H144074   0.705   0.625  12.405  0.8964  1.9586 -0.4308
 7553TIP3    H244075   0.779   0.664  12.531  1.2610  2.3563 -0.7690
 7554TIP3   OH244076   4.692   6.045  11.193 -0.1823 -0.1858 -0.3553
 7554TIP3    H144077   4.741   6.010  11.119  2.2278  0.9324  0.6257
 7554TIP3    H244078   4.600   6.033  11.168  0.5361 -0.7221 -3.0715
 7555TIP3   OH244079   6.348   2.937   0.877  0.0852 -0.1798 -0.4790
 7555TIP3    H144080   6.378   2.923   0.787  1.8718 -0.1132  0.0529
 7555TIP3    H244081   6.338   3.032   0.885  0.1137 -0.1693 -0.5737
 7556TIP3   OH244082   6.262   3.066  11.868 -0.5430 -0.7499 -0.0094
 7556TIP3    H144083   6.181   3.082  11.819 -1.8524 -1.8286  1.6711
 7556TIP3    H244084   6.312   3.007  11.812 -1.2403 -0.6127 -0.7943
 7557TIP3   OH244085   2.066   4.896  12.807 -0.4230  0.4035 -0.3507
 7557TIP3    H144086   2.158   4.877  12.790 -0.3924  0.2205  0.0076
 7557TIP3    H244087   2.054   4.873  12.899 -0.6588  1.0807 -0.2110
 7558TIP3   OH244088   0.058   5.392  11.155 -0.5321 -0.5230 -0.2620
 7558TIP3    H144089   0.021   5.409  11.242  1.0555  2.0907  0.0042
 7558TIP3    H244090   0.102   5.307  11.165 -1.9348 -1.1612  0.8949
 7559TIP3   OH244091   5.560   3.864  12.293 -0.2238  0.3065  0.4286
 7559TIP3    H144092   5.642   3.892  12.253  0.5793  0.6293  2.2243
 7559TIP3    H244093   5.500   3.852  12.219  1.1592  0.9660 -0.8403
 7560TIP3   OH244094   3.504   0.315  12.887 -0.3437  0.0707 -0.4159
 7560TIP3    H144095   3.489   0.375  12.960  2.9563  0.0710  0.4352
 7560TIP3    H244096   3.549   0.368  12.821 -0.8677 -0.5726 -1.3076
 7561TIP3   OH244097   5.180   0.337   5.611 -0.6473  0.3452 -0.5479
 7561TIP3    H144098   5.097   0.324   5.657  0.5485 -1.3123  1.3138
 7561TIP3    H244099   5.234   0.387   5.672  0.7764 -1.3840 -0.3089
 7562TIP3   OH244100   5.833   5.976   2.814 -0.1058 -0.4011 -0.2914
 7562TIP3    H144101   5.813   6.050   2.871  0.3139  0.2442 -0.9635
 7562TIP3    H244102   5.894   5.922   2.864 -0.5291 -0.3795  0.2564
 7563TIP3   OH244103   2.699   6.210   1.219 -0.4643  0.4498 -0.3639
 7563TIP3    H144104   2.681   6.202   1.313  0.6846 -2.2149 -0.2688
 7563TIP3    H244105   2.617   6.185   1.176 -0.7604  0.9016 -0.0574
 7564TIP3   OH244106   5.491   0.957   5.200 -0.1958  0.6300 -0.2089
 7564TIP3    H144107   5.511   1.050   5.200  1.0577  0.4321  2.0705
 7564TIP3    H244108   5.572   0.915   5.171 -0.9497  0.2273 -1.8546
 7565TIP3   OH244109   5.535   5.683   3.410 -0.1990 -0.5677  0.0164
 7565TIP3    H144110   5.630   5.691   3.397 -0.1450  2.3442  1.4353
 7565TIP3    H244111   5.526   5.651   3.500 -0.5214  0.9648  0.5530
 7566TIP3   OH244112   2.611   0.348  15.355  0.5610  0.7929  0.0708
 7566TIP3    H144113   2.562   0.306  15.285  0.8997  0.3336  0.1053
 7566TIP3    H244114   2.571   0.435  15.364 -0.6416  0.2134  0.5064
 7567TIP3   OH244115   4.062   6.615   0.001  0.2953 -0.4774 -0.4757
 7567TIP3    H144116   3.976   6.641  -0.032  0.8385  0.0432 -1.5352
 7567TIP3    H244117   4.046   6.593   0.093 -0.5043  2.1694  0.1086
 7568TIP3   OH244118   6.078   3.495  14.430  0.1904 -0.0578  0.2049
 7568TIP3    H144119   5.996   3.463  14.392  0.2079  1.3669 -1.1259
 7568TIP3    H244120   6.121   3.543  14.359  1.8515 -0.1646  1.0822
 7569TIP3   OH244121   4.785   0.748   1.498 -0.0881 -0.4245  0.2222
 7569TIP3    H144122   4.862   0.728   1.552 -0.9362 -0.2982  1.5079
 7569TIP3    H244123   4.757   0.663   1.464  0.5143 -0.4918 -0.1213
 7570TIP3   OH244124   0.475   0.669   2.667 -0.4972  0.1317 -0.4105
 7570TIP3    H144125   0.546   0.648   2.606 -0.1153  0.2027  0.0000
 7570TIP3    H244126   0.406   0.706   2.612 -0.7525 -1.1644 -0.9951
 7571TIP3   OH244127   5.127   5.641   6.789 -0.2713 -0.2474 -0.0934
 7571TIP3    H144128   5.165   5.688   6.714 -0.4698  0.0502 -0.0113
 7571TIP3    H244129   5.198   5.585   6.820 -0.2260 -0.4656 -0.5796
 7572TIP3   OH244130   3.045   6.162  15.519 -0.0976  0.1605  0.1839
 7572TIP3    H144131   3.103   6.106  15.467  0.1939  0.3027  0.3522
 7572TIP3    H244132   3.096   6.183  15.597 -0.6957 -0.4245  0.7560
 7573TIP3   OH244133   4.990   1.627  14.970  0.1822  0.0546  0.0279
 7573TIP3    H144134   4.947   1.710  14.948  0.4746 -0.1769 -1.6091
 7573TIP3    H244135   5.060   1.619  14.905  0.9570 -0.8845  0.9391
 7574TIP3   OH244136   6.411   4.304  15.902 -0.3325 -0.2202  0.0782
 7574TIP3    H144137   6.378   4.229  15.952  2.8277 -0.5857  1.8032
 7574TIP3    H244138   6.457   4.265  15.828 -0.5173  0.1321 -0.2279
 7575TIP3   OH244139   6.627   5.553  16.037  0.0720 -0.4150  0.0220
 7575TIP3    H144140   6.594   5.535  15.949  1.0484  1.3256 -0.7575
 7575TIP3    H244141   6.696   5.618  16.024 -0.6002  0.8414  2.1917
 7576TIP3   OH244142   3.301   3.649   1.094  0.0032 -0.0117 -0.2236
 7576TIP3    H144143   3.372   3.600   1.136 -0.0250 -0.4969 -0.7263
 7576TIP3    H244144   3.241   3.671   1.165  1.9296  2.7525  0.7174
 7577TIP3   OH244145   0.182   3.868  11.259 -0.3078 -0.4894 -0.3727
 7577TIP3    H144146   0.236   3.946  11.273  0.8643 -0.6959 -3.1542
 7577TIP3    H244147   0.102   3.902  11.219 -0.9208 -0.5079  0.7906
 7578TIP3   OH244148   6.301   2.604  13.198  0.1295  0.0094  0.1289
 7578TIP3    H144149   6.300   2.661  13.275  1.0219  0.2034  0.0061
 7578TIP3    H244150   6.226   2.634  13.146  0.3397  0.8142  0.2678
 7579TIP3   OH244151   1.200   6.131  14.700  0.2319  0.5430 -0.4446
 7579TIP3    H144152   1.178   6.154  14.609  0.3225  0.7528 -0.4152
 7579TIP3    H244153   1.262   6.199  14.727  0.5707  0.2153 -0.3810
 7580TIP3   OH244154   3.634   6.701   3.320 -0.0340  0.1032 -0.2352
 7580TIP3    H144155   3.667   6.777   3.368 -0.0559  0.4478 -0.7473
 7580TIP3    H244156   3.705   6.677   3.261  0.2715 -0.7754  0.4818
 7581TIP3   OH244157   3.706   3.348  15.908 -0.2474  0.5816 -0.0334
 7581TIP3    H144158   3.727   3.357  15.815  1.2901 -1.1080  0.0770
 7581TIP3    H244159   3.756   3.271  15.936 -0.7213  1.0050  2.1788
 7582TIP3   OH244160   6.334   3.161  11.453 -0.2535  0.2125 -0.2591
 7582TIP3    H144161   6.380   3.092  11.407  1.6708  2.0313 -1.1971
 7582TIP3    H244162   6.312   3.122  11.538 -0.3669 -1.9147 -1.1971
 7583TIP3   OH244163   1.997   5.583   0.416 -0.1981 -0.5291  0.2838
 7583TIP3    H144164   2.042   5.524   0.476  1.0603  1.2996  1.2525
 7583TIP3    H244165   1.905   5.560   0.423  0.0987 -1.3768  1.7501
 7584TIP3   OH244166   1.573   3.595  14.238  0.0245  0.3347 -0.2231
 7584TIP3    H144167   1.555   3.625  14.149  0.7788  0.3385 -0.3849
 7584TIP3    H244168   1.532   3.661  14.294 -1.0210 -0.0131 -0.5534
 7585TIP3   OH244169   5.425   3.474   1.738  0.5462  0.5962  0.0683
 7585TIP3    H144170   5.502   3.512   1.781  1.6043 -0.2144 -1.0196
 7585TIP3    H244171   5.441   3.380   1.740 -0.7867  0.3685  0.4683
 7586TIP3   OH244172   2.136   1.907   5.846  0.0629 -0.0984 -0.4625
 7586TIP3    H144173   2.183   1.982   5.882 -0.5535  0.0713  0.0172
 7586TIP3    H244174   2.048   1.913   5.885 -0.0510 -0.9635 -0.5633
 7587TIP3   OH244175   6.306   1.503   4.021 -0.3213  0.4989  0.5810
 7587TIP3    H144176   6.233   1.558   3.992 -0.4577 -0.3439 -0.8241
 7587TIP3    H244177   6.384   1.546   3.985 -0.4559 -0.3472 -0.7843
 7588TIP3   OH244178   6.638   3.787  10.654  0.1600 -0.2343  0.0762
 7588TIP3    H144179   6.716   3.772  10.600 -0.4711 -2.4607 -0.2822
 7588TIP3    H244180   6.592   3.704  10.654 -1.4154  0.5792  1.6220
 7589TIP3   OH244181   5.087   5.911  14.831 -0.5486 -0.7134 -0.0778
 7589TIP3    H144182   5.113   5.871  14.747 -0.9121  0.4805 -0.7804
 7589TIP3    H244183   4.994   5.931  14.820 -0.5408 -0.3277  0.5264
 7590TIP3   OH244184   0.576   4.711  10.325 -0.5604 -0.1327  0.5317
 7590TIP3    H144185   0.574   4.806  10.321  0.0521 -0.0933  1.1483
 7590TIP3    H244186   0.635   4.690  10.397 -1.6145 -0.9645  1.1856
 7591TIP3   OH244187   2.150   4.850  15.051 -0.5527 -0.0950 -0.0529
 7591TIP3    H144188   2.152   4.794  15.128  0.8785  0.7364  0.5752
 7591TIP3    H244189   2.194   4.798  14.983  0.7341  0.2018  0.5130
 7592TIP3   OH244190   0.634   0.206  11.396 -0.4587 -0.5146  0.6429
 7592TIP3    H144191   0.564   0.231  11.335  1.8167 -0.6059 -2.2191
 7592TIP3    H244192   0.629   0.111  11.400 -0.1839 -0.5637 -0.0213
 7593TIP3   OH244193   0.620   3.460   5.739  0.0904 -0.4897 -0.1415
 7593TIP3    H144194   0.646   3.488   5.827  2.3208 -1.2976 -0.4647
 7593TIP3    H244195   0.644   3.534   5.683  1.2877 -1.0131 -0.3663
 7594TIP3   OH244196   0.599   0.739   4.714 -0.1866  0.5360  0.3540
 7594TIP3    H144197   0.669   0.676   4.731 -1.6152 -0.8683  1.3178
 7594TIP3    H244198   0.573   0.771   4.801 -2.4116 -0.9198  0.3214
 7595TIP3   OH244199   2.125   1.761  15.922  0.2840 -0.7586 -0.3284
 7595TIP3    H144200   2.197   1.720  15.969 -0.3852 -1.8708 -0.2242
 7595TIP3    H244201   2.131   1.854  15.944  0.0336 -1.2210  1.9361
 7596TIP3   OH244202   6.107   4.034  14.980  0.5944  0.1226 -0.1866
 7596TIP3    H144203   6.050   4.000  14.911 -2.3693  5.4794 -0.9191
 7596TIP3    H244204   6.078   3.990  15.059 -2.5612  0.3651 -1.0617
 7597TIP3   OH244205   2.441   3.142   5.331 -0.3647  0.3053 -0.3783
 7597TIP3    H144206   2.495   3.063   5.339  0.7223  1.0597 -0.0056
 7597TIP3    H244207   2.373   3.132   5.397 -0.4902 -0.5116 -0.6248
 7598TIP3   OH244208   4.431   0.183   5.240  0.7339 -0.4172  0.4096
 7598TIP3    H144209   4.435   0.210   5.149 -0.0434 -1.2227  0.1254
 7598TIP3    H244210   4.508   0.128   5.253  1.4871  0.6516  0.5745
 7599TIP3   OH244211   6.442   3.189   4.542 -0.5600  0.0201  0.0488
 7599TIP3    H144212   6.496   3.138   4.482 -0.9013 -0.8799  0.4930
 7599TIP3    H244213   6.352   3.162   4.523 -0.8567  1.3313 -0.5202
 7600TIP3   OH244214   0.644   2.778   0.281 -0.1403  0.8220  1.0316
 7600TIP3    H144215   0.693   2.756   0.201 -2.1212 -0.4451  0.0880
 7600TIP3    H244216   0.709   2.773   0.351  1.1182 -0.6701 -0.1650
 7601TIP3   OH244217   5.996   0.890   2.910  0.0191  0.7469  0.0559
 7601TIP3    H144218   6.022   0.893   2.818 -0.3479  1.1984 -0.0352
 7601TIP3    H244219   6.050   0.957   2.952 -0.1254  0.8405  0.0916
 7602TIP3   OH244220   2.841   3.848  17.320  0.2895  0.3386  0.9764
 7602TIP3    H144221   2.836   3.761  17.282 -0.0161  0.3370  1.0213
 7602TIP3    H244222   2.934   3.869  17.319  0.2283  0.6545 -0.5118
 7603TIP3   OH244223   2.118   4.350  11.729  0.6919  0.6210  0.1555
 7603TIP3    H144224   2.113   4.254  11.730 -0.5962  0.6173 -1.7290
 7603TIP3    H244225   2.193   4.370  11.673 -0.1569  0.6889 -0.9827
 7604TIP3   OH244226   6.013   4.052  13.047  0.1379 -0.0796  0.1105
 7604TIP3    H144227   6.015   4.089  12.958 -1.4223 -0.4305 -0.1037
 7604TIP3    H244228   5.919   4.048  13.068  0.5054  0.3824  1.9429
 7605TIP3   OH244229   3.475   4.850  12.567  0.1264 -0.4075 -0.5648
 7605TIP3    H144230   3.439   4.913  12.505 -1.1347 -0.0977  0.4572
 7605TIP3    H244231   3.548   4.809  12.519 -0.4282  0.2427 -2.0228
 7606TIP3   OH244232   3.901   1.571   3.435 -0.3236 -0.0468  0.6228
 7606TIP3    H144233   3.945   1.618   3.364  0.2770  0.9209  1.6028
 7606TIP3    H244234   3.971   1.525   3.481 -0.4876  0.5475  1.4886
 7607TIP3   OH244235   4.449   0.093  16.234 -0.1915 -0.4889  0.2760
 7607TIP3    H144236   4.498   0.012  16.250  0.4856 -0.1935 -0.2566
 7607TIP3    H244237   4.495   0.135  16.161 -1.3211 -0.2632 -0.3298
 7608TIP3   OH244238   2.707   4.804   4.273 -0.0614 -0.4901 -0.3877
 7608TIP3    H144239   2.639   4.750   4.233 -0.4425  0.7286 -1.4310
 7608TIP3    H244240   2.659   4.872   4.321  0.4163 -0.0978 -0.4565
 7609TIP3   OH244241   2.693   5.115  11.651 -0.0047  0.8369  0.1229
 7609TIP3    H144242   2.629   5.053  11.615 -0.7650  1.6059  0.1348
 7609TIP3    H244243   2.661   5.201  11.625 -1.4257  1.6126  3.8111
 7610TIP3   OH244244   1.663   3.888   0.543  0.0062 -0.4296 -0.1158
 7610TIP3    H144245   1.688   3.850   0.627 -0.8824 -0.5032  0.1312
 7610TIP3    H244246   1.609   3.964   0.566 -0.4770 -0.6152 -0.6129
 7611TIP3   OH244247   0.217   4.028  12.565 -0.3326 -0.1531 -0.1167
 7611TIP3    H144248   0.274   4.002  12.637 -1.0707 -1.1297  0.1401
 7611TIP3    H244249   0.266   4.006  12.486  0.2642  0.4408  0.0786
 7612TIP3   OH244250   4.478   4.395   2.771  0.1401  0.1761  0.2046
 7612TIP3    H144251   4.572   4.382   2.778  0.0805 -0.7104 -0.5292
 7612TIP3    H244252   4.443   4.311   2.743 -0.8550  0.5469  0.2582
 7613TIP3   OH244253   3.446   5.671   5.429  0.0053  0.0356 -0.5009
 7613TIP3    H144254   3.521   5.616   5.408  0.8793  0.5425  1.1285
 7613TIP3    H244255   3.387   5.661   5.354  0.6149 -2.2313 -0.7445
 7614TIP3   OH244256   3.701   6.632   0.763  0.1453  0.2121  0.0487
 7614TIP3    H144257   3.774   6.616   0.702  0.5164 -1.2378  0.8327
 7614TIP3    H244258   3.656   6.548   0.769 -1.2275  0.9215  0.0944
 7615TIP3   OH244259   2.742   5.972   1.481  0.0786 -0.2016 -0.1594
 7615TIP3    H144260   2.753   5.950   1.573 -0.2908 -0.2791 -0.1310
 7615TIP3    H244261   2.806   5.917   1.435 -0.1990 -0.6567 -0.0072
 7616TIP3   OH244262   3.965   5.469   4.046 -0.5306  0.1629  0.4385
 7616TIP3    H144263   3.955   5.538   3.980  0.0142  0.2302  0.4233
 7616TIP3    H244264   4.005   5.396   3.999  1.3455  0.7662  1.0222
 7617TIP3   OH244265   0.504   0.384   0.414 -0.2920  0.6760  0.1792
 7617TIP3    H144266   0.457   0.409   0.335  0.4517 -0.8827 -0.8017
 7617TIP3    H244267   0.554   0.462   0.438  0.0415  0.9377 -1.3065
 7618TIP3   OH244268   1.076   2.780   0.273 -0.0103 -0.1099  0.1913
 7618TIP3    H144269   0.998   2.748   0.229  0.4665  0.8183 -1.3761
 7618TIP3    H244270   1.055   2.773   0.367 -1.7787 -0.2968 -0.1862
 7619TIP3   OH244271   2.780   0.066  11.287  0.4510  0.0048  0.0411
 7619TIP3    H144272   2.765   0.160  11.285 -0.4801 -0.1371 -0.3697
 7619TIP3    H244273   2.858   0.055  11.340 -0.0195  0.9371  0.9557
 7620TIP3   OH244274   0.041   4.269   2.432  0.0121  0.2311  0.1792
 7620TIP3    H144275   0.015   4.224   2.351 -1.2315 -0.7067  1.0649
 7620TIP3    H244276   0.135   4.253   2.439  0.3372  1.1753 -1.5879
 7621TIP3   OH244277   5.208   0.665  11.779  0.7235 -0.2006 -0.1319
 7621TIP3    H144278   5.137   0.727  11.759 -0.0591 -0.7427  0.8868
 7621TIP3    H244279   5.164   0.581  11.792  1.3065 -0.2207  2.2034
 7622TIP3   OH244280   4.921   4.502   4.641  0.3115  0.3085 -0.0543
 7622TIP3    H144281   4.973   4.572   4.680 -0.7451  0.6054  0.8873
 7622TIP3    H244282   4.830   4.530   4.653 -0.1723 -1.4445  0.8538
 7623TIP3   OH244283   1.190   6.082  14.106  0.2639 -0.5158  0.3218
 7623TIP3    H144284   1.268   6.115  14.151  0.0013 -0.4883  0.7640
 7623TIP3    H244285   1.179   5.993  14.139  0.1577 -0.5521  0.1901
 7624TIP3   OH244286   3.745   1.459   1.480 -0.1557 -0.0206  0.3417
 7624TIP3    H144287   3.683   1.443   1.551  1.0046 -0.6033  1.2720
 7624TIP3    H244288   3.753   1.374   1.435  0.8311 -0.2869  0.9779
 7625TIP3   OH244289   2.964   2.028  12.193 -0.5219 -0.0993 -0.4126
 7625TIP3    H144290   3.001   1.976  12.122 -0.6617 -0.8438  0.0460
 7625TIP3    H244291   3.013   2.111  12.191  0.8711 -0.8830 -0.0983
 7626TIP3   OH244292   3.964   0.666  14.541 -0.2314 -0.2356  0.7017
 7626TIP3    H144293   3.869   0.652  14.542 -0.5551  1.4936 -0.8159
 7626TIP3    H244294   4.001   0.578  14.536 -1.8693 -0.8829 -1.8174
 7627TIP3   OH244295   0.036   4.867   1.825 -0.4835  0.0463  0.0117
 7627TIP3    H144296   0.092   4.793   1.800  0.0772 -0.1151  1.6149
 7627TIP3    H244297  -0.014   4.835   1.900  1.0380  1.7635  1.8880
 7628TIP3   OH244298   2.378   6.358   1.398  0.1366  0.5562  0.2179
 7628TIP3    H144299   2.297   6.355   1.450 -0.8865  0.3147 -1.3098
 7628TIP3    H244300   2.448   6.356   1.463 -1.0791  1.2959  1.6274
 7629TIP3   OH244301   1.457   4.261   0.402  0.3606 -0.2153  0.4437
 7629TIP3    H144302   1.457   4.218   0.487 -0.0903 -3.3792 -0.9910
 7629TIP3    H244303   1.366   4.285   0.387  0.7152  2.1357  1.5463
 7630TIP3   OH244304   5.511   1.172  16.822  0.1589  0.1803 -0.0599
 7630TIP3    H144305   5.519   1.077  16.812 -1.7413 -0.2567  1.8945
 7630TIP3    H244306   5.507   1.187  16.916 -0.0877  2.1549 -0.3321
 7631TIP3   OH244307   6.048   6.566  15.124  0.3867  0.9746  0.1110
 7631TIP3    H144308   6.082   6.641  15.075  0.6579  1.7976  1.4750
 7631TIP3    H244309   5.954   6.570  15.113  0.5172  0.4271 -1.3053
 7632TIP3   OH244310   2.219   2.578  12.275  0.1594  0.1396 -0.0663
 7632TIP3    H144311   2.223   2.653  12.335 -1.4579 -0.7369  1.2148
 7632TIP3    H244312   2.311   2.562  12.251  0.9363  0.3126  2.4813
 7633TIP3   OH244313   3.522   5.458  15.615  0.2049  0.4971  0.3447
 7633TIP3    H144314   3.618   5.465  15.616  0.1916  0.6332  1.0264
 7633TIP3    H244315   3.505   5.382  15.560  0.6464  1.2433 -0.8999
 7634TIP3   OH244316   5.986   6.288  15.006  0.0633  0.1246  0.0243
 7634TIP3    H144317   6.021   6.376  15.017 -0.2284  0.1164  1.1183
 7634TIP3    H244318   5.943   6.289  14.920  0.5228  0.8762 -0.2044
 7635TIP3   OH244319   4.079   5.367   4.758 -0.1541  0.5192  0.3985
 7635TIP3    H144320   4.082   5.322   4.673  1.4037  0.9401  0.2094
 7635TIP3    H244321   4.157   5.338   4.804 -0.4093  1.1423  1.2569
 7636TIP3   OH244322   4.539   4.489   1.118 -0.2465  0.5810  0.1437
 7636TIP3    H144323   4.572   4.434   1.189  1.3473  0.3151 -0.7580
 7636TIP3    H244324   4.610   4.551   1.101 -0.0652 -0.1477 -2.0063
 7637TIP3   OH244325   1.435   0.100  16.498  0.5339 -0.3128 -0.6379
 7637TIP3    H144326   1.392   0.104  16.584  2.1403 -0.5408  0.2172
 7637TIP3    H244327   1.436   0.006  16.477  2.5841 -0.5931  0.4450
 7638TIP3   OH244328   6.701   6.712   4.172  0.3248 -0.3927  0.0891
 7638TIP3    H144329   6.611   6.717   4.141  0.8008 -0.8198 -1.4302
 7638TIP3    H244330   6.737   6.799   4.155  0.5038 -0.5369 -0.2572
 7639TIP3   OH244331   1.936   3.183  13.724 -0.2576  0.4035  0.0573
 7639TIP3    H144332   1.982   3.257  13.765 -0.1882  1.1140 -1.2639
 7639TIP3    H244333   1.971   3.180  13.635 -2.0081  0.3100 -0.6635
 7640TIP3   OH244334   0.938   6.031  16.052 -0.0378 -0.2503 -0.6928
 7640TIP3    H144335   0.929   6.099  16.119 -1.4817 -1.3099  0.2516
 7640TIP3    H244336   1.004   5.971  16.089 -0.5743 -0.6479 -0.3700
 7641TIP3   OH244337   1.649   6.041   3.703 -0.0868  0.3439  0.0404
 7641TIP3    H144338   1.731   6.020   3.658  0.5402 -0.7445  1.6039
 7641TIP3    H244339   1.635   5.967   3.762 -2.9136 -0.1422 -1.0986
 7642TIP3   OH244340   5.072   0.524   6.229 -0.2421  0.5473 -0.0948
 7642TIP3    H144341   5.040   0.437   6.205  0.0768  1.1076 -2.9417
 7642TIP3    H244342   4.993   0.571   6.257 -0.5399 -0.3766  0.7065
 7643TIP3   OH244343   3.967   5.934  13.338  0.2726 -0.4861  0.1441
 7643TIP3    H144344   4.053   5.936  13.379 -0.1342 -1.5747  1.1108
 7643TIP3    H244345   3.960   6.017  13.292  2.2944 -0.8476 -0.9070
 7644TIP3   OH244346   2.615   2.166   2.069  0.2272  0.1074  0.1668
 7644TIP3    H144347   2.694   2.151   2.019 -0.3348  0.5666 -0.8874
 7644TIP3    H244348   2.547   2.114   2.025 -0.3301  0.7230  0.2712
 7645TIP3   OH244349   5.981   0.506   2.165  0.4232  0.2674 -0.0381
 7645TIP3    H144350   5.999   0.467   2.251  1.0757  0.2464 -0.1756
 7645TIP3    H244351   5.888   0.491   2.150  0.5833 -0.9088  0.0845
 7646TIP3   OH244352   3.073   6.145   0.182 -0.0994  0.1555 -0.6594
 7646TIP3    H144353   3.103   6.108   0.099 -3.0492 -1.5441 -1.1312
 7646TIP3    H244354   2.979   6.127   0.183 -0.3723  1.1287  2.5836
 7647TIP3   OH244355   4.435   0.959   0.031  0.1536  0.3420 -0.2544
 7647TIP3    H144356   4.516   0.942   0.080 -1.4117 -1.3923  1.9612
 7647TIP3    H244357   4.464   1.001  -0.050  3.3545 -1.1707 -0.0441
 7648TIP3   OH244358   3.101   1.645  15.742 -0.3377 -0.4791 -0.1078
 7648TIP3    H144359   3.015   1.606  15.756  0.0338 -0.9233  1.0287
 7648TIP3    H244360   3.088   1.709  15.672 -1.4618 -0.9508 -0.3424
 7649TIP3   OH244361   4.284   5.932   3.105 -0.0297  0.1312  0.2922
 7649TIP3    H144362   4.229   5.926   3.182  1.0621 -1.2516  1.0125
 7649TIP3    H244363   4.235   5.986   3.043 -1.7217 -0.2593  1.2622
 7650TIP3   OH244364   2.148   3.392  16.592  0.1839  0.2999  0.1229
 7650TIP3    H144365   2.058   3.414  16.617 -0.6965 -1.1277 -1.5726
 7650TIP3    H244366   2.147   3.393  16.496  1.5275 -1.3153  0.0413
 7651TIP3   OH244367   4.772   3.546  12.304  0.1826 -0.3755  0.3026
 7651TIP3    H144368   4.823   3.603  12.361 -0.8153 -1.5310  2.4915
 7651TIP3    H244369   4.836   3.507  12.245  1.9134 -1.6884  2.8592
 7652TIP3   OH244370   3.939   0.492  14.289  0.4510  0.5385  0.2280
 7652TIP3    H144371   3.909   0.423  14.348 -0.1004 -0.1806 -0.8565
 7652TIP3    H244372   3.865   0.508  14.232  1.5079 -0.0196 -1.3738
 7653TIP3   OH244373   0.197   4.726   4.637  0.0948  0.3397 -0.0585
 7653TIP3    H144374   0.219   4.819   4.642 -0.0012  0.4303 -1.0978
 7653TIP3    H244375   0.260   4.689   4.576  0.3424 -0.3567  0.5967
 7654TIP3   OH244376   0.041   2.428   1.080 -0.1899  0.2553 -0.8849
 7654TIP3    H144377   0.015   2.404   1.169  0.2386  0.2422 -0.7593
 7654TIP3    H244378   0.006   2.517   1.069 -0.4545  0.1647 -0.7940
 7655TIP3   OH244379   0.859   3.644  15.005  0.3465 -0.6313 -0.0932
 7655TIP3    H144380   0.874   3.583  14.933 -1.1595 -1.1549 -0.0107
 7655TIP3    H244381   0.769   3.625  15.034  0.2392  0.8698  0.6648
 7656TIP3   OH244382   5.498   2.073   0.822 -0.2434  0.1333  0.1215
 7656TIP3    H144383   5.424   2.048   0.767 -0.0083  0.7301 -0.4792
 7656TIP3    H244384   5.564   2.007   0.805 -0.9140 -0.8710  1.2767
 7657TIP3   OH244385   5.677   3.048  11.664  0.2843  0.7286  0.4073
 7657TIP3    H144386   5.710   2.975  11.611 -0.0483  0.2142  0.8873
 7657TIP3    H244387   5.689   3.125  11.609  0.2283  0.2534 -0.2897
 7658TIP3   OH244388   2.987   0.616   5.596 -0.2067 -0.1034  0.4385
 7658TIP3    H144389   2.948   0.557   5.659 -1.2454 -1.5980 -1.4893
 7658TIP3    H244390   2.914   0.643   5.540  0.9292 -0.2995 -1.2173
 7659TIP3   OH244391   1.976   3.026   0.471 -0.8219 -0.7878 -0.3025
 7659TIP3    H144392   2.009   3.085   0.539  0.2934 -1.4272 -0.2720
 7659TIP3    H244393   1.932   2.956   0.520 -0.6104 -0.8978 -0.2716
 7660TIP3   OH244394   2.562   2.585   4.727  0.2068  0.2943 -0.2309
 7660TIP3    H144395   2.591   2.507   4.774  0.2567 -0.2960 -1.2228
 7660TIP3    H244396   2.597   2.658   4.778  3.1909 -0.3679 -1.1705
 7661TIP3   OH244397   1.518   4.411  15.649 -0.1042 -0.1913 -0.1980
 7661TIP3    H144398   1.505   4.325  15.609  0.6624 -0.6442  0.4726
 7661TIP3    H244399   1.605   4.438  15.618  0.9815 -1.0248  1.8879
 7662TIP3   OH244400   3.996   3.651  16.727  0.7179 -0.1701  0.4184
 7662TIP3    H144401   4.067   3.714  16.715  0.2733 -0.0861 -2.8092
 7662TIP3    H244402   4.039   3.571  16.756  1.6622  0.7975  1.7691
 7663TIP3   OH244403   3.166   5.520  14.041  0.0230  0.2594  0.6905
 7663TIP3    H144404   3.166   5.495  14.133  0.7338  0.1399  0.6670
 7663TIP3    H244405   3.258   5.515  14.015 -0.2875 -0.7856 -0.3103
 7664TIP3   OH244406   1.351   0.804   5.568  0.3445  0.4797  0.1836
 7664TIP3    H144407   1.269   0.838   5.602  0.1614  1.5610 -1.2471
 7664TIP3    H244408   1.403   0.882   5.547 -0.0098 -0.0039 -3.0123
 7665TIP3   OH244409   2.510   4.146  13.448 -0.6781  0.2902  0.3863
 7665TIP3    H144410   2.586   4.090  13.433 -0.3366  0.6320  0.7926
 7665TIP3    H244411   2.523   4.180  13.537 -0.2170  2.0111 -0.2851
 7666TIP3   OH244412   3.113   4.228   3.462 -0.5725 -0.4126 -0.0229
 7666TIP3    H144413   3.170   4.257   3.390  0.2676 -0.9812  0.4023
 7666TIP3    H244414   3.059   4.305   3.482 -0.6147 -0.1511 -1.0550
 7667TIP3   OH244415   0.987   0.686   2.249  0.4763  0.3457  0.1617
 7667TIP3    H144416   1.040   0.617   2.209 -0.2707 -0.2664  0.1972
 7667TIP3    H244417   1.047   0.730   2.310  0.8929 -0.4488  0.3399
 7668TIP3   OH244418   0.129   5.103  15.663  0.6897 -0.0104  0.2176
 7668TIP3    H144419   0.102   5.063  15.745  1.5937 -1.4824 -0.1629
 7668TIP3    H244420   0.188   5.175  15.689  1.7804 -1.0922  0.8617
 7669TIP3   OH244421   0.094   3.329   5.779  0.5513 -0.3088 -0.0217
 7669TIP3    H144422   0.173   3.286   5.811 -0.4545 -2.2700 -0.0347
 7669TIP3    H244423   0.023   3.284   5.825 -0.5466  2.1786  0.8788
 7670TIP3   OH244424   5.198   3.993  13.217 -0.4788  0.5557 -0.0635
 7670TIP3    H144425   5.128   4.014  13.156 -0.7408  2.1680  0.7449
 7670TIP3    H244426   5.186   3.900  13.236 -2.0055  0.6493 -0.4336
 7671TIP3   OH244427   4.329   0.421  11.137  0.2537 -0.3480  0.1676
 7671TIP3    H144428   4.254   0.449  11.190  0.9364  0.6774  0.6332
 7671TIP3    H244429   4.291   0.388  11.056 -0.6893  0.3238  0.3271
 7672TIP3   OH244430   1.829   4.190   6.517  0.5420  0.1115 -0.1557
 7672TIP3    H144431   1.898   4.147   6.566  1.1862 -1.4711 -2.2804
 7672TIP3    H244432   1.868   4.272   6.487  1.2865 -0.4332 -0.7243
 7673TIP3   OH244433   0.613   1.065   1.681  0.2079  0.8286 -0.1756
 7673TIP3    H144434   0.556   1.084   1.607 -1.4772 -0.4842  0.7183
 7673TIP3    H244435   0.620   0.969   1.681  0.9319  0.8743  0.8185
 7674TIP3   OH244436   1.385   0.631   4.828  0.1950 -0.3721  0.0359
 7674TIP3    H144437   1.401   0.587   4.911  0.5723 -0.5926 -0.1544
 7674TIP3    H244438   1.419   0.571   4.761  0.6869  0.1936 -0.2261
 7675TIP3   OH244439   5.576   2.515  10.785  0.1663 -0.4159 -0.3282
 7675TIP3    H144440   5.527   2.451  10.835 -0.3916  0.3249  0.1039
 7675TIP3    H244441   5.667   2.503  10.813 -0.0335 -0.5353  0.2822
 7676TIP3   OH244442   2.141   1.813  15.357 -0.1513  0.0126  0.0500
 7676TIP3    H144443   2.050   1.839  15.340 -0.0596 -0.7177 -1.7450
 7676TIP3    H244444   2.133   1.739  15.417 -0.7091  0.4001  0.4657
 7677TIP3   OH244445   0.273   3.505   2.026  0.4682  0.5377 -0.1972
 7677TIP3    H144446   0.203   3.570   2.018 -0.6246 -0.4702  0.8491
 7677TIP3    H244447   0.321   3.511   1.943 -1.7503  0.2495 -1.5696
 7678TIP3   OH244448   2.495   3.426   3.656  0.1877 -0.5447  0.4274
 7678TIP3    H144449   2.407   3.441   3.690  0.5928  0.7832  0.9457
 7678TIP3    H244450   2.539   3.375   3.723  0.8829  1.7888  1.8471
 7679TIP3   OH244451   4.628   3.442   5.541 -0.2586  0.8287  0.1433
 7679TIP3    H144452   4.664   3.419   5.455  1.4274  1.3125  0.6777
 7679TIP3    H244453   4.574   3.367   5.565  0.4797  0.0052 -0.6832
 7680TIP3   OH244454   0.349   1.713   1.483  0.8335  0.0113  0.4211
 7680TIP3    H144455   0.308   1.669   1.408  0.4293 -0.5528  0.9497
 7680TIP3    H244456   0.438   1.733   1.454  0.5738  0.1312 -0.3284
 7681TIP3   OH244457   2.689   2.924  11.341 -0.2996  0.0844  0.4969
 7681TIP3    H144458   2.634   2.853  11.310 -0.3357  0.1552  0.4006
 7681TIP3    H244459   2.765   2.924  11.283 -1.0839  1.2116 -0.5882
 7682TIP3   OH244460   6.171   0.733   3.356  0.6031  0.2632  0.2405
 7682TIP3    H144461   6.099   0.674   3.380 -0.3175  1.6746  1.0870
 7682TIP3    H244462   6.129   0.819   3.347  2.2663  1.2606  1.4178
 7683TIP3   OH244463   6.396   2.738  17.340  0.1755  0.9145  0.2229
 7683TIP3    H144464   6.407   2.674  17.270 -1.7462  0.5651  0.1620
 7683TIP3    H244465   6.331   2.800  17.305 -2.2342 -0.2747  2.2572
 7684TIP3   OH244466   6.603   2.594   3.333  0.2639 -0.3353  0.5146
 7684TIP3    H144467   6.592   2.510   3.377  1.4516 -0.8163 -0.0450
 7684TIP3    H244468   6.584   2.575   3.241 -2.9192  0.8103  0.8116
 7685TIP3   OH244469   6.079   5.982   4.625  0.3892  0.0901  0.1537
 7685TIP3    H144470   6.010   6.008   4.686  0.3722 -1.5703  0.9171
 7685TIP3    H244471   6.137   6.058   4.620 -0.0317  0.5533  1.6557
 7686TIP3   OH244472   3.174   2.518   1.225 -0.1248  0.0190 -0.0853
 7686TIP3    H144473   3.210   2.459   1.291 -1.2733 -0.7126 -0.1000
 7686TIP3    H244474   3.208   2.484   1.142  0.8832  0.6220  0.0621
 7687TIP3   OH244475   3.351   5.109   5.537  0.6135  0.3388 -0.7482
 7687TIP3    H144476   3.435   5.064   5.536  1.1318  1.2690 -0.5500
 7687TIP3    H244477   3.308   5.079   5.617  0.8270 -0.0114 -0.7650
 7688TIP3   OH244478   2.186   6.142  14.331  0.6372 -0.2659 -0.3286
 7688TIP3    H144479   2.216   6.158  14.242  0.5463  0.8948 -0.1670
 7688TIP3    H244480   2.183   6.229  14.371 -3.7103 -0.0768 -0.5631
 7689TIP3   OH244481   5.339   5.740  15.092 -0.1592  0.1423  0.1744
 7689TIP3    H144482   5.421   5.780  15.121 -0.7635  1.2029  0.4650
 7689TIP3    H244483   5.341   5.745  14.996  1.2512 -2.1835  0.0107
 7690TIP3   OH244484   1.342   5.612  11.904 -0.1347 -0.1083 -0.4792
 7690TIP3    H144485   1.258   5.656  11.915  1.3124  3.6396 -2.4862
 7690TIP3    H244486   1.328   5.552  11.830 -1.5595 -1.4975  0.8231
 7691TIP3   OH244487   1.936   5.792  12.199  0.5512  0.2108 -0.5242
 7691TIP3    H144488   1.983   5.747  12.129  2.6756  1.1510  0.2230
 7691TIP3    H244489   1.948   5.885  12.180 -0.0183  0.4761  0.3507
 7692TIP3   OH244490   4.537   4.984   1.466 -0.1183 -0.7873 -0.0225
 7692TIP3    H144491   4.602   4.951   1.405 -0.5280 -2.7540  0.5285
 7692TIP3    H244492   4.502   5.063   1.424  1.9225 -0.2126 -0.7372
 7693TIP3   OH244493   2.725   0.598  11.305  0.3622  0.1313 -0.2115
 7693TIP3    H144494   2.756   0.678  11.347  1.1716  0.9784 -2.2831
 7693TIP3    H244495   2.759   0.604  11.216 -0.5866 -1.9601 -0.7556
 7694TIP3   OH244496   5.007   1.221  13.758  0.0339  0.5011 -0.1138
 7694TIP3    H144497   5.005   1.255  13.848 -0.0932  2.8074 -0.9142
 7694TIP3    H244498   5.096   1.238  13.728 -0.5130  1.7486 -1.0983
 7695TIP3   OH244499   1.311   2.264  15.139 -0.0982  0.3188  0.1863
 7695TIP3    H144500   1.327   2.191  15.199  0.4374  1.5615  1.6351
 7695TIP3    H244501   1.370   2.248  15.065  1.0771  0.0170  1.1550
 7696TIP3   OH244502   5.073   3.842  14.871 -0.7659  0.1125 -0.1902
 7696TIP3    H144503   5.004   3.878  14.926  0.2512  0.6063  0.8142
 7696TIP3    H244504   5.112   3.772  14.925 -0.5997 -0.2837 -0.8173
 7697TIP3   OH244505   2.523   0.302   1.540  0.3465 -0.7435 -0.3557
 7697TIP3    H144506   2.454   0.263   1.486 -0.0835  2.1461 -2.1083
 7697TIP3    H244507   2.604   0.287   1.490  0.5889 -1.5563  0.2511
 7698TIP3   OH244508   4.591   6.573   3.272 -0.0700  0.2053 -0.1494
 7698TIP3    H144509   4.655   6.547   3.338  0.4002 -0.4573 -0.8468
 7698TIP3    H244510   4.523   6.505   3.277 -0.9660  1.1377  0.8865
 7699TIP3   OH244511   5.245   3.251   1.265  0.2697  0.1165 -0.7022
 7699TIP3    H144512   5.242   3.276   1.173  0.0443 -1.5952 -1.2033
 7699TIP3    H244513   5.163   3.204   1.279  1.2040 -1.4346 -0.2043
 7700TIP3   OH244514   2.603   2.263  17.229  0.1046  0.1166 -0.2144
 7700TIP3    H144515   2.544   2.203  17.183 -0.5953 -0.3163  1.2100
 7700TIP3    H244516   2.573   2.263  17.320  2.9154 -0.9241  0.8244
 7701TIP3   OH244517   0.408   1.511  17.347  0.1445  0.7187 -0.2423
 7701TIP3    H144518   0.471   1.442  17.367 -0.2399  0.4013 -0.1205
 7701TIP3    H244519   0.385   1.547  17.433 -2.0265 -1.0974  0.0404
 7702TIP3   OH244520   1.014   3.038  16.734 -0.3652  0.0228 -0.1913
 7702TIP3    H144521   1.059   3.108  16.686 -1.9021  0.6105 -0.8560
 7702TIP3    H244522   1.080   2.969  16.743  0.5073  0.6214 -1.5737
 7703TIP3   OH244523   4.174   0.766  14.690  0.1090  0.6198  0.5490
 7703TIP3    H144524   4.112   0.747  14.619 -0.4801  0.4329  1.1013
 7703TIP3    H244525   4.230   0.689  14.695 -1.0294 -0.1806  1.4912
 7704TIP3   OH244526   1.601   0.988  12.338 -0.1224 -0.8786  0.2531
 7704TIP3    H144527   1.645   1.047  12.276  1.5800 -2.1970  0.1167
 7704TIP3    H244528   1.578   0.911  12.286  1.3187 -2.0060  1.1794
 7705TIP3   OH244529   3.349   6.183  12.564 -0.1398  0.9110  0.3574
 7705TIP3    H144530   3.271   6.191  12.509 -2.2903 -3.2213  2.2958
 7705TIP3    H244531   3.402   6.116  12.520  1.1313  1.8877  0.3510
 7706TIP3   OH244532   2.499   1.966   0.388 -0.2160  0.0082  0.0005
 7706TIP3    H144533   2.537   1.923   0.311 -1.5926  0.8962 -1.2319
 7706TIP3    H244534   2.570   2.020   0.423  0.2761  0.0287 -0.9958
 7707TIP3   OH244535   1.078   0.168   3.448 -0.4312 -0.1365 -0.1119
 7707TIP3    H144536   1.067   0.200   3.537 -0.6330  1.7005 -0.7616
 7707TIP3    H244537   1.168   0.136   3.444 -0.2456  0.2931  0.5823
 7708TIP3   OH244538   4.830   2.111  10.881 -0.0533  0.1158  0.4129
 7708TIP3    H144539   4.901   2.062  10.922 -0.8664 -0.8518  0.7066
 7708TIP3    H244540   4.750   2.073  10.918 -0.7736  0.1540 -1.0225
 7709TIP3   OH244541   5.341   0.588  16.903  0.6773  0.5960  0.0020
 7709TIP3    H144542   5.325   0.603  16.810 -0.7817  2.7007  0.5057
 7709TIP3    H244543   5.412   0.525  16.906  1.2669  1.0440 -2.5381
 7710TIP3   OH244544   0.345   0.923  16.103 -0.3638 -0.2205 -0.6983
 7710TIP3    H144545   0.367   0.877  16.184  1.5888  1.3073 -0.2840
 7710TIP3    H244546   0.369   0.862  16.033 -0.9155 -1.0769 -0.1556
 7711TIP3   OH244547   3.968   3.835  12.134 -0.2218  0.1873 -0.3366
 7711TIP3    H144548   4.061   3.847  12.115 -0.3220  0.9197 -0.3783
 7711TIP3    H244549   3.958   3.740  12.144  0.4772  0.0799 -0.5880
 7712TIP3   OH244550   3.945   1.651  10.799  0.2754 -0.1461 -0.2689
 7712TIP3    H144551   3.930   1.581  10.863  0.8620 -0.3380 -0.3402
 7712TIP3    H244552   3.888   1.627  10.725  0.4777 -0.5531 -0.2968
 7713TIP3   OH244553   3.354   1.644  17.020  0.1456  0.2625  0.2819
 7713TIP3    H144554   3.392   1.657  16.933 -0.1623 -1.5436 -0.1526
 7713TIP3    H244555   3.260   1.657  17.007  0.2256  1.2628  0.6301
 7714TIP3   OH244556   2.554   2.530   4.471  0.5970  1.1041 -0.0051
 7714TIP3    H144557   2.544   2.568   4.559  2.5172  0.8595  0.3549
 7714TIP3    H244558   2.497   2.583   4.416 -1.7791  0.3914  1.5849
 7715TIP3   OH244559   5.023   5.734   1.711 -0.4669 -0.0625 -0.5632
 7715TIP3    H144560   5.022   5.652   1.760 -0.3945 -0.1938 -0.7806
 7715TIP3    H244561   5.112   5.741   1.677 -0.4426  0.1597 -0.4547
 7716TIP3   OH244562   2.667   1.257   5.763  0.3623  0.0567  0.6401
 7716TIP3    H144563   2.701   1.188   5.706 -0.0902  0.4718 -0.1520
 7716TIP3    H244564   2.656   1.333   5.705  1.0749  0.8673  1.5434
 7717TIP3   OH244565   4.395   6.276  17.195  0.4436  0.1909  0.0091
 7717TIP3    H144566   4.388   6.184  17.221 -0.2376  0.5471  1.1913
 7717TIP3    H244567   4.315   6.293  17.147  1.3870 -0.2812 -1.8016
 7718TIP3   OH244568   4.652   4.958  12.081  0.0784  0.2465  0.2703
 7718TIP3    H144569   4.558   4.953  12.101 -0.0030  0.7087  0.0118
 7718TIP3    H244570   4.657   4.947  11.986  0.4262 -1.4647  0.4636
 7719TIP3   OH244571   5.898   3.602   0.447 -0.2616  0.2773  0.1903
 7719TIP3    H144572   5.913   3.514   0.480  0.2779  0.2529 -0.1106
 7719TIP3    H244573   5.896   3.592   0.352  1.0664  0.7614  0.0820
 7720TIP3   OH244574   5.342   2.208   5.130  0.5209 -0.1102 -0.3636
 7720TIP3    H144575   5.311   2.279   5.185 -1.5076 -0.9217 -0.3779
 7720TIP3    H244576   5.278   2.138   5.142  0.4233 -0.6107 -3.1039
 7721TIP3   OH244577   3.409   2.281   5.867  0.6994  0.0181 -0.2571
 7721TIP3    H144578   3.388   2.356   5.811 -1.9838 -0.9720 -0.7237
 7721TIP3    H244579   3.343   2.284   5.936  0.6392 -1.7961 -0.1829
 7722TIP3   OH244580   3.681   5.411   3.496 -0.1315  0.7093  0.5112
 7722TIP3    H144581   3.667   5.392   3.403  1.0704  0.8747  0.2909
 7722TIP3    H244582   3.597   5.389   3.537 -0.7725  0.9093 -0.6461
 7723TIP3   OH244583   6.612   1.864  13.093  0.2094  0.6315  0.2291
 7723TIP3    H144584   6.539   1.927  13.095  1.0136  1.5844  1.3012
 7723TIP3    H244585   6.574   1.783  13.128 -1.5906 -0.4688 -3.6892
 7724TIP3   OH244586   6.362   5.429  13.726 -0.0917 -0.3328 -0.1250
 7724TIP3    H144587   6.330   5.518  13.741 -0.0148 -0.0104 -1.6441
 7724TIP3    H244588   6.439   5.421  13.783  0.8354  1.1541 -1.0967
 7725TIP3   OH244589   5.752   4.107   5.226  0.3944 -0.4125 -0.0714
 7725TIP3    H144590   5.828   4.124   5.170  0.2699 -1.1124 -0.4555
 7725TIP3    H244591   5.736   4.013   5.218 -0.5582 -0.2629 -0.0557
 7726TIP3   OH244592   0.450   2.202   3.914  0.4801  0.2589  0.0236
 7726TIP3    H144593   0.524   2.261   3.907  1.1041 -0.2745  1.7649
 7726TIP3    H244594   0.473   2.141   3.984  0.4124 -2.8655 -2.3970
 7727TIP3   OH244595   4.951   2.969   2.323 -0.3551 -0.3355 -0.0430
 7727TIP3    H144596   5.004   3.017   2.260  0.3573 -1.0537  0.0017
 7727TIP3    H244597   4.903   2.905   2.270  0.4239 -1.0999  0.1557
 7728TIP3   OH244598   1.131   5.733   4.822 -0.7415  0.2316 -0.2563
 7728TIP3    H144599   1.184   5.768   4.751  0.7214 -0.9115  0.2183
 7728TIP3    H244600   1.190   5.730   4.897 -1.4340 -1.1417  0.2708
 7729TIP3   OH244601   5.626   0.404   5.766  0.3913 -0.2980 -0.1836
 7729TIP3    H144602   5.670   0.386   5.849 -0.1162 -1.6636 -0.1804
 7729TIP3    H244603   5.696   0.417   5.703  0.8809 -2.6690 -0.2344
 7730TIP3   OH244604   3.007   0.163   3.135  0.0288  0.5256  0.6399
 7730TIP3    H144605   2.981   0.179   3.226 -0.3366  0.3812  0.5643
 7730TIP3    H244606   2.931   0.119   3.096 -0.0517  1.1190  0.1105
 7731TIP3   OH244607   0.282   2.811  16.217 -0.0938  0.0181 -0.2241
 7731TIP3    H144608   0.285   2.900  16.182 -0.0904  0.4895  0.9469
 7731TIP3    H244609   0.346   2.762  16.165  0.3455  0.8394 -0.4625
 7732TIP3   OH244610   5.794   0.076  15.472 -0.2435 -0.5783  0.0831
 7732TIP3    H144611   5.757  -0.000  15.427 -1.0206  0.2824 -0.7977
 7732TIP3    H244612   5.832   0.041  15.552 -0.6363 -1.8823 -0.2789
 7733TIP3   OH244613   2.386   0.214   2.350  0.2857  0.3182 -0.5163
 7733TIP3    H144614   2.413   0.133   2.393  0.3592  1.5460  1.9027
 7733TIP3    H244615   2.332   0.185   2.276 -2.3674 -1.9470  2.0687
 7734TIP3   OH244616   1.969   1.651   3.551 -0.0278 -0.1946  0.2252
 7734TIP3    H144617   1.936   1.574   3.505 -0.7605 -0.0423  0.4814
 7734TIP3    H244618   2.049   1.620   3.594 -0.8810 -1.1385  1.2347
 7735TIP3   OH244619   0.715   4.885  17.103  0.7580 -0.2984 -0.6660
 7735TIP3    H144620   0.758   4.802  17.081  1.1160 -0.1795 -0.4400
 7735TIP3    H244621   0.687   4.921  17.019  0.1669 -0.8742 -0.7258
 7736TIP3   OH244622   6.183   0.117   3.663  1.1657 -0.5784  0.3205
 7736TIP3    H144623   6.146   0.205   3.653  2.5443 -0.0238 -0.1201
 7736TIP3    H244624   6.109   0.064   3.692  0.2958  0.7164  0.5938
 7737TIP3   OH244625   5.123   1.996   2.208 -0.0173 -0.0579  0.5132
 7737TIP3    H144626   5.054   1.935   2.183  1.2876 -1.0620 -0.8451
 7737TIP3    H244627   5.156   1.962   2.292 -0.6358 -0.0209  0.7753
 7738TIP3   OH244628   3.417   5.245   3.064 -0.1324 -0.2506 -0.0277
 7738TIP3    H144629   3.381   5.256   3.152 -0.2354 -0.0907 -0.0914
 7738TIP3    H244630   3.341   5.241   3.007 -0.0781 -0.6975 -0.0721
 7739TIP3   OH244631   6.572   4.613  12.436 -0.3616 -0.1757 -0.1295
 7739TIP3    H144632   6.631   4.637  12.508 -1.7459 -0.5400  1.1703
 7739TIP3    H244633   6.613   4.535  12.397  0.5327  0.1713  0.0938
 7740TIP3   OH244634   1.799   4.932   0.689  0.4244  0.2397 -0.0447
 7740TIP3    H144635   1.857   5.006   0.706  0.7375 -0.2502  1.1022
 7740TIP3    H244636   1.779   4.938   0.595  0.4711  1.7436  0.0214
 7741TIP3   OH244637   3.501   1.625  10.712  0.1349 -0.1245 -0.5088
 7741TIP3    H144638   3.553   1.686  10.660 -0.3006 -0.4549 -1.3516
 7741TIP3    H244639   3.439   1.681  10.760  0.8812  0.2232  0.0652
 7742TIP3   OH244640   1.491   2.118   3.013  0.0540 -0.5352  0.0394
 7742TIP3    H144641   1.416   2.085   2.964 -0.3674 -0.3675  0.5551
 7742TIP3    H244642   1.511   2.203   2.972  0.9791 -1.2790 -1.1223
 7743TIP3   OH244643   4.682   5.360  16.936 -0.5611 -0.3554  0.4681
 7743TIP3    H144644   4.699   5.334  16.846 -1.2315  0.5926  0.0534
 7743TIP3    H244645   4.714   5.287  16.989 -0.3478 -1.0067 -0.5440
 7744TIP3   OH244646   2.216   2.853  16.567 -0.1915 -0.0096  0.3044
 7744TIP3    H144647   2.273   2.800  16.623 -0.8380  0.5036  1.4969
 7744TIP3    H244648   2.196   2.796  16.493 -0.0054 -1.0418  1.0153
 7745TIP3   OH244649   1.549   2.043   5.776  0.7157  0.1336 -0.1481
 7745TIP3    H144650   1.572   2.122   5.727  4.0748  0.3275  1.4268
 7745TIP3    H244651   1.599   2.050   5.858  2.9036 -4.5260 -0.7629
 7746TIP3   OH244652   2.030   4.759   1.987 -0.6733  0.4790 -0.4406
 7746TIP3    H144653   2.057   4.705   1.912  1.2615  1.4378 -0.4995
 7746TIP3    H244654   1.939   4.735   2.002 -0.6936 -0.7648 -2.2113
 7747TIP3   OH244655   4.139   2.880   5.900 -0.6551 -0.1674  0.2783
 7747TIP3    H144656   4.191   2.957   5.878 -2.1283  0.9055  0.4114
 7747TIP3    H244657   4.129   2.884   5.995  1.3020 -1.9093  0.6223
 7748TIP3   OH244658   0.655   4.379   5.479  0.1355  0.3655 -0.0510
 7748TIP3    H144659   0.748   4.358   5.486 -0.5872 -3.0031  1.3939
 7748TIP3    H244660   0.642   4.452   5.539  1.2392 -1.8115  3.0924
 7749TIP3   OH244661   4.700   1.519   0.341 -0.4117 -0.4017  0.0424
 7749TIP3    H144662   4.768   1.510   0.407  0.3763 -1.0379 -0.8225
 7749TIP3    H244663   4.744   1.558   0.266 -1.1074 -0.3886 -0.3730
 7750TIP3   OH244664   2.255   3.167  15.418  0.0241 -0.1729  0.4663
 7750TIP3    H144665   2.321   3.233  15.397  0.2686  0.0058  1.7137
 7750TIP3    H244666   2.303   3.101  15.469 -0.8223  0.1356  1.6895
 7751TIP3   OH244667   6.378   1.043   1.602  0.1147 -0.6168 -0.1943
 7751TIP3    H144668   6.355   1.136   1.603  1.8004 -0.1626 -0.8284
 7751TIP3    H244669   6.452   1.036   1.663  0.0423 -1.5441 -0.1924
 7752TIP3   OH244670   1.675   0.127   5.288  0.3377  0.0262  0.0113
 7752TIP3    H144671   1.707   0.049   5.243 -0.5583  0.3269 -1.2071
 7752TIP3    H244672   1.753   0.170   5.322  0.8194 -1.5240  0.9312
 7753TIP3   OH244673   0.068   3.199   1.537  0.1497  0.1960 -0.1834
 7753TIP3    H144674   0.076   3.195   1.632 -1.1919 -1.7848 -0.0689
 7753TIP3    H244675   0.087   3.110   1.508  0.4263  0.7411 -1.7746
 7754TIP3   OH244676   6.310   3.759  15.693 -0.3610  0.6628 -0.3603
 7754TIP3    H144677   6.393   3.789  15.728 -1.4739  1.6032  1.6525
 7754TIP3    H244678   6.285   3.824  15.628  0.7673 -0.0025 -1.4969
 7755TIP3   OH244679   5.587   4.777   0.376  0.4032 -0.1309  0.0295
 7755TIP3    H144680   5.580   4.827   0.457 -0.1956  1.7623 -1.1072
 7755TIP3    H244681   5.561   4.839   0.308  1.0319 -1.6087 -1.6340
 7756TIP3   OH244682   5.131   2.706  11.474 -0.3449  0.4446 -0.0347
 7756TIP3    H144683   5.160   2.623  11.437 -1.0920 -0.3742  1.1127
 7756TIP3    H244684   5.036   2.695  11.486 -0.3870  1.2854  0.5479
 7757TIP3   OH244685   2.636   4.285  16.866  0.4357 -0.0744  0.1687
 7757TIP3    H144686   2.552   4.288  16.911  0.1404 -1.4878 -0.2223
 7757TIP3    H244687   2.636   4.362  16.809 -2.2225 -1.8574 -2.5420
 7758TIP3   OH244688   1.039   0.448  13.658  0.3720 -0.5140  0.2414
 7758TIP3    H144689   1.011   0.385  13.724 -1.3668 -0.4295 -0.3593
 7758TIP3    H244690   1.027   0.402  13.574  0.2174  0.1983 -0.1385
 7759TIP3   OH244691   4.776   3.732   5.055 -0.1141 -0.0455 -0.3184
 7759TIP3    H144692   4.697   3.702   5.101  0.2997 -1.3273 -0.4169
 7759TIP3    H244693   4.764   3.703   4.965  1.1721 -1.7433 -0.0045
 7760TIP3   OH244694   5.348   0.674  15.599  0.2378 -0.2260 -0.2037
 7760TIP3    H144695   5.309   0.617  15.665  1.0979 -0.1587  0.3659
 7760TIP3    H244696   5.407   0.617  15.550  0.0394 -0.1421 -0.5435
 7761TIP3   OH244697   4.100   5.523   1.303  0.7829 -0.3225  0.0386
 7761TIP3    H144698   4.029   5.561   1.355  0.0187 -0.9236 -0.5479
 7761TIP3    H244699   4.092   5.567   1.218  3.4833  2.4328  1.0178
 7762TIP3   OH244700   4.451   0.940  16.844 -0.4232 -0.2939  0.2319
 7762TIP3    H144701   4.403   1.023  16.843 -1.2306 -0.7470  0.5500
 7762TIP3    H244702   4.460   0.918  16.937  0.5438 -0.1461  0.1844
 7763TIP3   OH244703   2.589   1.207  17.196 -0.3133  0.2192 -0.0902
 7763TIP3    H144704   2.606   1.258  17.116  0.9043  0.9572  0.6082
 7763TIP3    H244705   2.508   1.160  17.177 -2.4512  3.5826 -0.2278
 7764TIP3   OH244706   1.765   5.374   3.972 -0.2646  0.0838 -0.3959
 7764TIP3    H144707   1.678   5.381   3.931 -0.1841 -1.0058 -0.7835
 7764TIP3    H244708   1.771   5.451   4.028 -3.0258 -1.5973  2.5436
 7765TIP3   OH244709   2.338   5.057  17.106 -0.2594 -0.4096  1.1200
 7765TIP3    H144710   2.358   5.055  17.199  0.2607  0.3886  1.0288
 7765TIP3    H244711   2.419   5.028  17.063 -0.1492  0.2456  0.8725
 7766TIP3   OH244712   0.455   4.202  13.856  0.3419 -0.8337  0.2538
 7766TIP3    H144713   0.403   4.205  13.937 -1.2009  1.8929 -0.7271
 7766TIP3    H244714   0.390   4.190  13.787  0.6376  3.6001 -1.1089
 7767TIP3   OH244715   1.478   4.451  11.670 -0.1959  0.8177  0.1168
 7767TIP3    H144716   1.399   4.498  11.642  0.7288  2.4581  0.0903
 7767TIP3    H244717   1.520   4.511  11.733  1.6907  0.5924 -0.8662
 7768TIP3   OH244718   1.233   5.456   2.559  0.4303  0.3923 -0.9117
 7768TIP3    H144719   1.197   5.544   2.547  0.8174  0.5777 -0.7361
 7768TIP3    H244720   1.299   5.466   2.628 -0.4780 -0.3079  0.0891
 7769TIP3   OH244721   1.915   0.395  14.608 -0.1779 -0.5731  0.5289
 7769TIP3    H144722   2.006   0.421  14.593  0.1896 -2.0489 -0.0780
 7769TIP3    H244723   1.881   0.377  14.520 -1.0770 -0.0048  0.7471
 7770TIP3   OH244724   2.304   4.011   4.256 -0.2540  0.3894  0.3102
 7770TIP3    H144725   2.361   4.050   4.322  0.0823 -0.4429  0.5218
 7770TIP3    H244726   2.283   3.924   4.291  0.4568 -0.3209 -0.9701
 7771TIP3   OH244727   2.633   4.332   1.879 -0.0868 -0.6744  0.3007
 7771TIP3    H144728   2.545   4.359   1.904 -0.0620  0.8432 -1.0587
 7771TIP3    H244729   2.623   4.299   1.790  0.4145 -2.4808  0.8645
 7772TIP3   OH244730   1.294   2.556  15.401  0.2649 -0.1960 -0.3899
 7772TIP3    H144731   1.369   2.542  15.459  0.9952 -1.0780 -1.5265
 7772TIP3    H244732   1.302   2.646  15.372  0.2647  0.0453  0.3235
 7773TIP3   OH244733   6.280   0.988   1.290  0.3335  0.0095  0.5440
 7773TIP3    H144734   6.345   1.017   1.354  1.7525  1.7531 -1.5547
 7773TIP3    H244735   6.236   1.068   1.262 -0.8419 -0.8129 -0.0539
 7774TIP3   OH244736   5.236   1.555  15.878  0.3238  0.4114  0.0924
 7774TIP3    H144737   5.214   1.607  15.955  1.1754 -0.8177  1.1976
 7774TIP3    H244738   5.166   1.576  15.815 -0.8438  0.8405  1.4704
 7775TIP3   OH244739   5.923   4.237   4.594 -0.4541  0.1712  0.0974
 7775TIP3    H144740   5.949   4.145   4.580 -1.0298  0.0929 -0.5267
 7775TIP3    H244741   5.998   4.276   4.639 -1.1360 -1.1603  2.5320
 7776TIP3   OH244742   1.502   4.421  11.390  0.0773 -0.6073  0.1262
 7776TIP3    H144743   1.484   4.514  11.380  0.5205 -0.6052 -0.6718
 7776TIP3    H244744   1.559   4.415  11.467 -0.5347 -0.2989  0.6136
 7777TIP3   OH244745   3.347   5.473   2.292  0.3537  0.4818 -0.1002
 7777TIP3    H144746   3.440   5.464   2.314  1.0295  2.7772 -1.6185
 7777TIP3    H244747   3.306   5.508   2.371  0.6702 -0.9338  0.7132
 7778TIP3   OH244748   3.503   2.867   6.735  1.1284  0.0578 -0.0890
 7778TIP3    H144749   3.499   2.771   6.726  0.0253  0.0680  0.2141
 7778TIP3    H244750   3.452   2.885   6.814  0.9684  0.9431 -0.3958
 7779TIP3   OH244751   0.541   1.682   1.112  0.2201 -0.1422 -0.2935
 7779TIP3    H144752   0.537   1.696   1.017  0.7258 -1.0289 -0.4588
 7779TIP3    H244753   0.463   1.629   1.131 -0.5756  1.0982  0.0018
 7780TIP3   OH244754   0.553   0.191  11.850  0.0175 -0.5542  0.5510
 7780TIP3    H144755   0.558   0.286  11.841 -0.6025 -0.3974  1.6312
 7780TIP3    H244756   0.463   0.170  11.825 -1.1142 -0.3390  3.8487
 7781TIP3   OH244757   0.796   1.427  15.270  0.4022  0.4242 -0.0001
 7781TIP3    H144758   0.781   1.382  15.353  2.4177 -2.3671 -0.9801
 7781TIP3    H244759   0.721   1.486  15.260 -0.4837  0.0177  3.2001
 7782TIP3   OH244760   6.036   3.299  16.313  0.5331 -0.3710  0.2273
 7782TIP3    H144761   6.042   3.285  16.408  3.4364  1.2592  0.4050
 7782TIP3    H244762   5.995   3.385  16.304  0.1841 -0.5615 -0.0108
 7783TIP3   OH244763   0.041   6.248  11.648 -0.2560 -0.3917 -0.2043
 7783TIP3    H144764   0.043   6.211  11.736 -2.2868 -0.6844 -0.2168
 7783TIP3    H244765   0.108   6.201  11.599  1.4084  0.2682  1.3280
 7784TIP3   OH244766   4.167   4.399   0.483 -0.4271  0.0974 -0.2514
 7784TIP3    H144767   4.101   4.398   0.552  0.2273 -1.0443  0.3933
 7784TIP3    H244768   4.142   4.327   0.425  1.4489 -1.9229  1.2486
 7785TIP3   OH244769   3.812   1.051  15.155 -0.6112  0.5041  0.6831
 7785TIP3    H144770   3.785   1.142  15.165  0.6896  1.3861 -2.4184
 7785TIP3    H244771   3.756   1.017  15.085  1.9193  0.4882 -1.5005
 7786TIP3   OH244772   5.816   4.187  12.208 -0.1794 -0.4452 -0.0267
 7786TIP3    H144773   5.784   4.099  12.188 -1.8819 -0.4372  2.2724
 7786TIP3    H244774   5.760   4.245  12.157 -0.6814 -0.6201  0.3190
 7787TIP3   OH244775   6.164   5.664  16.978  0.2456  0.5392 -0.1312
 7787TIP3    H144776   6.230   5.725  16.945  1.3927 -0.1885  0.7257
 7787TIP3    H244777   6.212   5.582  16.993 -0.4864  0.4308  2.0154
 7788TIP3   OH244778   4.342   4.628   2.738 -0.0371  0.1995  0.0947
 7788TIP3    H144779   4.395   4.556   2.773  0.8983  0.6677 -0.3283
 7788TIP3    H244780   4.253   4.609   2.768  0.3095 -0.7777  0.5459
 7789TIP3   OH244781   5.331   5.581   3.249 -0.6735  0.1512  0.6599
 7789TIP3    H144782   5.377   5.502   3.222  1.1498  1.5053 -0.4908
 7789TIP3    H244783   5.394   5.628   3.304 -1.2928  1.2613  0.4583
 7790TIP3   OH244784   2.913   6.454   2.895  0.7540  0.3556  0.0162
 7790TIP3    H144785   2.855   6.517   2.852 -2.1689 -0.7068  2.0609
 7790TIP3    H244786   2.901   6.472   2.989 -0.1259 -3.0445  0.6766
 7791TIP3   OH244787   3.491   0.940   5.488  0.3198  0.3608  0.0380
 7791TIP3    H144788   3.461   0.858   5.448 -2.9529  1.8275 -0.8701
 7791TIP3    H244789   3.470   0.930   5.581  0.9250 -0.2133  0.1177
 7792TIP3   OH244790   2.852   4.736   0.563  0.1865 -0.0368  0.0468
 7792TIP3    H144791   2.766   4.698   0.543  0.1810  0.1789 -0.3527
 7792TIP3    H244792   2.890   4.755   0.478  0.6241 -0.1086  0.2249
 7793TIP3   OH244793   2.561   3.039  11.560  0.2072  0.5676  0.3375
 7793TIP3    H144794   2.614   2.999  11.491  2.3302  2.0469  0.9826
 7793TIP3    H244795   2.476   3.056  11.519  1.3797  1.3653 -1.9354
 7794TIP3   OH244796   1.065   3.409  17.046  0.1723  0.1902 -0.4616
 7794TIP3    H144797   1.024   3.368  17.122 -1.2778  1.3618 -0.5722
 7794TIP3    H244798   1.108   3.337  17.001 -0.3551 -0.8091  0.5645
 7795TIP3   OH244799   0.063   5.861   6.094  0.3505  0.1648  0.2148
 7795TIP3    H144800  -0.000   5.817   6.150  0.7951  0.4574  0.9652
 7795TIP3    H244801   0.102   5.929   6.149 -0.3228  1.5276 -0.9082
 7796TIP3   OH244802   0.254   3.494  15.677  0.1971  0.3243 -0.2126
 7796TIP3    H144803   0.275   3.490  15.771 -0.2937 -1.5054 -0.1414
 7796TIP3    H244804   0.178   3.551  15.672 -0.1627 -0.0683  0.5905
 7797TIP3   OH244805   5.957   3.077   4.313  0.0174  0.7324  0.0038
 7797TIP3    H144806   5.921   3.161   4.341 -0.8153  0.2120  0.5308
 7797TIP3    H244807   5.912   3.012   4.367 -1.0040 -0.2359 -1.8926
 7798TIP3   OH244808   2.894   6.006   4.683  0.0391 -0.0099 -0.4027
 7798TIP3    H144809   2.881   5.977   4.774 -3.4319 -1.1384 -1.0834
 7798TIP3    H244810   2.911   5.925   4.635  0.3646  0.3816 -0.9492
 7799TIP3   OH244811   5.557   4.338   5.721 -0.3238  0.0605  0.6071
 7799TIP3    H144812   5.588   4.372   5.805  1.7839  0.9000 -0.4255
 7799TIP3    H244813   5.636   4.304   5.678 -1.0943  0.7753 -1.5418
 7800TIP3   OH244814   3.662   4.927  17.017  0.6244 -0.2105  0.1461
 7800TIP3    H144815   3.602   4.977  17.072  2.0197  0.4895  1.0786
 7800TIP3    H244816   3.749   4.953  17.046  1.4034 -2.1581 -0.2852
 7801TIP3   OH244817   5.202   3.645   4.479  0.2252  0.1598 -0.4227
 7801TIP3    H144818   5.202   3.551   4.495 -0.6220  0.1624 -0.3731
 7801TIP3    H244819   5.280   3.677   4.524 -0.5953 -0.2300  1.3872
 7802TIP3   OH244820   0.043   6.033  12.997  0.0751 -0.3369  0.0881
 7802TIP3    H144821  -0.047   6.067  12.994 -0.3786 -1.2777  1.7908
 7802TIP3    H244822   0.088   6.078  12.926 -1.5073  0.8549 -0.2125
 7803TIP3   OH244823   5.198   2.299   6.365  0.1196  0.2774  0.6865
 7803TIP3    H144824   5.174   2.348   6.443  0.1381 -0.1200  0.9445
 7803TIP3    H244825   5.163   2.211   6.380 -1.0349  0.5349 -0.3289
 7804TIP3   OH244826   5.627   1.372   1.117 -0.2284  0.8083  1.2086
 7804TIP3    H144827   5.641   1.409   1.204  0.7122  0.0742  1.3764
 7804TIP3    H244828   5.713   1.369   1.077 -0.5886  0.7200  0.4160
 7805TIP3   OH244829   3.600   4.035  11.609  0.9660 -0.1172 -0.6585
 7805TIP3    H144830   3.565   3.946  11.599 -0.2285  0.4116 -1.4881
 7805TIP3    H244831   3.617   4.044  11.703  1.9856 -1.5171 -0.6692
 7806TIP3   OH244832   1.090   0.569  11.522 -0.1007  0.2192 -0.1151
 7806TIP3    H144833   1.115   0.609  11.439  0.6164  0.2703  0.1198
 7806TIP3    H244834   1.130   0.482  11.521  0.5202  0.4872  0.4770
 7807TIP3   OH244835   4.107   6.501  12.804  0.3645  0.4456 -0.1497
 7807TIP3    H144836   4.137   6.411  12.796 -1.0908  0.0668 -1.7974
 7807TIP3    H244837   4.117   6.521  12.898  0.4231 -1.5016  0.2975
 7808TIP3   OH244838   2.984   0.540  16.062 -0.3597  0.2601  0.2408
 7808TIP3    H144839   3.060   0.488  16.035  1.5819  2.5404  0.8310
 7808TIP3    H244840   2.960   0.505  16.148 -1.2105 -1.6442 -0.7113
 7809TIP3   OH244841   5.039   0.122  13.257 -0.0396  0.1599 -0.4898
 7809TIP3    H144842   5.087   0.063  13.198 -0.7076 -1.2309  0.3240
 7809TIP3    H244843   5.104   0.148  13.322  0.0708 -0.2900 -0.4172
 7810TIP3   OH244844   5.086   2.138  13.211 -0.3936 -0.0429  0.4110
 7810TIP3    H144845   5.054   2.053  13.242 -0.4262 -0.2739 -0.2530
 7810TIP3    H244846   5.072   2.196  13.286 -1.6187 -0.3230  0.4323
 7811TIP3   OH244847   1.851   5.159   1.860 -0.1303  0.3609 -0.2415
 7811TIP3    H144848   1.809   5.140   1.943  0.8210  0.4841  0.2808
 7811TIP3    H244849   1.795   5.117   1.794 -0.5602 -0.2566  0.5093
 7812TIP3   OH244850   2.932   1.838  11.879 -0.0217 -0.6316  0.0961
 7812TIP3    H144851   2.921   1.764  11.938 -0.6269  0.9484  2.0637
 7812TIP3    H244852   3.011   1.882  11.911 -1.7025  1.6215  1.3855
 7813TIP3   OH244853   1.914   0.570  16.238  0.5699  0.4380 -0.7078
 7813TIP3    H144854   2.001   0.589  16.271 -0.0307 -1.8191  2.6499
 7813TIP3    H244855   1.870   0.655  16.236  1.5216  1.0747  1.9272
 7814TIP3   OH244856   0.539   0.847   0.846 -0.2044 -0.1429 -0.0264
 7814TIP3    H144857   0.521   0.756   0.872 -1.2966 -0.3614 -1.3642
 7814TIP3    H244858   0.493   0.856   0.762  0.7275  1.3528 -0.4071
 7815TIP3   OH244859   3.839   3.872  15.498  0.0600 -0.2139  0.4887
 7815TIP3    H144860   3.912   3.928  15.524 -0.5707 -0.3387  2.7387
 7815TIP3    H244861   3.825   3.815  15.574 -0.0758 -2.6580 -1.2755
 7816TIP3   OH244862   2.547   1.583   1.205  0.2529 -0.0258 -0.3999
 7816TIP3    H144863   2.523   1.539   1.123  0.8945 -1.0249 -0.0658
 7816TIP3    H244864   2.507   1.670   1.198  0.7701  0.1076 -2.0105
 7817TIP3   OH244865   4.852   2.840  15.358  0.3456  0.2280  0.5639
 7817TIP3    H144866   4.785   2.907  15.355  0.7237  0.5832 -0.1930
 7817TIP3    H244867   4.847   2.804  15.447 -0.3505  0.7434  0.7347
 7818TIP3   OH244868   1.539   1.076  11.891  0.4743  0.0023  0.4153
 7818TIP3    H144869   1.548   1.170  11.878  1.3465 -0.0248  0.7550
 7818TIP3    H244870   1.474   1.067  11.960 -2.1809  0.2322 -1.8602
 7819TIP3   OH244871   4.072   5.467  12.410  0.4397 -0.0575 -0.4112
 7819TIP3    H144872   4.104   5.514  12.332 -0.4560 -0.0741 -0.8055
 7819TIP3    H244873   4.070   5.375  12.383 -0.0702 -0.0395 -0.4458
 7820TIP3   OH244874   5.166   1.841  14.309  0.6874 -0.3154 -0.0013
 7820TIP3    H144875   5.078   1.807  14.328 -0.0181 -1.3566 -4.2043
 7820TIP3    H244876   5.208   1.771  14.259  2.6506  1.5017 -1.0184
 7821TIP3   OH244877   0.578   1.097  17.186  0.3629 -0.1081 -0.1753
 7821TIP3    H144878   0.525   1.175  17.200 -1.2154 -1.2431  0.4347
 7821TIP3    H244879   0.521   1.025  17.212  1.3467 -1.5632 -1.9024
 7822TIP3   OH244880   4.192   4.546   1.906 -0.2980 -0.1051  0.4691
 7822TIP3    H144881   4.277   4.537   1.949 -0.2583  0.0396  0.4216
 7822TIP3    H244882   4.172   4.640   1.910 -0.4354 -0.1328  0.4438
 7823TIP3   OH244883   5.418   2.880  15.599  0.3653  0.4940 -0.0893
 7823TIP3    H144884   5.379   2.957  15.641 -0.5162 -0.1236  0.2630
 7823TIP3    H244885   5.511   2.885  15.622  0.1859  1.0518  0.5620
 7824TIP3   OH244886   0.336   2.445   1.066 -0.2568  0.1546 -0.9711
 7824TIP3    H144887   0.244   2.442   1.092  0.1413  1.6277  0.8383
 7824TIP3    H244888   0.359   2.354   1.051 -0.9151 -0.8574  2.9245
 7825TIP3   OH244889   6.014   3.926  15.202 -0.4842 -0.3435  0.6399
 7825TIP3    H144890   6.061   3.858  15.251  0.9397 -1.0673 -1.5816
 7825TIP3    H244891   5.922   3.902  15.211  0.0010 -3.1674 -0.7357
 7826TIP3   OH244892   0.840   3.904   1.484 -0.0694  0.0186  0.1212
 7826TIP3    H144893   0.754   3.896   1.525 -0.0902 -0.6260 -0.0341
 7826TIP3    H244894   0.893   3.951   1.547 -0.4143  0.0295  0.4063
 7827TIP3   OH244895   1.245   1.346  15.863  0.0152  0.5644 -0.2456
 7827TIP3    H144896   1.315   1.297  15.819 -0.6258 -1.1594  0.5560
 7827TIP3    H244897   1.200   1.393  15.793 -0.2938 -1.2440 -1.3082
 7828TIP3   OH244898   0.346   3.254  11.524 -0.1222 -0.1138  0.1289
 7828TIP3    H144899   0.303   3.336  11.547 -0.7361 -0.1987 -0.6449
 7828TIP3    H244900   0.290   3.186  11.561 -0.1168 -0.1989 -0.0153
 7829TIP3   OH244901   0.110   2.317   3.659 -0.1414 -0.3847 -0.2247
 7829TIP3    H144902   0.122   2.231   3.699 -1.2965 -0.0813  0.8582
 7829TIP3    H244903   0.046   2.302   3.589 -2.5636 -0.0039  1.7694
 7830TIP3   OH244904   1.780   1.300   1.840  0.3865  0.1413 -0.8629
 7830TIP3    H144905   1.772   1.305   1.744  0.2189 -0.8842 -0.9083
 7830TIP3    H244906   1.752   1.211   1.862 -0.1794  0.5737  0.2092
 7831TIP3   OH244907   1.587   6.343  12.733 -0.2111 -0.3154  0.1209
 7831TIP3    H144908   1.545   6.344  12.819 -2.2528  1.6949 -0.7878
 7831TIP3    H244909   1.633   6.259  12.730  1.2339  0.1728  3.7129
 7832TIP3   OH244910   6.208   6.147   0.413  0.1224 -0.2021 -0.1556
 7832TIP3    H144911   6.166   6.061   0.406  0.6296 -0.5751  1.0407
 7832TIP3    H244912   6.286   6.141   0.358  0.0220 -0.4224 -0.2731
 7833TIP3   OH244913   0.157   4.505   1.160 -0.3128  0.2896 -0.5665
 7833TIP3    H144914   0.073   4.475   1.193  0.1271  0.1606  0.4528
 7833TIP3    H244915   0.195   4.428   1.117  0.5522 -0.5123  1.5254
 7834TIP3   OH244916   2.363   3.598   2.339 -0.6121 -0.2815  0.3681
 7834TIP3    H144917   2.454   3.623   2.324 -0.8273  1.2609  1.4147
 7834TIP3    H244918   2.346   3.529   2.274  0.3296  1.6020 -2.0205
 7835TIP3   OH244919   5.129   5.329  14.612  0.5086  0.6150 -0.9744
 7835TIP3    H144920   5.084   5.374  14.540  1.3560  1.0014 -1.2790
 7835TIP3    H244921   5.159   5.400  14.669  2.0172  0.4754 -1.5494
 7836TIP3   OH244922   2.692   2.934  14.392  0.2341  0.0068  0.3861
 7836TIP3    H144923   2.673   3.025  14.369  1.9319  0.3132  0.0708
 7836TIP3    H244924   2.644   2.882  14.328  1.3357  0.7552 -1.0850
 7837TIP3   OH244925   6.066   0.856   1.401  0.5068  0.0231  0.3413
 7837TIP3    H144926   6.133   0.887   1.340  0.8981 -0.0978  0.7157
 7837TIP3    H244927   6.005   0.807   1.346 -0.1184  1.4345 -0.2748
 7838TIP3   OH244928   2.017   2.694   4.454 -0.3232 -0.1284 -0.1687
 7838TIP3    H144929   2.095   2.726   4.498 -1.9030  1.7090  1.4779
 7838TIP3    H244930   1.997   2.761   4.389 -0.7028 -0.4563 -0.3994
 7839TIP3   OH244931   5.088   1.374   1.793  0.3809  0.1553  0.4075
 7839TIP3    H144932   5.116   1.296   1.840  0.5827  1.4944  2.7012
 7839TIP3    H244933   4.993   1.373   1.799  0.2102 -1.1590 -1.8070
 7840TIP3   OH244934   3.818   5.190  12.319  0.2215 -0.0429  0.0010
 7840TIP3    H144935   3.782   5.266  12.274  0.5084  0.3086  0.3513
 7840TIP3    H244936   3.759   5.175  12.393  0.7925  0.5602  0.6008
 7841TIP3   OH244937   3.801   5.396  13.190 -0.4584  0.2240 -0.0149
 7841TIP3    H144938   3.751   5.478  13.182 -1.7640 -0.0957  3.2564
 7841TIP3    H244939   3.882   5.422  13.233  0.5939  0.1624 -1.8436
 7842TIP3   OH244940   3.434   6.017   1.822 -0.0936  0.1123 -0.0446
 7842TIP3    H144941   3.429   5.922   1.815  2.1755  0.0540 -2.4300
 7842TIP3    H244942   3.508   6.033   1.880  0.1132  0.3978 -0.3843
 7843TIP3   OH244943   1.204   1.061   2.877  0.1885  0.4539  0.0003
 7843TIP3    H144944   1.234   0.991   2.934  0.1705 -0.0660 -0.6155
 7843TIP3    H244945   1.116   1.083   2.909  0.7081  1.1314  1.0301
 7844TIP3   OH244946   3.793   1.010   0.717 -0.0622 -0.6933 -0.7342
 7844TIP3    H144947   3.841   1.022   0.635 -0.9569  0.5471 -1.0974
 7844TIP3    H244948   3.741   0.930   0.702 -0.6847 -0.1449 -1.6213
 7845TIP3   OH244949   2.661   4.305  13.047 -0.0030  0.0200 -0.5999
 7845TIP3    H144950   2.638   4.350  12.965 -1.2692 -0.1460 -0.3583
 7845TIP3    H244951   2.589   4.244  13.061  2.2599 -3.1260 -1.6082
 7846TIP3   OH244952   3.889   5.691  16.821  0.2970 -1.2537 -0.4649
 7846TIP3    H144953   3.850   5.616  16.775 -0.0426 -1.5363  0.2780
 7846TIP3    H244954   3.833   5.705  16.897 -0.5661  0.7345 -1.3932
 7847TIP3   OH244955   5.010   3.848  10.868 -0.0818  0.1254  0.1982
 7847TIP3    H144956   4.985   3.940  10.872 -0.1227  0.2532 -1.9717
 7847TIP3    H244957   5.005   3.818  10.959 -2.3792  1.6359  0.6636
 7848TIP3   OH244958   1.768   4.864   6.281 -0.0202 -0.8380  0.1049
 7848TIP3    H144959   1.818   4.850   6.200 -1.7852 -1.0328 -0.9956
 7848TIP3    H244960   1.718   4.944   6.265  1.7735  0.8456  2.1758
 7849TIP3   OH244961   0.851   1.602  16.821 -0.3308 -0.4341  0.0627
 7849TIP3    H144962   0.783   1.568  16.763 -0.3444  0.3806 -0.4210
 7849TIP3    H244963   0.861   1.693  16.793  1.5524 -0.7618 -0.4466
 7850TIP3   OH244964   1.081   1.639  14.751  0.3493  0.0805 -0.4872
 7850TIP3    H144965   1.159   1.662  14.702  0.2638 -1.5135 -1.4568
 7850TIP3    H244966   1.017   1.612  14.684 -0.9521  1.0888  0.2972
 7851TIP3   OH244967   2.732   4.057  16.687 -0.4317 -0.2035  0.1316
 7851TIP3    H144968   2.676   4.114  16.739 -0.2405 -2.2586  2.8192
 7851TIP3    H244969   2.812   4.108  16.673 -1.2094  1.0825  0.1990
 7852TIP3   OH244970   1.754   6.536   3.427  0.1387 -0.1349  0.5600
 7852TIP3    H144971   1.842   6.501   3.438  0.3632  0.1424 -0.2477
 7852TIP3    H244972   1.738   6.530   3.333 -0.8512 -0.5236  0.7430
 7853TIP3   OH244973   3.863   2.365   0.351  0.3754  0.1098 -0.1909
 7853TIP3    H144974   3.815   2.430   0.299  0.0516 -1.6007 -2.2076
 7853TIP3    H244975   3.803   2.290   0.356  1.8611 -1.1715 -0.6419
 7854TIP3   OH244976   2.236   1.504  12.702  0.8596  0.3202 -0.0939
 7854TIP3    H144977   2.287   1.423  12.698  1.0413  0.4410 -0.2620
 7854TIP3    H244978   2.157   1.484  12.652  0.3002 -0.1752  0.9708
 7855TIP3   OH244979   6.574   0.083  11.514 -0.6136  0.3047 -0.1829
 7855TIP3    H144980   6.599   0.119  11.428 -0.2496  0.5210  0.0088
 7855TIP3    H244981   6.534   0.157  11.560 -1.7044 -0.0605 -0.5133
 7856TIP3   OH244982   0.816   2.203  15.863  0.2064 -0.2255  0.0457
 7856TIP3    H144983   0.737   2.171  15.905  0.2312 -0.3862 -0.0282
 7856TIP3    H244984   0.851   2.127  15.816  0.8015 -0.3447  0.6744
 7857TIP3   OH244985   1.511   0.783  16.393  0.0768 -0.2773 -0.1201
 7857TIP3    H144986   1.502   0.780  16.297 -0.8273 -0.3580 -0.0455
 7857TIP3    H244987   1.464   0.862  16.419  1.5144  0.5121  0.1537
 7858TIP3   OH244988   5.631   6.089   5.590  0.0003 -0.1022  0.4334
 7858TIP3    H144989   5.599   6.004   5.559 -1.3829  0.1164  1.1685
 7858TIP3    H244990   5.552   6.143   5.596  0.9870  1.5770 -1.0185
 7859TIP3   OH244991   4.378   3.281  14.069  0.2616  0.3245  0.1064
 7859TIP3    H144992   4.459   3.332  14.065  0.9184 -0.6941  0.2207
 7859TIP3    H244993   4.325   3.325  14.136  0.3717  1.4678 -0.5315
 7860TIP3   OH244994   2.131   0.029   5.482 -0.2032  0.0219 -0.3905
 7860TIP3    H144995   2.065   0.016   5.414 -1.2718 -0.3957  0.6830
 7860TIP3    H244996   2.202  -0.032   5.459 -1.2787 -1.3399 -0.2368
 7861TIP3   OH244997   0.579   2.899   2.914 -0.0143 -0.4281 -0.0135
 7861TIP3    H144998   0.655   2.863   2.961  1.2363  0.7337 -1.0291
 7861TIP3    H244999   0.596   2.879   2.822 -1.1799 -0.5310 -0.2142
 7862TIP3   OH245000   4.202   0.565   1.059 -0.4719  0.4877  0.2052
 7862TIP3    H145001   4.266   0.634   1.038  1.9154 -1.8116 -0.6735
 7862TIP3    H245002   4.178   0.528   0.974 -0.5280 -0.7313  0.7283
 7863TIP3   OH245003   2.963   5.234  14.806 -0.2047 -0.3656 -0.6895
 7863TIP3    H145004   2.996   5.188  14.728  0.5145 -1.2541  0.1016
 7863TIP3    H245005   2.973   5.327  14.785  1.3528 -0.5972 -1.1158
 7864TIP3   OH245006   6.315   2.515   1.162  0.5474  0.2811  0.1109
 7864TIP3    H145007   6.243   2.578   1.171  0.2775 -0.2990  3.0892
 7864TIP3    H245008   6.382   2.547   1.221  1.9420 -0.3122 -1.0988
 7865TIP3   OH245009   3.843   3.639   5.081  0.3856  0.6478  0.3701
 7865TIP3    H145010   3.786   3.607   5.011  0.5889 -1.8172  1.2043
 7865TIP3    H245011   3.785   3.690   5.138 -2.0401 -4.0161  2.7311
 7866TIP3   OH245012   6.437   0.975   4.895  0.1670 -0.3299 -0.3225
 7866TIP3    H145013   6.406   0.888   4.920  0.6998 -0.4097  0.0795
 7866TIP3    H245014   6.520   0.960   4.850  1.3239  0.0843  1.5742
 7867TIP3   OH245015   0.570   2.646  13.364 -0.2741 -0.1418 -0.2763
 7867TIP3    H145016   0.660   2.661  13.392  0.0471 -2.7372  0.3675
 7867TIP3    H245017   0.577   2.591  13.286 -1.2883 -0.8497  0.1040
 7868TIP3   OH245018   1.510   5.931   5.303  0.3880 -0.5080 -0.1329
 7868TIP3    H145019   1.522   5.891   5.389 -0.9516 -0.4362  0.0972
 7868TIP3    H245020   1.533   6.023   5.316  1.8817 -0.8175 -0.2894
 7869TIP3   OH245021   3.296   6.168  16.100  0.0101  0.4973 -0.5764
 7869TIP3    H145022   3.354   6.238  16.129 -1.9599  1.1576  2.1011
 7869TIP3    H245023   3.355   6.102  16.064  2.2068  2.0308  0.0025
 7870TIP3   OH245024   2.471   4.756  14.341 -0.2946 -0.6601  0.5569
 7870TIP3    H145025   2.380   4.774  14.364 -0.5115 -1.4302  0.3399
 7870TIP3    H245026   2.487   4.807  14.262 -0.4443 -0.2977  0.7553
 7871TIP3   OH245027   0.522   5.645   1.826 -0.1522 -0.2364 -0.0579
 7871TIP3    H145028   0.547   5.661   1.917 -0.4850  0.5824 -0.0994
 7871TIP3    H245029   0.428   5.661   1.823 -0.3093 -1.1881 -0.3554
 7872TIP3   OH245030   5.480   5.708  13.419 -0.4794 -0.5666 -0.0376
 7872TIP3    H145031   5.492   5.634  13.360 -1.8816 -0.4511 -0.4950
 7872TIP3    H245032   5.419   5.766  13.374 -0.4830  0.2077  0.9177
 7873TIP3   OH245033   0.603   5.317  15.418 -0.5315 -0.1467  0.6588
 7873TIP3    H145034   0.526   5.269  15.448 -0.8063  1.0673  2.0326
 7873TIP3    H245035   0.652   5.337  15.498  0.1705  0.8154  0.0164
 7874TIP3   OH245036   2.194   2.732   4.020 -0.3196 -0.2224 -0.1485
 7874TIP3    H145037   2.203   2.689   4.105 -0.2736 -0.9347 -0.5041
 7874TIP3    H245038   2.183   2.660   3.958  2.2826  0.1086 -1.1004
 7875TIP3   OH245039   4.379   0.236  16.801  0.2162  0.8417 -0.1427
 7875TIP3    H145040   4.385   0.330  16.781  0.4885  0.9163  0.2846
 7875TIP3    H245041   4.297   0.209  16.760  0.8343  0.9503 -1.5026
 7876TIP3   OH245042   5.739   2.694  12.010  0.2958  0.5314 -0.5867
 7876TIP3    H145043   5.714   2.749  12.085 -1.1881 -1.9737  0.8890
 7876TIP3    H245044   5.772   2.613  12.049 -0.1922 -0.7367 -2.6305
 7877TIP3   OH245045   2.695   3.030   0.786 -0.3525 -0.6790 -0.2314
 7877TIP3    H145046   2.778   3.012   0.743  0.2128  0.2087  0.4546
 7877TIP3    H245047   2.629   2.992   0.728  0.4268 -0.0286 -1.5825
 7878TIP3   OH245048   6.592   4.088  12.617  0.1211  0.3348  0.9267
 7878TIP3    H145049   6.551   4.122  12.696  0.6271 -1.9371  2.2811
 7878TIP3    H245050   6.537   4.013  12.591  0.0334  0.9501 -0.8358
 7879TIP3   OH245051   6.491   1.408   2.229 -0.1794  0.5015  0.3595
 7879TIP3    H145052   6.417   1.429   2.285 -0.6619 -1.8112  0.7156
 7879TIP3    H245053   6.568   1.419   2.286 -0.7107 -2.8031  2.0225
 7880TIP3   OH245054   4.584   1.204   5.925 -0.1299  0.1249 -0.0430
 7880TIP3    H145055   4.624   1.291   5.930  2.2809 -0.8610 -0.9105
 7880TIP3    H245056   4.519   1.211   5.855  0.7677  0.9709 -0.8120
 7881TIP3   OH245057   3.030   1.792  13.434 -0.1284  0.0135 -0.5971
 7881TIP3    H145058   3.030   1.817  13.342 -0.5483  1.3894 -0.2579
 7881TIP3    H245059   3.122   1.793  13.459  0.0538 -1.1557 -1.1866
 7882TIP3   OH245060   3.888   4.036  14.102 -0.0919 -0.0318 -0.1739
 7882TIP3    H145061   3.824   4.018  14.033 -0.5270  0.4098  0.1080
 7882TIP3    H245062   3.907   3.950  14.140 -0.0606 -0.2387 -0.6590
 7883TIP3   OH245063   0.473   1.076   5.106  0.1843  0.4606  0.3337
 7883TIP3    H145064   0.381   1.101   5.100  0.4026  1.0161 -1.0633
 7883TIP3    H245065   0.495   1.045   5.018  1.2880  0.1636  0.6969
 7884TIP3   OH245066   0.854   0.970  17.038 -0.3721 -0.0809  0.7972
 7884TIP3    H145067   0.831   1.046  17.091  0.6242  1.1754 -0.5081
 7884TIP3    H245068   0.861   0.899  17.102 -0.8009  1.0112  2.1283
 7885TIP3   OH245069   2.870   6.489   4.374 -0.1469 -0.4040  0.1049
 7885TIP3    H145070   2.829   6.444   4.301 -2.8850  2.7334 -0.5317
 7885TIP3    H245071   2.817   6.466   4.450 -0.0072 -0.2326  0.2561
 7886TIP3   OH245072   4.488   0.479  16.707 -0.0355 -0.0435 -0.1788
 7886TIP3    H145073   4.449   0.566  16.710  1.6123  0.6921  0.8388
 7886TIP3    H245074   4.574   0.489  16.746 -0.1504 -2.3369  0.8252
 7887TIP3   OH245075   3.597   2.054  13.249  0.4777 -0.1629 -0.0816
 7887TIP3    H145076   3.522   1.997  13.269  1.5439 -0.7090  2.9353
 7887TIP3    H245077   3.570   2.140  13.282  0.6989 -0.0501 -0.1975
 7888TIP3   OH245078   6.086   4.004  17.325 -0.4086 -0.3047 -0.2638
 7888TIP3    H145079   6.069   4.077  17.265 -0.8539  0.4113  0.6948
 7888TIP3    H245080   6.139   4.043  17.395  2.0451 -1.6317 -1.2634
 7889TIP3   OH245081   3.683   0.313   0.324 -0.5910  0.2387 -1.0373
 7889TIP3    H145082   3.601   0.307   0.374 -1.2328  1.2583 -1.9002
 7889TIP3    H245083   3.692   0.227   0.283 -1.7726  0.3947 -1.6905
 7890TIP3   OH245084   2.486   0.850  13.216  0.4031 -0.7870  0.1303
 7890TIP3    H145085   2.407   0.904  13.221  1.2237  0.4028  0.9459
 7890TIP3    H245086   2.488   0.818  13.126  0.2411  1.1517 -0.6143
 7891TIP3   OH245087   4.120   3.408  16.794 -0.3239  0.4241 -0.1242
 7891TIP3    H145088   4.062   3.343  16.753  0.7857 -0.5746 -0.1743
 7891TIP3    H245089   4.172   3.357  16.856 -0.8186  1.6391  1.3255
 7892TIP3   OH245090   3.655   0.761  11.692 -0.4751  0.3972  0.0207
 7892TIP3    H145091   3.654   0.779  11.598 -0.5563  0.2628 -0.0042
 7892TIP3    H245092   3.582   0.702  11.706  0.4501 -0.8118 -0.0748
 7893TIP3   OH245093   3.463   3.391   1.451 -0.1131  0.1866 -0.0543
 7893TIP3    H145094   3.519   3.428   1.519  1.5166 -0.1486 -1.1609
 7893TIP3    H245095   3.504   3.308   1.427 -0.9544  0.0336 -1.0734
 7894TIP3   OH245096   0.950   4.853   2.204  0.1531  0.3219 -0.2582
 7894TIP3    H145097   0.970   4.920   2.269  0.4208  0.0870 -0.0946
 7894TIP3    H245098   1.035   4.829   2.166 -0.1574  1.6098 -1.8619
 7895TIP3   OH245099   0.577   5.068   4.634  0.5723  0.3200 -0.2628
 7895TIP3    H145100   0.574   5.099   4.544  1.7432  0.1040 -0.3970
 7895TIP3    H245101   0.581   4.972   4.626  2.8734  0.3461 -0.1032
 7896TIP3   OH245102   0.398   6.054  13.082 -0.1871  0.2506 -0.7044
 7896TIP3    H145103   0.390   6.127  13.021  0.5164  0.6491 -0.3380
 7896TIP3    H245104   0.390   5.976  13.027 -2.4343  0.5681 -0.9012
 7897TIP3   OH245105   2.710   6.659  13.876  0.2486  0.0538 -0.3375
 7897TIP3    H145106   2.693   6.614  13.959 -2.1289 -1.3891 -1.4872
 7897TIP3    H245107   2.685   6.750  13.892 -0.0227 -0.1682  0.5566
 7898TIP3   OH245108   3.011   2.805  13.850  0.0199 -0.0472  0.9013
 7898TIP3    H145109   2.925   2.840  13.826 -0.4057 -1.4033  0.3293
 7898TIP3    H245110   3.073   2.870  13.817 -0.7277  0.1562 -0.1797
 7899TIP3   OH245111   3.978   3.553   0.864 -0.7117 -0.0201 -0.5218
 7899TIP3    H145112   4.024   3.589   0.788  2.7595 -1.7132  0.5722
 7899TIP3    H245113   4.005   3.608   0.938  1.7719 -2.4534  0.5550
 7900TIP3   OH245114   3.062   1.832  15.539  0.4274 -0.1414 -0.5316
 7900TIP3    H145115   3.107   1.916  15.545 -1.6106  0.9551  0.9027
 7900TIP3    H245116   2.976   1.853  15.502  0.2850 -1.7917 -1.2482
 7901TIP3   OH245117   5.467   2.681  16.579  0.0217 -0.2131  0.2558
 7901TIP3    H145118   5.375   2.675  16.552  0.2267 -0.0758 -0.4899
 7901TIP3    H245119   5.516   2.687  16.497  0.6409  0.5985  0.6757
 7902TIP3   OH245120   3.781   2.095  14.217 -0.3920  0.2695 -0.4644
 7902TIP3    H145121   3.767   2.160  14.149 -0.2224  1.6348  0.7679
 7902TIP3    H245122   3.713   2.112  14.282  0.8243  0.5256  0.8026
 7903TIP3   OH245123   3.647   6.026   6.005  0.3797 -0.6449  0.1746
 7903TIP3    H145124   3.691   6.109   6.024 -0.1842  0.3082 -2.3121
 7903TIP3    H245125   3.597   6.006   6.084  0.2396  1.5838  0.7098
 7904TIP3   OH245126   3.212   1.971   0.414 -0.1368 -0.5950 -0.2910
 7904TIP3    H145127   3.178   1.937   0.331  0.0573  0.7672 -0.9490
 7904TIP3    H245128   3.223   1.893   0.468 -1.0008 -1.4314 -1.2668
 7905TIP3   OH245129   1.322   1.052  12.045  0.1089 -0.0577  0.0445
 7905TIP3    H145130   1.256   1.102  11.997 -0.2440  0.6414  1.2260
 7905TIP3    H245131   1.272   0.998  12.106  0.5783 -0.4640  0.0755
 7906TIP3   OH245132   5.057   2.217  11.410  0.6782  0.2029 -0.5751
 7906TIP3    H145133   4.962   2.206  11.418  0.6645 -0.6936 -1.6786
 7906TIP3    H245134   5.094   2.147  11.463  0.6814 -0.6123 -1.6205
 7907TIP3   OH245135   2.723   4.635  15.345  0.4460  0.1986 -0.1093
 7907TIP3    H145136   2.808   4.591  15.334  0.4792  0.7110 -2.4080
 7907TIP3    H245137   2.671   4.604  15.271 -1.8168 -0.9540  1.8290
 7908TIP3   OH245138   1.180   0.645   1.867 -0.4326 -0.3466  0.4082
 7908TIP3    H145139   1.085   0.634   1.862 -0.4725  0.4041 -1.4558
 7908TIP3    H245140   1.213   0.562   1.901 -1.6918 -0.9191  0.2681
 7909TIP3   OH245141   5.011   4.504   1.973  0.1794 -0.4756  0.3130
 7909TIP3    H145142   4.951   4.486   2.044 -1.0681  2.2386  0.0734
 7909TIP3    H245143   4.958   4.497   1.894  0.6591  0.0201 -0.0604
 7910TIP3   OH245144   3.727   5.025   6.838 -0.2526 -0.2267  0.3413
 7910TIP3    H145145   3.789   5.097   6.828 -1.7670  1.0158 -0.4628
 7910TIP3    H245146   3.768   4.951   6.794 -0.8554  1.5535 -3.5649
 7911TIP3   OH245147   6.691   4.243   0.427  0.1198  0.4007 -0.3381
 7911TIP3    H145148   6.705   4.216   0.518 -1.9011 -1.4499 -0.5080
 7911TIP3    H245149   6.630   4.179   0.392  1.9940  0.1261 -3.5005
 7912TIP3   OH245150   2.828   5.314  15.536  0.2024 -0.3038  0.1288
 7912TIP3    H145151   2.812   5.269  15.620 -0.4173 -4.3011 -1.8601
 7912TIP3    H245152   2.741   5.323  15.498  0.4222  2.0019  0.0482
 7913TIP3   OH245153   5.537   0.144  17.334 -0.7170 -0.1164  0.1502
 7913TIP3    H145154   5.495   0.230  17.343 -0.5853 -0.1237  0.8539
 7913TIP3    H245155   5.580   0.129  17.417 -0.8278 -0.9197  0.0741
 7914TIP3   OH245156   6.270   2.678  14.794 -0.5909  0.5864 -0.2844
 7914TIP3    H145157   6.240   2.768  14.781  0.0086  0.7576 -0.5330
 7914TIP3    H245158   6.189   2.626  14.797 -0.9089  0.7065 -3.3285
 7915TIP3   OH245159   4.765   3.741  17.041 -0.1952 -0.4645  0.3051
 7915TIP3    H145160   4.699   3.793  17.086 -0.4817 -1.4353  1.0340
 7915TIP3    H245161   4.847   3.789  17.055 -0.6414  0.4141 -0.0711
 7916TIP3   OH245162   4.227   2.404   0.871 -0.0411 -0.9801  0.7681
 7916TIP3    H145163   4.250   2.399   0.963  2.0109 -0.3056  0.3438
 7916TIP3    H245164   4.184   2.489   0.861 -2.2587 -1.9587  1.4455
 7917TIP3   OH245165   0.856   3.297  16.305  0.0127  0.1067 -0.2046
 7917TIP3    H145166   0.924   3.336  16.359 -0.0761 -0.3285  0.2275
 7917TIP3    H245167   0.848   3.356  16.230 -0.3014  1.0700  0.5605
 7918TIP3   OH245168   1.399   1.099  15.367  0.1845  0.4351 -0.1925
 7918TIP3    H145169   1.363   1.114  15.279  0.5121  0.0480 -0.3948
 7918TIP3    H245170   1.412   1.187  15.402 -0.9413  0.5918 -0.1130
 7919TIP3   OH245171   6.238   4.054  11.599  0.3081  0.3217  0.1985
 7919TIP3    H145172   6.236   4.109  11.521  1.2993  0.9822  0.6242
 7919TIP3    H245173   6.158   4.075  11.646 -0.6819 -0.6382 -1.0004
 7920TIP3   OH245174   6.105   6.721   1.457 -0.9709 -0.4308 -0.1704
 7920TIP3    H145175   6.052   6.715   1.377  0.3406  0.7336 -1.1862
 7920TIP3    H245176   6.102   6.814   1.479 -1.8845 -0.8420  1.5731
 7921TIP3   OH245177   1.110   0.941   5.695 -0.0900 -0.1354  0.1794
 7921TIP3    H145178   1.163   0.985   5.762 -0.5573  0.0367  0.4408
 7921TIP3    H245179   1.091   0.855   5.733  1.6799 -0.9879 -0.7524
 7922TIP3   OH245180   1.364   1.528  16.621 -0.0517  0.1737  0.3162
 7922TIP3    H145181   1.313   1.521  16.541 -1.8451 -1.0700  1.4750
 7922TIP3    H245182   1.314   1.478  16.686  3.5348 -2.7910  1.1555
 7923TIP3   OH245183   2.855   0.334  16.838 -0.0409  0.5154  0.1886
 7923TIP3    H145184   2.906   0.369  16.766  1.0306 -0.3472  0.4974
 7923TIP3    H245185   2.765   0.361  16.819  0.4317  1.5663 -0.6710
 7924TIP3   OH245186   0.172   0.743   5.552 -0.2363  0.2769  0.0952
 7924TIP3    H145187   0.236   0.698   5.607  0.1169 -0.5906 -0.9844
 7924TIP3    H245188   0.220   0.766   5.472 -0.9956  0.5478 -0.2998
 7925TIP3   OH245189   0.873   6.000  11.446 -0.1650  0.0543  0.0168
 7925TIP3    H145190   0.855   5.907  11.463  0.0402 -0.4337 -2.1415
 7925TIP3    H245191   0.872   6.008  11.351  3.4867  1.5143 -0.0778
 7926TIP3   OH245192   3.698   5.624   3.276 -0.2108 -0.2180  0.6917
 7926TIP3    H145193   3.770   5.666   3.324 -0.1267  1.2055 -0.5934
 7926TIP3    H245194   3.626   5.687   3.281  0.1685  0.5854 -1.9585
 7927TIP3   OH245195   4.288   0.417  12.377 -0.2643  0.1074  0.1114
 7927TIP3    H145196   4.341   0.387  12.450  1.1453 -1.1107 -1.3521
 7927TIP3    H245197   4.232   0.485  12.415  0.6843 -0.2003  2.2125
 7928TIP3   OH245198   4.654   3.557   0.232 -0.0957  0.3173  0.4536
 7928TIP3    H145199   4.580   3.611   0.203  0.3549  0.2808 -0.8546
 7928TIP3    H245200   4.659   3.571   0.326 -3.4175 -1.7458  1.0845
 7929TIP3   OH245201   5.559   0.223  16.036  0.0070  0.2267  0.0031
 7929TIP3    H145202   5.502   0.205  15.962 -1.4247  2.3282  0.5048
 7929TIP3    H245203   5.500   0.228  16.111  1.5041 -2.7625  1.5752
 7930TIP3   OH245204   2.127   5.365   0.516  0.2492  0.2739  0.4073
 7930TIP3    H145205   2.142   5.271   0.501 -1.8485 -0.2042  1.0390
 7930TIP3    H245206   2.127   5.375   0.611 -1.7387  0.4642  0.4275
 7931TIP3   OH245207   5.031   0.610   4.266  0.0504 -0.1425  0.7317
 7931TIP3    H145208   5.036   0.705   4.264  0.8513 -0.1895  0.0400
 7931TIP3    H245209   5.119   0.581   4.289 -0.1897 -0.7206  0.9677
 7932TIP3   OH245210   6.645   6.658  14.109 -0.4388 -0.7166  0.4232
 7932TIP3    H145211   6.666   6.586  14.051  3.7313  0.0213  0.7169
 7932TIP3    H245212   6.616   6.728  14.051  1.8162 -0.6112 -0.6894
 7933TIP3   OH245213   0.001   3.165  14.344 -0.4511  0.4602 -0.5382
 7933TIP3    H145214  -0.063   3.234  14.363 -0.1512  0.7257 -0.4769
 7933TIP3    H245215  -0.038   3.115  14.272 -0.3048  1.2038 -1.1530
 7934TIP3   OH245216   6.274   0.269   0.138  0.2915  0.4854 -0.2500
 7934TIP3    H145217   6.208   0.241   0.074 -0.7554  0.1829  0.9035
 7934TIP3    H245218   6.278   0.364   0.129 -1.1767  0.6427  0.4185
 7935TIP3   OH245219   2.281   2.303  13.196  0.0492 -0.3401 -0.4228
 7935TIP3    H145220   2.226   2.288  13.273  0.7954  0.6945  0.3553
 7935TIP3    H245221   2.273   2.223  13.144 -1.3583 -0.6158  0.1670
 7936TIP3   OH245222   2.461   2.529   4.071 -0.2062 -0.1126 -0.2457
 7936TIP3    H145223   2.423   2.536   4.158  2.0382  0.7547  0.7380
 7936TIP3    H245224   2.510   2.447   4.072 -0.8683 -0.5372 -1.0242
 7937TIP3   OH245225   1.737   4.696  15.202 -0.4197 -0.1006  0.6357
 7937TIP3    H145226   1.748   4.788  15.227 -0.6273 -0.2028  1.1200
 7937TIP3    H245227   1.737   4.697  15.106  1.1929  0.2162  0.5986
 7938TIP3   OH245228   4.488   1.510  13.758 -0.4098 -0.0869  0.1497
 7938TIP3    H145229   4.465   1.587  13.707  1.6356  0.0384 -0.6776
 7938TIP3    H245230   4.507   1.442  13.694  1.3607 -0.1802  0.7041
 7939TIP3   OH245231   3.485   4.207   0.269  0.3195  0.2327  0.1603
 7939TIP3    H145232   3.453   4.278   0.325 -0.9491  0.6138 -0.9840
 7939TIP3    H245233   3.570   4.237   0.238  1.9971 -0.8186  3.3291
 7940TIP3   OH245234   0.956   6.245  10.981  0.1859  0.5396 -0.2467
 7940TIP3    H145235   0.971   6.339  10.970  2.2173  0.2051 -0.7689
 7940TIP3    H245236   1.015   6.219  11.051 -0.0637 -0.4249 -0.3747
 7941TIP3   OH245237   1.128   4.366  13.461 -0.0400  0.4869  0.2715
 7941TIP3    H145238   1.101   4.280  13.494 -0.3757  1.1429  1.7872
 7941TIP3    H245239   1.185   4.401  13.530  2.2770  0.4093 -1.4885
 7942TIP3   OH245240   3.539   1.199   0.091 -0.0361  0.3815 -0.1735
 7942TIP3    H145241   3.527   1.291   0.067  0.1292  0.9877  1.8608
 7942TIP3    H245242   3.635   1.187   0.093 -0.0567  0.1632 -0.4511
 7943TIP3   OH245243   5.645   0.321   1.460  0.1579  0.1091  0.0053
 7943TIP3    H145244   5.578   0.271   1.507  0.3101  0.6678  0.8419
 7943TIP3    H245245   5.601   0.351   1.381 -0.9893  1.4642  1.0981
 7944TIP3   OH245246   4.923   3.539  16.321 -0.7319  0.3002  0.6209
 7944TIP3    H145247   5.008   3.522  16.282 -1.9501 -1.3941 -1.5101
 7944TIP3    H245248   4.913   3.473  16.389 -0.2025  0.8074  1.2140
 7945TIP3   OH245249   3.902   6.024  15.275  0.0911  0.5876 -0.2907
 7945TIP3    H145250   3.983   5.991  15.313  0.9312  3.0840  0.3023
 7945TIP3    H245251   3.868   5.951  15.223  2.9499 -0.4103 -0.9635
 7946TIP3   OH245252   6.267   2.948   6.030 -0.3274 -0.3344 -0.4133
 7946TIP3    H145253   6.178   2.984   6.036 -0.4405 -0.5835 -0.5902
 7946TIP3    H245254   6.324   3.023   6.048 -0.5130  0.3400 -2.4417
 7947TIP3   OH245255   2.361   2.489   1.656  0.8267  0.2893  0.3804
 7947TIP3    H145256   2.275   2.478   1.697  1.2984  0.8455  1.5719
 7947TIP3    H245257   2.354   2.572   1.608  0.6818  0.3058  0.4299
 7948TIP3   OH245258   2.885   2.701  12.153  0.3212 -0.3991 -0.1453
 7948TIP3    H145259   2.963   2.671  12.107  0.5951 -0.9681  0.6769
 7948TIP3    H245260   2.916   2.774  12.207 -0.2602  1.1852 -1.8238
 7949TIP3   OH245261   1.804   4.940   5.716 -0.6469  0.0271 -0.0748
 7949TIP3    H145262   1.710   4.928   5.708 -0.6036 -0.7363  0.4946
 7949TIP3    H245263   1.842   4.856   5.692 -0.0455  0.6248 -1.2920
 7950TIP3   OH245264   4.515   1.325   4.899  0.1479 -0.0001 -0.4664
 7950TIP3    H145265   4.481   1.301   4.813  1.7775  0.4284 -1.2664
 7950TIP3    H245266   4.480   1.412   4.916  0.2132  0.1197 -0.9333
 7951TIP3   OH245267   1.142   6.307  15.202  0.1012  0.1722  0.2208
 7951TIP3    H145268   1.173   6.242  15.139  1.6434  2.6545 -1.7730
 7951TIP3    H245269   1.059   6.337  15.167  0.8322  1.3667 -0.5483
 7952TIP3   OH245270   0.537   3.920  13.640 -0.0368  0.5580  0.1167
 7952TIP3    H145271   0.567   3.999  13.685  0.3693  1.5378 -1.7546
 7952TIP3    H245272   0.614   3.864  13.635  0.0180  0.6191  0.2667
 7953TIP3   OH245273   3.905   4.687   6.558 -0.8418 -0.3817 -0.4452
 7953TIP3    H145274   3.846   4.677   6.484 -0.3060  0.2801 -0.9783
 7953TIP3    H245275   3.951   4.604   6.565  1.9225  0.6664 -3.3500
 7954TIP3   OH245276   2.014   6.098   3.516  0.2377  0.0715  0.9211
 7954TIP3    H145277   1.995   6.009   3.545 -0.0952 -0.3834 -0.6508
 7954TIP3    H245278   2.100   6.092   3.476  0.6068  0.6615  1.5940
 7955TIP3   OH245279   6.279   5.760   3.603 -0.2008  0.5683 -0.6335
 7955TIP3    H145280   6.295   5.666   3.589 -0.9543  0.4902 -1.0303
 7955TIP3    H245281   6.202   5.762   3.661  1.5778  0.9161  1.8610
 7956TIP3   OH245282   4.984   3.308  12.238 -0.5331  0.0505  0.1899
 7956TIP3    H145283   5.041   3.320  12.314  0.0093  1.3399 -0.3829
 7956TIP3    H245284   5.020   3.233  12.192 -1.0502 -0.9400  1.3465
 7957TIP3   OH245285   1.478   4.144   0.132 -0.5543  0.0577 -0.0053
 7957TIP3    H145286   1.497   4.216   0.192 -1.0368  1.8442 -1.8854
 7957TIP3    H245287   1.385   4.124   0.148 -0.2428 -0.6741  1.0072
 7958TIP3   OH245288   0.913   5.810   2.439 -0.3768 -0.3088  0.2550
 7958TIP3    H145289   0.924   5.840   2.349  0.4661 -0.1341  0.4119
 7958TIP3    H245290   0.828   5.845   2.466 -0.0382  0.7622 -0.0326
 7959TIP3   OH245291   3.008   6.399  13.599 -0.3216 -0.3597  0.3833
 7959TIP3    H145292   3.075   6.458  13.564 -0.4355 -0.2637  0.3243
 7959TIP3    H245293   2.939   6.400  13.533 -1.6195  1.7122  1.6753
 7960TIP3   OH245294   5.981   6.051   4.043  0.0271 -0.3597 -0.1042
 7960TIP3    H145295   6.016   6.103   4.115 -0.8857 -0.1024  0.1759
 7960TIP3    H245296   6.021   6.088   3.964  0.0260  0.2238  0.1653
 7961TIP3   OH245297   5.044   2.056   0.282 -0.4520 -0.0503 -0.6233
 7961TIP3    H145298   5.086   2.140   0.263  0.1426 -0.3949 -0.8525
 7961TIP3    H245299   5.052   2.046   0.377 -1.3240  0.5666 -0.4755
 7962TIP3   OH245300   0.289   0.643  11.268  0.2786  0.2250  0.4049
 7962TIP3    H145301   0.357   0.693  11.315  0.5038  0.9200 -0.6329
 7962TIP3    H245302   0.283   0.685  11.182  0.3618 -1.4514 -0.4585
 7963TIP3   OH245303   6.732   2.761  13.557  0.0786  0.2842  0.3885
 7963TIP3    H145304   6.766   2.758  13.468 -0.5734  1.3858  0.0760
 7963TIP3    H245305   6.660   2.825  13.553  0.3507  0.7246  1.7987
 7964TIP3   OH245306   1.668   0.767  16.632  0.2477  0.2054  0.3279
 7964TIP3    H145307   1.731   0.825  16.590  0.2617 -0.6792 -0.9057
 7964TIP3    H245308   1.595   0.762  16.570  0.8365 -2.1664 -0.2454
 7965TIP3   OH245309   2.940   2.880  15.186  0.2381  0.1250 -0.2696
 7965TIP3    H145310   2.886   2.957  15.207  0.3174 -0.2603  1.5990
 7965TIP3    H245311   3.029   2.914  15.178  0.3026  0.2315  0.7473
 7966TIP3   OH245312   4.980   3.744  13.465  0.1218  0.0236  0.0641
 7966TIP3    H145313   5.016   3.817  13.515 -1.4680  0.3509  0.8029
 7966TIP3    H245314   4.893   3.730  13.503  0.2703 -2.0686 -0.2642
 7967TIP3   OH245315   6.269   2.583   3.654 -0.4794 -0.1378 -0.3258
 7967TIP3    H145316   6.292   2.663   3.700  0.8972 -0.2202 -0.8441
 7967TIP3    H245317   6.347   2.529   3.658 -0.9506 -0.9176 -1.1356
 7968TIP3   OH245318   1.667   0.460  14.102 -0.7726 -0.4932  0.2860
 7968TIP3    H145319   1.598   0.455  14.036 -0.6024  0.7722 -0.0012
 7968TIP3    H245320   1.626   0.429  14.182 -1.3005 -0.9673 -0.1601
 7969TIP3   OH245321   4.786   4.702   4.456 -0.4670  0.3662 -0.4147
 7969TIP3    H145322   4.735   4.642   4.401  1.3179 -2.0200  0.3504
 7969TIP3    H245323   4.749   4.693   4.543  0.3430 -0.3043 -0.1312
 7970TIP3   OH245324   5.638   2.830  13.396  0.6976 -0.0329  0.3284
 7970TIP3    H145325   5.578   2.898  13.428  1.1520  0.3665  0.3598
 7970TIP3    H245326   5.682   2.799  13.475  0.5228 -0.3363  0.3082
 7971TIP3   OH245327   5.645   3.968  13.999  0.0137  0.1580 -0.1260
 7971TIP3    H145328   5.661   4.045  13.945 -1.3791 -0.7980 -2.0289
 7971TIP3    H245329   5.649   3.894  13.938  0.3679 -1.1931  1.4616
 7972TIP3   OH245330   6.539   2.369  13.058  0.2080  0.4112  0.2106
 7972TIP3    H145331   6.631   2.383  13.040  0.2607 -1.1264 -0.9572
 7972TIP3    H245332   6.494   2.399  12.979 -0.2607  0.6884  0.5756
 7973TIP3   OH245333   5.943   6.250  12.007 -0.1378 -0.7067  1.1941
 7973TIP3    H145334   5.893   6.211  12.080  0.3140 -1.1252  1.2859
 7973TIP3    H245335   6.034   6.242  12.034  0.0701 -1.4329  0.3100
 7974TIP3   OH245336   3.611   6.044  11.896  0.2490 -0.2704  0.3424
 7974TIP3    H145337   3.694   6.052  11.942  1.0320 -2.4591 -0.5428
 7974TIP3    H245338   3.582   6.134  11.881  2.5926  0.5488  0.4153
 7975TIP3   OH245339   4.547   5.816   0.089 -0.3313  0.9738  0.5203
 7975TIP3    H145340   4.481   5.823   0.158 -1.5475  1.6040 -0.6600
 7975TIP3    H245341   4.499   5.784   0.013  1.1248 -0.4081  0.1412
 7976TIP3   OH245342   1.477   6.231   3.412 -0.0810 -0.0759 -0.4816
 7976TIP3    H145343   1.546   6.242   3.478  0.6958  1.0085 -1.4351
 7976TIP3    H245344   1.451   6.139   3.419 -0.5243  0.1677  1.8041
 7977TIP3   OH245345   0.380   4.034   4.796  0.0998 -0.2840 -0.3368
 7977TIP3    H145346   0.401   4.077   4.713 -2.2950 -1.1875 -1.5035
 7977TIP3    H245347   0.446   3.966   4.806  0.9853  0.4647 -0.9836
 7978TIP3   OH245348   4.366   2.713  12.546  0.1807  0.5736  0.0151
 7978TIP3    H145349   4.290   2.732  12.491  1.4759  1.0031 -1.7246
 7978TIP3    H245350   4.401   2.799  12.570 -0.8037  0.4055  2.2267
 7979TIP3   OH245351   1.306   4.920  13.058  0.7822  0.0239  0.1385
 7979TIP3    H145352   1.228   4.970  13.084  2.3690  2.4010  0.7382
 7979TIP3    H245353   1.316   4.854  13.127 -1.1064 -0.8877 -0.3945
 7980TIP3   OH245354   0.485   4.522   1.666  0.1272  0.0454  0.1416
 7980TIP3    H145355   0.509   4.462   1.595 -0.4034  0.0077 -0.0058
 7980TIP3    H245356   0.430   4.588   1.625 -1.0568 -0.5616  0.7116
 7981TIP3   OH245357   5.442   0.150   1.578  0.1587  0.2615  0.3276
 7981TIP3    H145358   5.351   0.177   1.583 -0.2667 -0.7654 -1.3039
 7981TIP3    H245359   5.466   0.132   1.669 -1.9008 -1.4572  0.6013
 7982TIP3   OH245360   4.903   1.113   3.373 -0.0906 -0.0966 -0.6935
 7982TIP3    H145361   4.921   1.177   3.305 -1.2368  1.1973  0.1618
 7982TIP3    H245362   4.808   1.098   3.368  0.0448 -1.2046 -0.4073
 7983TIP3   OH245363   3.376   1.320   5.163  0.0024 -0.0033  0.5929
 7983TIP3    H145364   3.384   1.244   5.221 -1.4027 -0.0517  0.7460
 7983TIP3    H245365   3.316   1.379   5.208  0.6938  0.9946  0.2423
 7984TIP3   OH245366   1.827   5.621  13.079  0.7339  0.8748  0.7593
 7984TIP3    H145367   1.797   5.556  13.016  1.6684  0.0164  1.1899
 7984TIP3    H245368   1.838   5.701  13.027  1.6841  0.1358 -0.2190
 7985TIP3   OH245369   5.285   0.658  14.578 -0.1580  0.0431 -0.1047
 7985TIP3    H145370   5.198   0.632  14.550  0.0520 -1.3097  0.4425
 7985TIP3    H245371   5.311   0.726  14.515 -0.5439 -1.4000 -1.9066
 7986TIP3   OH245372   5.631   4.812   5.092  0.0498  0.2163  0.1088
 7986TIP3    H145373   5.618   4.717   5.090  0.2451  0.1916 -0.0333
 7986TIP3    H245374   5.547   4.848   5.119 -0.5201  0.1015 -1.4158
 7987TIP3   OH245375   2.218   0.610   6.594  0.3075  0.0174  0.3866
 7987TIP3    H145376   2.252   0.608   6.684  1.6473  0.0681 -0.1072
 7987TIP3    H245377   2.247   0.527   6.556 -0.2761 -0.0122  0.0046
 7988TIP3   OH245378   3.617   3.136  16.692 -0.4649 -0.4694 -0.5230
 7988TIP3    H145379   3.648   3.139  16.782  1.3090  0.6843 -1.1187
 7988TIP3    H245380   3.550   3.204  16.687 -0.8124 -0.7721  0.0076
 7989TIP3   OH245381   2.841   1.283   0.300  0.3078  0.3856 -0.4584
 7989TIP3    H145382   2.815   1.363   0.345  3.4510  2.9570 -2.7594
 7989TIP3    H245383   2.936   1.279   0.310  0.3530 -2.6705 -1.1260
 7990TIP3   OH245384   6.209   6.140   1.573  0.4281 -0.4155 -0.5305
 7990TIP3    H145385   6.214   6.235   1.582 -3.7186  0.2629 -2.8774
 7990TIP3    H245386   6.249   6.122   1.488 -1.7131 -0.2072 -1.6367
 7991TIP3   OH245387   1.814   5.169  16.062 -0.4728  0.2126  0.1874
 7991TIP3    H145388   1.719   5.165  16.051 -0.5754  1.0654  0.6666
 7991TIP3    H245389   1.834   5.262  16.061  0.6179 -0.0035 -1.8737
 7992TIP3   OH245390   2.609   6.616  12.904 -0.1098  0.2804  0.4452
 7992TIP3    H145391   2.697   6.644  12.880  0.5627  0.1795  2.6084
 7992TIP3    H245392   2.554   6.643  12.830  1.6792  0.5167 -0.8640
 7993TIP3   OH245393   2.742   2.169   6.720 -0.3422 -0.3887  0.3766
 7993TIP3    H145394   2.666   2.114   6.698  1.8004 -2.8961 -1.3481
 7993TIP3    H245395   2.818   2.115   6.700  2.0095  1.4699  3.3565
 7994TIP3   OH245396   4.530   4.440  14.392  0.1219  0.0902  0.0125
 7994TIP3    H145397   4.620   4.425  14.363 -0.4091 -1.3395 -1.0009
 7994TIP3    H245398   4.535   4.441  14.487  1.5026  2.1108 -0.0192
 7995TIP3   OH245399   2.571   0.607   6.191  0.5628 -0.4263 -0.5575
 7995TIP3    H145400   2.547   0.699   6.201 -0.3610 -0.5104 -1.7574
 7995TIP3    H245401   2.667   0.607   6.184  0.5374  0.4889 -0.9466
 7996TIP3   OH245402   3.972   2.890   1.523  0.0555 -0.3018  0.5947
 7996TIP3    H145403   3.929   2.829   1.464  0.2627  0.8570 -0.8173
 7996TIP3    H245404   4.047   2.841   1.558 -0.7427 -1.3862  0.8610
 7997TIP3   OH245405   2.322   2.894  15.021 -0.0432 -0.2735 -0.6733
 7997TIP3    H145406   2.380   2.831  15.062  0.2608 -0.8399 -1.9212
 7997TIP3    H245407   2.334   2.975  15.071  1.3581 -0.5457 -0.5470
 7998TIP3   OH245408   2.814   5.395  12.902  0.3484  0.5255  0.2309
 7998TIP3    H145409   2.752   5.375  12.972  0.6269  0.0001  0.3400
 7998TIP3    H245410   2.873   5.459  12.940 -0.0816  0.9718  0.1512
 7999TIP3   OH245411   2.493   2.648   0.986  0.4722  0.4245 -0.4231
 7999TIP3    H145412   2.459   2.613   1.068 -0.3910  2.0681 -0.0418
 7999TIP3    H245413   2.429   2.621   0.920  0.8955 -0.4512 -0.4908
 8000TIP3   OH245414   1.483   0.968   2.831  0.2177  0.0367  0.6179
 8000TIP3    H145415   1.447   0.888   2.791  1.0341  0.4685 -1.0425
 8000TIP3    H245416   1.417   1.035   2.812  0.8071  0.3365 -0.4308
 8001TIP3   OH245417   2.409   2.945   0.903 -0.2673  0.3979 -0.2722
 8001TIP3    H145418   2.431   2.948   0.810  0.5671  1.9352 -0.0545
 8001TIP3    H245419   2.457   2.870   0.937 -0.3908 -0.0362 -1.0285
 8002TIP3   OH245420   0.273   3.642  10.370  0.5320  0.2114 -0.0973
 8002TIP3    H145421   0.355   3.595  10.389  1.1468  1.8652  1.6731
 8002TIP3    H245422   0.291   3.733  10.395 -2.0200  0.5250  0.9039
 8003TIP3   OH245423   3.640   5.615  15.410 -0.2287  0.2299  0.0163
 8003TIP3    H145424   3.702   5.675  15.451  1.0584 -1.0350 -0.0171
 8003TIP3    H245425   3.576   5.597  15.479 -0.7198  1.7086 -0.0141
 8004TIP3   OH245426   3.659   2.230   1.847  0.2201  0.1417 -0.3600
 8004TIP3    H145427   3.705   2.258   1.926 -0.7614  0.7841 -0.0017
 8004TIP3    H245428   3.568   2.222   1.874 -0.1591  0.5507 -1.4694
 8005TIP3   OH245429   3.789   1.839  15.581  0.1401 -0.6522  0.7695
 8005TIP3    H145430   3.704   1.825  15.540  1.1966 -1.6547 -1.2254
 8005TIP3    H245431   3.848   1.779  15.535  2.0003  0.2593  1.8530
 8006TIP3   OH245432   0.384   1.768   4.355  0.1917  0.1138  0.3667
 8006TIP3    H145433   0.469   1.793   4.392  0.3442  0.4618 -0.2161
 8006TIP3    H245434   0.325   1.840   4.379  0.3682  0.5022 -0.3416
 8007TIP3   OH245435   3.666   5.863   2.566 -0.3535 -0.3370 -0.6332
 8007TIP3    H145436   3.677   5.793   2.630  0.9414  0.1701 -0.2662
 8007TIP3    H245437   3.633   5.937   2.617  0.8899  0.1363 -0.4713
 8008TIP3   OH245438   2.092   0.092   2.910  0.0743 -0.4306  0.7000
 8008TIP3    H145439   2.162   0.153   2.888 -0.5950  0.6577  1.5238
 8008TIP3    H245440   2.011   0.142   2.902 -0.6715 -1.7386 -0.4888
 8009TIP3   OH245441   5.186   1.623  14.770 -0.2107 -0.9330 -0.4620
 8009TIP3    H145442   5.187   1.539  14.724 -0.2187 -1.0688 -0.2139
 8009TIP3    H245443   5.263   1.620  14.827 -1.3971 -1.6779  1.1717
 8010TIP3   OH245444   5.131   5.598   3.967 -0.3440  0.5165 -0.0609
 8010TIP3    H145445   5.155   5.513   3.932 -0.4144  0.5031 -0.0772
 8010TIP3    H245446   5.153   5.593   4.060 -3.1603 -0.6158  0.6440
 8011TIP3   OH245447   1.726   0.352   1.299 -0.2578  0.1890  0.4968
 8011TIP3    H145448   1.647   0.376   1.250  0.5979  0.7167 -0.6921
 8011TIP3    H245449   1.742   0.261   1.274 -0.6251  0.0005  0.9392
 8012TIP3   OH245450   4.296   1.658  13.350  0.1368 -0.2057 -0.1627
 8012TIP3    H145451   4.371   1.690  13.300  0.5026 -0.9955 -0.1477
 8012TIP3    H245452   4.229   1.725  13.339  0.9240  0.6366  0.0251
 8013TIP3   OH245453   6.068   2.643   1.139 -0.1768  0.0172 -0.3793
 8013TIP3    H145454   6.055   2.732   1.171  0.2580 -0.3439  0.8707
 8013TIP3    H245455   6.098   2.654   1.049 -0.6474  1.1072 -0.4204
 8014TIP3   OH245456   2.050   4.583  10.690 -0.2326 -0.1155  0.3761
 8014TIP3    H145457   2.105   4.659  10.712  1.3450 -0.4334 -2.0373
 8014TIP3    H245458   2.069   4.519  10.759 -0.6704  1.2132  1.7847
 8015TIP3   OH245459   4.673   6.268  17.103 -0.1545 -0.3852 -0.3143
 8015TIP3    H145460   4.601   6.326  17.127 -0.7238 -0.7025 -1.2203
 8015TIP3    H245461   4.647   6.182  17.138  0.2209 -0.3116  0.1563
 8016TIP3   OH245462   0.112   6.401   1.740  0.2418  0.5285 -0.2632
 8016TIP3    H145463   0.082   6.414   1.650  0.7385  0.5510 -0.4306
 8016TIP3    H245464   0.032   6.383   1.790 -0.0808  0.8971 -0.6364
 8017TIP3   OH245465   1.449   3.369   3.580 -0.3741 -0.5962  0.2641
 8017TIP3    H145466   1.436   3.455   3.540  0.0049 -1.2111 -1.2491
 8017TIP3    H245467   1.544   3.363   3.592 -0.4757 -0.4493  1.2337
 8018TIP3   OH245468   1.567   0.046  11.173 -0.0681 -0.2115  0.6370
 8018TIP3    H145469   1.481   0.051  11.214 -0.9723 -0.4638 -1.1108
 8018TIP3    H245470   1.570  -0.041  11.133  0.6158  0.1346 -0.1086
 8019TIP3   OH245471   0.160   0.772   0.410 -0.3358 -0.2842  0.2935
 8019TIP3    H145472   0.163   0.867   0.405  0.6609 -0.3053  0.4149
 8019TIP3    H245473   0.137   0.744   0.321 -0.5371  0.0539  0.2374
 8020TIP3   OH245474   2.683   3.115  16.120 -0.7007 -0.2245 -0.0995
 8020TIP3    H145475   2.735   3.039  16.094 -0.4280 -0.0920  0.0506
 8020TIP3    H245476   2.744   3.189  16.115 -1.6415  0.4863 -2.9703
 8021TIP3   OH245477   1.280   5.371  14.904  0.0992  0.1534  0.6490
 8021TIP3    H145478   1.240   5.296  14.947  0.0553  0.7464  1.6543
 8021TIP3    H245479   1.319   5.335  14.824 -1.9831 -0.5402 -0.1294
 8022TIP3   OH245480   0.639   5.233   0.997  0.3989 -0.1960 -0.3615
 8022TIP3    H145481   0.607   5.250   0.909 -0.3363  0.5149  0.0243
 8022TIP3    H245482   0.570   5.182   1.039  0.8521 -0.7465 -0.2683
 8023TIP3   OH245483   6.374   0.712   4.905  0.7822 -0.1472  0.3964
 8023TIP3    H145484   6.305   0.657   4.868  1.0408 -0.8571  0.9380
 8023TIP3    H245485   6.412   0.659   4.975  0.0122  1.3187  1.9964
 8024TIP3   OH245486   2.566   2.830  15.664 -0.3788 -0.0909  0.6927
 8024TIP3    H145487   2.510   2.818  15.741  0.8025 -2.6717  1.2822
 8024TIP3    H245488   2.580   2.741  15.631  1.5367  0.6758 -0.7376
 8025TIP3   OH245489   0.677   0.313   4.813  0.0865  0.2909 -0.3725
 8025TIP3    H145490   0.707   0.404   4.812  0.0164  0.3149 -0.2670
 8025TIP3    H245491   0.588   0.317   4.848  0.1267  0.1694 -0.2532
 8026TIP3   OH245492   3.581   6.246  14.538 -0.2582 -0.0945  0.6126
 8026TIP3    H145493   3.528   6.311  14.492 -0.4246 -0.9180 -0.4041
 8026TIP3    H245494   3.644   6.297  14.588  0.9267  0.8816 -1.7122
 8027TIP3   OH245495   0.747   5.435   5.487 -0.8110  0.6054 -0.1874
 8027TIP3    H145496   0.679   5.369   5.469 -1.5737  1.3469 -0.0701
 8027TIP3    H245497   0.736   5.500   5.418  1.7261 -0.6983 -1.9640
 8028TIP3   OH245498   3.137   3.212   2.071  0.3174  0.0036  0.2032
 8028TIP3    H145499   3.087   3.135   2.045  1.0860 -1.0935  1.7638
 8028TIP3    H245500   3.220   3.204   2.024  0.7206 -0.6096  0.9847
 8029TIP3   OH245501   4.846   4.008  13.346 -0.1063 -0.6704 -0.2451
 8029TIP3    H145502   4.937   4.020  13.375  0.1510  1.4583 -1.7261
 8029TIP3    H245503   4.794   4.051  13.414  0.1727  0.0928 -0.5004
 8030TIP3   OH245504   3.248   5.555   3.163  0.2911 -0.4155 -0.2059
 8030TIP3    H145505   3.154   5.536   3.166  0.1910  0.1827  1.2851
 8030TIP3    H245506   3.283   5.517   3.243  0.8363  1.6127  0.5785
 8031TIP3   OH245507   2.700   2.811   5.765  0.4958  0.5184  0.7364
 8031TIP3    H145508   2.774   2.781   5.817  2.3172  0.8880 -1.5165
 8031TIP3    H245509   2.661   2.731   5.730  1.8737  0.4095 -0.6687
 8032TIP3   OH245510   6.365   0.255   1.515  0.1672 -0.1293 -0.3242
 8032TIP3    H145511   6.402   0.223   1.433 -0.6758 -1.1577 -0.3210
 8032TIP3    H245512   6.439   0.258   1.575  0.8635  0.9794 -1.1929
 8033TIP3   OH245513   5.557   3.866   2.693  0.1478  0.1889 -0.0571
 8033TIP3    H145514   5.474   3.899   2.658 -0.2545  1.3534  1.8294
 8033TIP3    H245515   5.591   3.939   2.746  3.8478  0.8573 -2.9693
 8034TIP3   OH245516   5.881   2.425   6.732  0.3587 -0.6277  0.2401
 8034TIP3    H145517   5.830   2.437   6.652  2.2764 -0.0983 -0.9630
 8034TIP3    H245518   5.866   2.505   6.783  0.0334 -0.4633 -0.1118
 8035TIP3   OH245519   4.428   5.332  13.147  0.4101 -0.1181  0.2285
 8035TIP3    H145520   4.445   5.300  13.058  1.4359 -0.3007  0.4774
 8035TIP3    H245521   4.483   5.278  13.203 -0.6982 -0.4219  1.0565
 8036TIP3   OH245522   4.572   6.016  17.164  0.3098  0.3919  0.7952
 8036TIP3    H145523   4.492   5.988  17.207 -0.3568  0.0205 -0.6257
 8036TIP3    H245524   4.552   6.010  17.071  1.6745  1.2317  0.4259
 8037TIP3   OH245525   2.767   5.168  11.285 -0.3127 -0.2858  0.3678
 8037TIP3    H145526   2.684   5.202  11.319 -0.5530  0.1736 -0.6389
 8037TIP3    H245527   2.763   5.074  11.298 -0.6645 -0.1796  1.0236
 8038TIP3   OH245528   0.508   5.428  14.907 -0.3238 -0.0377 -0.2097
 8038TIP3    H145529   0.589   5.377  14.909  0.5097  1.2446 -0.1253
 8038TIP3    H245530   0.531   5.511  14.949 -0.8714  1.4462 -2.6260
 8039TIP3   OH245531   2.002   1.912   0.624  0.3485  0.2820  0.4517
 8039TIP3    H145532   2.082   1.961   0.604 -0.0909  0.1309 -1.9827
 8039TIP3    H245533   1.933   1.957   0.576 -0.3700 -1.6595 -0.4444
 8040TIP3   OH245534   1.007   5.511  16.178 -0.1883 -0.2233  0.1731
 8040TIP3    H145535   1.037   5.453  16.108  0.1960  1.4121 -1.0884
 8040TIP3    H245536   0.912   5.504  16.176 -0.1688 -0.3547 -0.3625
 8041TIP3   OH245537   1.293   5.885   2.104  0.7563 -0.4724  0.2066
 8041TIP3    H145538   1.285   5.918   2.015 -1.8661  1.0460  0.9010
 8041TIP3    H245539   1.255   5.953   2.159 -2.1532 -3.2343  2.0104
 8042TIP3   OH245540   6.720   1.272   5.278 -0.4525 -0.5141 -0.3477
 8042TIP3    H145541   6.813   1.296   5.273 -0.4801  0.1987  1.5956
 8042TIP3    H245542   6.722   1.176   5.282  0.3659 -0.4694  1.3574
 8043TIP3   OH245543   2.202   2.311  11.297 -0.5354 -0.2392 -0.2801
 8043TIP3    H145544   2.200   2.311  11.202 -1.6401 -1.2262 -0.2734
 8043TIP3    H245545   2.291   2.283  11.319  0.7561  2.9443 -0.9528
 8044TIP3   OH245546   3.819   2.579   3.804 -0.0839  0.3113 -0.1694
 8044TIP3    H145547   3.768   2.631   3.866 -1.2655  0.4655 -1.2434
 8044TIP3    H245548   3.786   2.605   3.718 -0.1194 -1.6268 -0.7740
 8045TIP3   OH245549   5.262   4.266  10.825  0.1005  0.3724  0.2704
 8045TIP3    H145550   5.259   4.276  10.730  0.0477  0.3807  0.2728
 8045TIP3    H245551   5.343   4.310  10.851  1.5612 -1.9495 -0.0529
 8046TIP3   OH245552   2.686   6.600  14.446 -0.5252  0.4309  0.0987
 8046TIP3    H145553   2.681   6.682  14.396 -1.0321  1.1903  1.3660
 8046TIP3    H245554   2.780   6.584  14.456 -0.4048  0.1824 -1.1972
 8047TIP3   OH245555   6.172   4.301   1.664 -0.1031  0.2694 -0.2568
 8047TIP3    H145556   6.234   4.228   1.657  0.6919  0.8209  0.6260
 8047TIP3    H245557   6.145   4.319   1.574 -0.1616 -0.9734 -0.5056
 8048TIP3   OH245558   0.608   3.306   0.736  0.1474 -0.2377 -0.2632
 8048TIP3    H145559   0.533   3.258   0.702 -0.3333  0.3203 -0.0219
 8048TIP3    H245560   0.646   3.249   0.803 -0.0372 -0.5380 -0.4163
 8049TIP3   OH245561   3.036   2.506   5.703  0.3974 -0.2195 -0.1722
 8049TIP3    H145562   3.109   2.445   5.697  0.8562  0.2954  0.0296
 8049TIP3    H245563   3.060   2.565   5.775 -0.1836  0.0011 -0.1508
 8050TIP3   OH245564   4.474   2.727  13.856  0.0324  0.3372  0.2602
 8050TIP3    H145565   4.414   2.757  13.925 -2.9952 -0.2305 -1.8994
 8050TIP3    H245566   4.436   2.644  13.826  3.2782 -1.3202  0.2298
 8051TIP3   OH245567   3.038   5.890  16.052  0.5205  0.1638  0.0648
 8051TIP3    H145568   2.994   5.898  16.136  1.0956 -0.8684  0.4891
 8051TIP3    H245569   3.003   5.811  16.013 -1.4062  1.7862 -1.7411
 8052TIP3   OH245570   5.780   5.056  11.398  0.5319 -0.1772  0.2389
 8052TIP3    H145571   5.832   5.060  11.318  1.5870 -1.7962  0.7837
 8052TIP3    H245572   5.718   4.984  11.383 -1.4721  1.5762 -0.3093
 8053TIP3   OH245573   5.832   6.453   3.087 -0.0042 -0.3005 -0.0009
 8053TIP3    H145574   5.753   6.505   3.070  0.1851 -0.1365 -0.4061
 8053TIP3    H245575   5.893   6.480   3.017  0.3843 -0.4701  0.2727
 8054TIP3   OH245576   3.891   2.914   0.330 -0.2659  0.1897 -0.8269
 8054TIP3    H145577   3.798   2.897   0.316 -1.0746  1.7715  1.7824
 8054TIP3    H245578   3.919   2.845   0.390  0.0552  0.1104 -1.0683
 8055TIP3   OH245579   3.179   6.148  14.384 -0.4125 -0.5855  0.3302
 8055TIP3    H145580   3.164   6.199  14.464 -0.0265  0.8214 -0.4461
 8055TIP3    H245581   3.273   6.130  14.386 -0.6160 -1.6607  0.8048
 8056TIP3   OH245582   5.950   0.087  17.356 -0.1764  0.0266 -0.7341
 8056TIP3    H145583   5.974   0.168  17.310 -0.3964  1.9612  2.2838
 8056TIP3    H245584   5.855   0.095  17.367 -0.1610 -0.5423 -0.2089
 8057TIP3   OH245585   2.311   3.112   2.111  0.7200  0.2540 -0.0575
 8057TIP3    H145586   2.274   3.136   2.027  2.3028 -0.8316 -1.1359
 8057TIP3    H245587   2.390   3.165   2.119  0.8133  0.0401  0.5329
 8058TIP3   OH245588   2.929   0.377   1.373 -0.4510  0.4032  0.0077
 8058TIP3    H145589   2.873   0.372   1.295  0.0222 -1.6557 -0.2740
 8058TIP3    H245590   2.986   0.453   1.357  0.3670 -0.5742 -2.2216
 8059TIP3   OH245591   1.747   0.904   3.339  0.5331  0.3443  0.2017
 8059TIP3    H145592   1.759   0.819   3.380 -0.1248 -0.1030 -0.5169
 8059TIP3    H245593   1.721   0.884   3.249 -1.6523  1.2796  0.5645
 8060TIP3   OH245594   5.521   0.082   6.108 -0.3610 -0.1065  0.1337
 8060TIP3    H145595   5.452   0.131   6.063 -2.0607 -2.0172  0.4991
 8060TIP3    H245596   5.581   0.056   6.038  2.2995  4.6873  0.1915
 8061TIP3   OH245597   3.073   5.619   2.262 -0.0321  0.1621 -0.2788
 8061TIP3    H145598   3.019   5.542   2.274 -1.3198  0.7910 -1.6519
 8061TIP3    H245599   3.057   5.673   2.339  0.2004 -0.5399  0.2665
 8062TIP3   OH245600   6.017   1.619  16.926  0.5324  0.4323 -0.4173
 8062TIP3    H145601   5.925   1.637  16.949  0.2867  0.0262 -1.0684
 8062TIP3    H245602   6.056   1.706  16.917 -0.0543  0.6230 -1.1940
 8063TIP3   OH245603   4.671   0.807  14.703 -0.0811  0.3324 -0.5439
 8063TIP3    H145604   4.720   0.889  14.710  1.6165 -0.7505  2.2506
 8063TIP3    H245605   4.592   0.822  14.754  0.4768  0.1211  0.4112
 8064TIP3   OH245606   6.118   3.170  17.195  0.1500  0.1696 -0.3349
 8064TIP3    H145607   6.026   3.173  17.167  0.3089  0.0391 -0.8964
 8064TIP3    H245608   6.145   3.261  17.200 -0.3833  0.2655  1.1401
 8065TIP3   OH245609   6.528   3.106  16.019 -0.4727 -0.1378 -0.2582
 8065TIP3    H145610   6.547   3.137  15.931 -1.4911 -1.0842 -0.8258
 8065TIP3    H245611   6.469   3.172  16.055 -0.4183  0.0153 -0.4453
 8066TIP3   OH245612   0.117   4.030   4.684 -0.5390 -0.4639 -0.0310
 8066TIP3    H145613   0.094   3.941   4.658 -1.2313  0.3878 -2.6686
 8066TIP3    H245614   0.210   4.039   4.662 -0.6752 -0.3071 -0.5670
 8067TIP3   OH245615   6.006   4.950   4.777 -0.0436  0.0706  0.3686
 8067TIP3    H145616   5.957   4.881   4.731 -0.0494  1.0487 -1.1282
 8067TIP3    H245617   6.095   4.943   4.744 -0.3940  1.8359 -1.1151
 8068TIP3   OH245618   0.505   5.545   4.066 -0.0629  0.3640 -0.0629
 8068TIP3    H145619   0.536   5.631   4.093  1.3892 -0.7705  2.1261
 8068TIP3    H245620   0.573   5.484   4.095 -0.8310 -1.5233 -1.9216
 8069TIP3   OH245621   3.988   6.277   5.049  0.0547  0.1104 -0.0210
 8069TIP3    H145622   3.911   6.308   5.098 -0.4249  0.1569 -0.7842
 8069TIP3    H245623   4.026   6.209   5.105 -2.2330 -2.0189 -0.8631
 8070TIP3   OH245624   6.128   3.444  13.970 -0.2874 -0.0043 -0.0780
 8070TIP3    H145625   6.224   3.439  13.976 -0.1615  1.9064  0.0107
 8070TIP3    H245626   6.111   3.533  13.939 -1.9990 -0.7577 -1.4489
 8071TIP3   OH245627   4.689   5.801  14.722 -0.2192 -0.4284  0.2469
 8071TIP3    H145628   4.717   5.863  14.789  1.7968 -1.4212  0.4064
 8071TIP3    H245629   4.643   5.732  14.771 -0.0526 -0.4177  0.4168
 8072TIP3   OH245630   4.689   5.298  15.778  0.0534 -0.6411 -0.8128
 8072TIP3    H145631   4.640   5.222  15.746 -0.5128 -1.2333  1.2995
 8072TIP3    H245632   4.766   5.261  15.822 -0.9415 -0.1799  1.4887
 8073TIP3   OH245633   6.255   6.481  14.463  0.3569 -0.8522  0.2488
 8073TIP3    H145634   6.165   6.457  14.488  0.4620 -0.3227  1.1787
 8073TIP3    H245635   6.311   6.431  14.523  0.7424 -1.9259 -0.9548
 8074TIP3   OH245636   1.177   1.771  13.004 -0.1201  0.2403  0.1831
 8074TIP3    H145637   1.081   1.770  13.009 -0.1250  1.4914  1.0253
 8074TIP3    H245638   1.203   1.828  13.077  1.2837 -0.3741  0.1848
 8075TIP3   OH245639   1.225   4.342   2.133  0.2622 -0.3108  0.8547
 8075TIP3    H145640   1.141   4.298   2.136  1.1417 -2.1178  0.3401
 8075TIP3    H245641   1.205   4.434   2.151 -1.6948 -0.8277  1.5244
 8076TIP3   OH245642   1.152   0.352  15.307  0.4233  0.3690  0.6586
 8076TIP3    H145643   1.243   0.363  15.337  0.1712  1.7142  1.0224
 8076TIP3    H245644   1.144   0.412  15.233  0.4773 -1.5013 -0.9233
 8077TIP3   OH245645   3.271   5.029   2.073 -0.1748 -0.1334  0.4437
 8077TIP3    H145646   3.272   5.120   2.103  0.6417 -0.1121  0.3659
 8077TIP3    H245647   3.336   4.985   2.127  0.5576 -0.3298 -0.5709
 8078TIP3   OH245648   5.911   2.900  16.946  0.0553  0.1063  0.1490
 8078TIP3    H145649   5.832   2.954  16.943 -0.7292 -1.0111  0.0863
 8078TIP3    H245650   5.964   2.930  16.872  0.1578  1.5423  0.7749
 8079TIP3   OH245651   0.763   6.682  16.506  0.5437  0.1538 -0.3515
 8079TIP3    H145652   0.783   6.767  16.545  0.7648  0.8002 -1.8210
 8079TIP3    H245653   0.839   6.662  16.452  0.1383 -0.6063 -0.6581
 8080TIP3   OH245654   4.620   5.602   0.270  0.4750 -0.1883  0.4192
 8080TIP3    H145655   4.527   5.597   0.288  0.5102  1.0134  0.9802
 8080TIP3    H245656   4.632   5.685   0.224  1.4047  0.1521  1.2357
 8081TIP3   OH245657   4.177   4.010   0.749 -0.5230  0.2445 -0.0869
 8081TIP3    H145658   4.121   4.081   0.779  0.4554  0.3829  1.5193
 8081TIP3    H245659   4.256   4.054   0.716 -0.6660 -0.0237 -0.8122
 8082TIP3   OH245660   5.144   6.722  13.684 -0.2900  0.0168  0.5274
 8082TIP3    H145661   5.210   6.704  13.617 -0.0723  1.7176  0.2406
 8082TIP3    H245662   5.079   6.652  13.672 -0.8761  0.8919 -2.3266
 8083TIP3   OH245663   2.959   2.975   3.340 -0.0716 -0.0115 -0.0725
 8083TIP3    H145664   2.948   3.064   3.374 -0.2591 -0.1633  0.2804
 8083TIP3    H245665   2.902   2.922   3.396  1.0250 -0.5424  0.5565
 8084TIP3   OH245666   0.390   0.329  14.147  0.7102  0.0074 -0.1062
 8084TIP3    H145667   0.344   0.319  14.231  0.3562 -3.4107 -0.5481
 8084TIP3    H245668   0.442   0.249  14.139  2.2344  1.1144 -2.3221
 8085TIP3   OH245669   2.378   3.995  12.497  0.0833 -0.8287  0.3342
 8085TIP3    H145670   2.294   4.017  12.537 -0.4856 -0.4765 -1.0141
 8085TIP3    H245671   2.441   4.051  12.542 -0.7902  0.8280 -0.3825
 8086TIP3   OH245672   0.330   4.355   4.134 -0.1195  0.3955 -0.0039
 8086TIP3    H145673   0.258   4.323   4.080 -1.0653 -0.2484  1.5736
 8086TIP3    H245674   0.407   4.307   4.103 -0.1379  1.7266 -2.3067
 8087TIP3   OH245675   2.484   0.404   5.969 -0.1398 -0.0348 -0.0433
 8087TIP3    H145676   2.469   0.316   6.005  1.2408 -0.3289 -0.1272
 8087TIP3    H245677   2.519   0.454   6.043 -0.9988  0.4914  0.0263
 8088TIP3   OH245678   4.211   5.229  15.557  0.4251  0.0821  0.1866
 8088TIP3    H145679   4.233   5.174  15.482 -1.5529  0.7580 -0.9629
 8088TIP3    H245680   4.258   5.311  15.542 -0.9198  0.6801 -1.0436
 8089TIP3   OH245681   3.960   4.179  11.023 -0.2419  0.0829  0.3162
 8089TIP3    H145682   3.882   4.141  11.063  0.1059 -1.0080 -0.0294
 8089TIP3    H245683   3.994   4.239  11.089  0.2228 -1.5453  1.6184
 8090TIP3   OH245684   2.874   1.030  16.796 -0.1359 -0.2785  0.8049
 8090TIP3    H145685   2.963   0.997  16.801  0.5209  1.0922 -0.9398
 8090TIP3    H245686   2.880   1.122  16.822 -0.7812  0.1896 -0.6111
 8091TIP3   OH245687   1.237   1.477  12.441  0.1719  0.0825 -0.1238
 8091TIP3    H145688   1.223   1.462  12.534  0.3337  2.1145  0.2747
 8091TIP3    H245689   1.156   1.517  12.410 -0.2112 -1.3762 -1.0709
 8092TIP3   OH245690   2.229   1.375   6.252  0.5867 -0.0865  0.1301
 8092TIP3    H145691   2.167   1.413   6.315  0.6205 -0.5464  0.4440
 8092TIP3    H245692   2.293   1.329   6.306  0.6927 -0.3719 -0.2344
 8093TIP3   OH245693   0.855   0.532   1.751  0.0954  0.4987 -0.2823
 8093TIP3    H145694   0.863   0.601   1.817  1.1622 -0.3732  0.5452
 8093TIP3    H245695   0.903   0.566   1.675 -0.0791  0.9966 -0.1740
 8094TIP3   OH245696   5.255   0.530  12.949  0.1559 -0.8763  0.0782
 8094TIP3    H145697   5.268   0.501  12.859 -2.0623 -1.8317 -0.0111
 8094TIP3    H245698   5.305   0.611  12.956  0.6343 -0.9603 -1.9192
 8095TIP3   OH245699   6.066   0.783   5.862  0.6744 -0.4047 -0.7306
 8095TIP3    H145700   5.999   0.808   5.798  1.2119  0.2138 -1.0677
 8095TIP3    H245701   6.022   0.789   5.946 -0.6720 -3.2448 -1.1053
 8096TIP3   OH245702   5.204   5.976   5.115 -0.1686 -0.3357  0.8701
 8096TIP3    H145703   5.204   5.930   5.031 -0.6180  0.9223  0.1602
 8096TIP3    H245704   5.251   6.057   5.098 -0.7306  0.1788  1.7007
 8097TIP3   OH245705   5.839   4.335   5.367  0.3164  0.0392 -0.1165
 8097TIP3    H145706   5.855   4.288   5.449 -1.7106 -1.9136 -0.7240
 8097TIP3    H245707   5.804   4.268   5.308  1.6558  1.3857 -2.6095
 8098TIP3   OH245708   0.662   5.989  12.392 -0.4843  0.2427  0.7303
 8098TIP3    H145709   0.757   5.992  12.377 -0.7067  0.0339 -0.9974
 8098TIP3    H245710   0.651   6.011  12.484  1.2327  0.4965  0.9061
 8099TIP3   OH245711   0.252   5.636  15.150 -0.1503 -0.3209  0.2719
 8099TIP3    H145712   0.331   5.638  15.096  0.6512 -1.2128  1.3491
 8099TIP3    H245713   0.247   5.545  15.181 -0.6958  0.1100  1.5007
 8100TIP3   OH245714   0.018   2.566   5.406  0.1643 -0.1787  0.5069
 8100TIP3    H145715   0.046   2.638   5.462  1.7717 -0.7217  0.4638
 8100TIP3    H245716   0.077   2.494   5.429  0.1763 -0.7315 -1.1462
 8101TIP3   OH245717   0.129   1.835  13.145  0.0792  0.7334 -0.8442
 8101TIP3    H145718   0.140   1.867  13.235  0.5847  2.2292 -1.4064
 8101TIP3    H245719   0.034   1.838  13.131 -0.4107 -2.7280  0.7043
 8102TIP3   OH245720   0.160   1.046   0.395  0.8967  0.3495 -0.0052
 8102TIP3    H145721   0.130   1.078   0.480  0.5926  2.3965 -0.8183
 8102TIP3    H245722   0.193   1.124   0.351  1.6729 -0.7830 -1.5229
 8103TIP3   OH245723   6.738   6.699  10.942 -0.2944 -0.1259 -0.0880
 8103TIP3    H145724   6.740   6.633  10.873 -2.1693  0.9109 -1.2122
 8103TIP3    H245725   6.672   6.668  11.004 -0.2430  0.0618  0.0621
 8104TIP3   OH245726   1.672   2.350  12.893 -0.8628  0.6349 -0.1194
 8104TIP3    H145727   1.658   2.383  12.805 -1.6730  1.7160  0.3962
 8104TIP3    H245728   1.590   2.308  12.917 -0.8313  0.8089  0.3139
 8105TIP3   OH245729   4.070   6.734  13.728 -0.7250  0.1087  0.0165
 8105TIP3    H145730   4.051   6.778  13.811  1.1973  0.9247  0.0916
 8105TIP3    H245731   4.107   6.650  13.753 -0.4484  0.2221  0.0000
 8106TIP3   OH245732   4.509   4.685   3.388  0.1119 -0.2618 -0.8859
 8106TIP3    H145733   4.506   4.665   3.295  0.5493 -1.1800 -0.7086
 8106TIP3    H245734   4.427   4.731   3.405 -0.9183 -1.8416 -1.3434
 8107TIP3   OH245735   5.903   2.501  12.820  0.0172 -0.7439 -0.6387
 8107TIP3    H145736   5.833   2.493  12.755 -1.1041 -0.6229  0.5150
 8107TIP3    H245737   5.945   2.585  12.800 -0.6423 -0.4702 -0.8976
 8108TIP3   OH245738   4.791   0.524  14.258  0.3182 -0.2938 -0.2627
 8108TIP3    H145739   4.748   0.541  14.341 -0.7537  0.5509 -0.9755
 8108TIP3    H245740   4.880   0.557  14.270  0.0144  0.3094  0.3673
 8109TIP3   OH245741   5.164   5.584   0.354  0.1918 -0.0593 -0.0072
 8109TIP3    H145742   5.211   5.664   0.376  0.3723  0.4281 -2.0137
 8109TIP3    H245743   5.085   5.614   0.310 -1.2339 -0.9313  1.8029
 8110TIP3   OH245744   1.693   1.352   3.348 -0.5882  0.2967 -0.0673
 8110TIP3    H145745   1.719   1.441   3.323 -0.7032  1.1162  2.4624
 8110TIP3    H245746   1.609   1.362   3.391 -0.0270 -0.8469  1.3806
 8111TIP3   OH245747   0.222   1.094  11.272  0.2850 -0.0927 -0.1251
 8111TIP3    H145748   0.137   1.087  11.315  0.6739 -2.0188  0.4685
 8111TIP3    H245749   0.217   1.033  11.199  1.5697 -1.3231  0.7451
 8112TIP3   OH245750   2.987   6.027   4.397 -0.1942 -0.2868 -0.3879
 8112TIP3    H145751   2.896   6.049   4.418  0.2239  1.4585 -0.2340
 8112TIP3    H245752   3.030   6.112   4.384  1.5311 -1.0442  0.0167
 8113TIP3   OH245753   5.339   4.891  12.181  0.3734 -0.4303  0.0861
 8113TIP3    H145754   5.341   4.916  12.274 -2.0540 -0.5686  0.2415
 8113TIP3    H245755   5.302   4.803  12.181 -0.4297 -0.1125 -1.0550
 8114TIP3   OH245756   4.298   0.811   0.985 -0.3901  0.2900 -0.1176
 8114TIP3    H145757   4.333   0.874   1.049 -2.4063  2.0161 -0.6031
 8114TIP3    H245758   4.325   0.847   0.900 -0.3950 -0.2604 -0.3532
 8115TIP3   OH245759   3.904   4.860  13.470 -0.1875 -0.0020 -0.4212
 8115TIP3    H145760   3.812   4.836  13.462  0.0243 -1.1725  0.3039
 8115TIP3    H245761   3.914   4.937  13.415 -1.5600  0.0425 -0.6465
 8116TIP3   OH245762   4.985   4.968  14.840  0.1864 -0.2686 -0.1145
 8116TIP3    H145763   5.026   4.977  14.754 -0.0337 -0.4565 -0.2397
 8116TIP3    H245764   5.024   4.890  14.877  1.4430  0.6611  0.6092
 8117TIP3   OH245765   6.392   5.490  17.323  0.0696  0.0234  0.0222
 8117TIP3    H145766   6.478   5.532  17.325 -0.1240  0.4321 -0.2777
 8117TIP3    H245767   6.344   5.529  17.396 -0.5903  1.3573 -1.0919
 8118TIP3   OH245768   4.754   1.750  13.009 -0.0016 -0.3552 -0.6339
 8118TIP3    H145769   4.704   1.709  13.079 -0.6451 -0.8578 -1.3652
 8118TIP3    H245770   4.699   1.740  12.931  0.2870  0.9792 -1.0430
 8119TIP3   OH245771   2.878   5.109   0.949  0.6116 -0.1704 -0.9258
 8119TIP3    H145772   2.858   5.037   0.890 -0.0357 -0.0379 -0.8832
 8119TIP3    H245773   2.876   5.069   1.036  1.4541 -0.3431 -0.9798
 8120TIP3   OH245774   2.416   4.209   2.120 -0.2393  0.0437 -0.2002
 8120TIP3    H145775   2.492   4.218   2.179  0.0217  1.7480 -0.7463
 8120TIP3    H245776   2.453   4.179   2.037 -0.2513  0.3004 -0.2967
 8121TIP3   OH245777   3.211   0.468  13.119  0.6410  0.2905  0.2138
 8121TIP3    H145778   3.145   0.531  13.089  0.7841 -0.8721 -2.9554
 8121TIP3    H245779   3.293   0.517  13.115  0.4989  0.5005 -0.1815
 8122TIP3   OH245780   3.272   5.203   0.084 -0.6499  0.3546  0.1257
 8122TIP3    H145781   3.277   5.178   0.176 -3.1205  0.0071  0.2288
 8122TIP3    H245782   3.189   5.167   0.054  0.5974 -0.4912 -2.5711
 8123TIP3   OH245783   0.308   1.666  13.533 -0.5772 -0.0396 -0.2198
 8123TIP3    H145784   0.390   1.706  13.563 -0.9285 -1.0678  2.3996
 8123TIP3    H245785   0.309   1.578  13.571 -2.3532 -0.4838 -1.1252
 8124TIP3   OH245786   3.104   2.178  13.829  0.1067  0.0729 -0.4282
 8124TIP3    H145787   3.111   2.150  13.920 -1.7557  2.8319  0.7144
 8124TIP3    H245788   3.161   2.255  13.823 -0.9227  0.8304 -1.0878
 8125TIP3   OH245789   1.858   0.264  17.284 -0.7481  0.4742  0.2318
 8125TIP3    H145790   1.878   0.335  17.223  0.3435  1.3864  1.5702
 8125TIP3    H245791   1.882   0.184  17.237 -0.6914  1.0804 -0.8075
 8126TIP3   OH245792   0.122   4.064   4.327 -0.4055  0.2405 -0.6366
 8126TIP3    H145793   0.130   4.107   4.242 -1.5982 -0.9634 -1.4037
 8126TIP3    H245794   0.066   3.988   4.310 -0.8151  0.0678  1.2711
 8127TIP3   OH245795   1.137   5.298  15.465 -0.3060 -0.2119 -0.0587
 8127TIP3    H145796   1.065   5.240  15.490 -1.1856  0.9996  0.3151
 8127TIP3    H245797   1.201   5.240  15.424 -1.4423 -1.3345 -0.3169
 8128TIP3   OH245798   2.698   5.671   6.223 -0.8807 -0.5025 -0.5492
 8128TIP3    H145799   2.663   5.755   6.254 -0.9699  0.2535 -2.4969
 8128TIP3    H245800   2.649   5.605   6.271 -0.8652  0.5542  0.9885
 8129TIP3   OH245801   2.620   0.403   5.441 -0.1911 -0.1371 -0.5702
 8129TIP3    H145802   2.573   0.422   5.522  0.0637  1.1942 -0.7172
 8129TIP3    H245803   2.699   0.358   5.469 -1.6619 -2.7661 -0.3369
 8130TIP3   OH245804   3.416   6.068  17.227  0.2837 -0.5411 -0.4889
 8130TIP3    H145805   3.421   6.151  17.180 -1.0074 -0.8368 -1.2005
 8130TIP3    H245806   3.406   6.002  17.158 -2.9807 -0.8825  0.1289
 8131TIP3   OH245807   2.398   3.299  10.886  0.2897 -0.5085  0.7491
 8131TIP3    H145808   2.440   3.216  10.865  0.9838  0.3941 -1.7956
 8131TIP3    H245809   2.466   3.349  10.931  0.3363 -0.8099  1.0159
 8132TIP3   OH245810   2.745   0.231  15.606  0.0393  0.3529  0.1833
 8132TIP3    H145811   2.682   0.297  15.635  0.0888  0.2397  0.5582
 8132TIP3    H245812   2.748   0.240  15.511 -1.4708 -0.4524  0.0221
 8133TIP3   OH245813   1.207   6.305   2.716 -0.7882 -0.0674 -0.9599
 8133TIP3    H145814   1.300   6.286   2.707 -0.9994 -1.9250  0.2689
 8133TIP3    H245815   1.203   6.384   2.769  0.0943 -1.3466  1.1098
 8134TIP3   OH245816   5.834   5.013  13.578  0.4252 -0.4076  0.4053
 8134TIP3    H145817   5.865   5.082  13.637  3.1313 -1.1188 -0.0367
 8134TIP3    H245818   5.793   5.060  13.505  0.8215  0.6701  0.8564
 8135TIP3   OH245819   5.092   1.070  12.979  0.4282  0.5089  0.4097
 8135TIP3    H145820   5.186   1.084  12.965  0.3909  0.1162 -0.2431
 8135TIP3    H245821   5.087   0.985  13.024  0.3128 -0.1079 -0.7435
 8136TIP3   OH245822   0.876   3.345  13.860  0.1407 -0.0811 -0.5345
 8136TIP3    H145823   0.897   3.435  13.837  1.4523  0.1858  1.4525
 8136TIP3    H245824   0.955   3.296  13.838 -0.0823 -0.5112 -0.3835
 8137TIP3   OH245825   3.259   0.226  13.544  0.5168 -0.3029  1.2732
 8137TIP3    H145826   3.290   0.294  13.604  1.7403  0.5549 -0.2650
 8137TIP3    H245827   3.247   0.271  13.460 -1.6392 -1.3573  0.9414
 8138TIP3   OH245828   4.555   2.834  16.810 -0.5477  0.0816 -0.0553
 8138TIP3    H145829   4.642   2.839  16.769 -0.4911 -3.7699 -0.7833
 8138TIP3    H245830   4.573   2.814  16.902 -0.6586 -0.3913 -0.1361
 8139TIP3   OH245831   5.329   4.815   6.242 -0.3432 -0.6103 -0.5103
 8139TIP3    H145832   5.239   4.847   6.255  0.0640  0.1221  0.7210
 8139TIP3    H245833   5.383   4.877   6.291  0.8282 -1.1295 -1.1160
 8140TIP3   OH245834   0.309   1.965   3.458  0.3590 -0.3675 -0.0050
 8140TIP3    H145835   0.338   1.897   3.519 -1.2976  0.9105  2.3466
 8140TIP3    H245836   0.245   1.920   3.402  0.0191 -1.0273  0.8733
 8141TIP3   OH245837   1.261   4.512  16.986 -0.1951 -0.0582  0.1266
 8141TIP3    H145838   1.224   4.593  16.951  0.5323 -0.8366 -2.6239
 8141TIP3    H245839   1.350   4.510  16.952 -0.1955 -2.0138  0.1591
 8142TIP3   OH245840   0.225   3.218  12.446  0.3581  0.0934  0.1482
 8142TIP3    H145841   0.162   3.280  12.481  1.6118  0.9938  0.8834
 8142TIP3    H245842   0.184   3.132  12.458 -1.7071  0.7503 -1.4948
 8143TIP3   OH245843   5.988   0.520   4.450  0.1057  0.4346 -0.3273
 8143TIP3    H145844   5.950   0.588   4.394  0.4901  0.6055 -0.3888
 8143TIP3    H245845   5.915   0.487   4.502 -0.1672  0.5905 -0.6097
 8144TIP3   OH245846   0.173   6.646   5.975  0.3437 -0.8665 -0.2416
 8144TIP3    H145847   0.183   6.582   6.046 -1.4700 -1.3233 -0.3484
 8144TIP3    H245848   0.235   6.618   5.909  0.1024 -2.1025  0.0252
 8145TIP3   OH245849   2.659   4.750  15.950 -0.1459 -0.0522 -0.0019
 8145TIP3    H145850   2.691   4.676  15.899 -0.5770  0.3665 -0.9176
 8145TIP3    H245851   2.576   4.720  15.988 -1.2758  0.4902 -1.8616
 8146TIP3   OH245852   3.858   2.195  13.470  0.1635  0.2813 -0.8288
 8146TIP3    H145853   3.842   2.286  13.495  0.9297 -0.1435  1.5208
 8146TIP3    H245854   3.790   2.145  13.516  0.0667 -0.3810 -1.6719
 8147TIP3   OH245855   1.499   2.158  12.433  0.3830  0.8541 -0.0069
 8147TIP3    H145856   1.528   2.067  12.423 -0.2232  0.6866 -0.2904
 8147TIP3    H245857   1.481   2.188  12.344  0.1948  1.1221  0.1210
 8148TIP3   OH245858   0.681   4.560  15.312 -0.0824 -0.4087  0.2874
 8148TIP3    H145859   0.691   4.523  15.224  2.1172 -0.5413  0.5546
 8148TIP3    H245860   0.660   4.485  15.367  2.2795 -1.0205  0.4650
 8149TIP3   OH245861   3.359   4.483   4.933  0.4527  0.1517 -0.1308
 8149TIP3    H145862   3.404   4.522   5.008  0.4513  0.6519 -0.3851
 8149TIP3    H245863   3.385   4.391   4.935  0.3936  0.1442  0.5254
 8150TIP3   OH245864   6.502   5.824   6.548 -0.0213 -0.5502 -0.0807
 8150TIP3    H145865   6.469   5.757   6.488  0.6538 -2.6689  1.7736
 8150TIP3    H245866   6.445   5.900   6.533  0.1994 -0.8998 -3.4164
 8151TIP3   OH245867   2.860   1.936  15.769 -0.6781  0.0287 -0.2141
 8151TIP3    H145868   2.939   1.984  15.794  1.5145 -1.9709 -2.6813
 8151TIP3    H245869   2.846   1.959  15.677 -2.2183 -0.6491 -0.1815
 8152TIP3   OH245870   2.921   4.154   0.816  0.1516 -0.3592 -0.4340
 8152TIP3    H145871   2.899   4.068   0.853  0.9471  0.0547  1.0656
 8152TIP3    H245872   2.913   4.141   0.721 -0.8229 -1.7775 -0.1986
 8153TIP3   OH245873   4.563   6.632   5.422  0.2979  0.5380 -0.0341
 8153TIP3    H145874   4.646   6.598   5.455  0.5949  1.6870  0.4704
 8153TIP3    H245875   4.588   6.695   5.354 -0.1583  0.7763  0.0114
 8154TIP3   OH245876   1.255   0.334   2.550  0.3367 -0.9399  0.3299
 8154TIP3    H145877   1.251   0.412   2.495  0.8880 -0.4060  1.0359
 8154TIP3    H245878   1.207   0.267   2.500 -2.3923  0.5065  0.8020
 8155TIP3   OH245879   2.788   4.382  14.638  0.2828  0.4459 -0.0852
 8155TIP3    H145880   2.832   4.304  14.673 -0.1183  0.3309  0.1682
 8155TIP3    H245881   2.698   4.375  14.669 -0.3541 -0.1723 -1.9626
 8156TIP3   OH245882   4.348   6.560  13.973 -0.1288 -0.0062  0.2967
 8156TIP3    H145883   4.427   6.514  13.944 -0.5905 -0.3065 -0.5059
 8156TIP3    H245884   4.280   6.534  13.911 -0.8795  0.2125  0.9995
 8157TIP3   OH245885   0.815   2.227   3.904  0.3042  0.3465 -0.1559
 8157TIP3    H145886   0.781   2.216   3.815  0.5617 -1.0377 -0.1029
 8157TIP3    H245887   0.880   2.297   3.895 -0.4935  1.0287 -0.8136
 8158TIP3   OH245888   2.247   6.552  11.071 -0.7893  0.0148 -0.4277
 8158TIP3    H145889   2.174   6.580  11.126  0.3235  1.0330  0.5844
 8158TIP3    H245890   2.220   6.574  10.982 -1.3756  1.1404  0.0144
 8159TIP3   OH245891   4.224   0.431  17.110 -0.4057 -0.3669  0.2519
 8159TIP3    H145892   4.318   0.422  17.125  0.1268  0.7750 -1.9580
 8159TIP3    H245893   4.206   0.524  17.124 -0.6371 -0.0421 -1.9214
 8160TIP3   OH245894   2.068   3.295   0.808 -1.1389  0.4433 -0.4584
 8160TIP3    H145895   2.036   3.385   0.814  0.3050  0.8993  1.5078
 8160TIP3    H245896   2.132   3.287   0.879 -1.5703 -2.2891 -0.2418
 8161TIP3   OH245897   2.645   6.619  14.906 -0.0247 -0.0135 -0.2248
 8161TIP3    H145898   2.674   6.574  14.986 -0.4869 -2.1211 -1.1540
 8161TIP3    H245899   2.722   6.667  14.877  0.3497  0.2547  1.1165
 8162TIP3   OH245900   4.060   2.489   6.314  0.1627 -0.3647 -0.6013
 8162TIP3    H145901   3.986   2.440   6.278 -0.8081  0.7799 -0.2128
 8162TIP3    H245902   4.041   2.494   6.408 -0.3424  1.6739 -0.7731
 8163TIP3   OH245903   4.289   6.129   1.139  0.1643  0.1399 -0.2988
 8163TIP3    H145904   4.302   6.124   1.044 -0.9876  1.2628 -0.5532
 8163TIP3    H245905   4.375   6.113   1.176  0.7004 -0.0027 -1.5476
 8164TIP3   OH245906   6.574   0.023  11.232 -0.4005 -0.2610 -0.0939
 8164TIP3    H145907   6.559  -0.026  11.152 -1.1602 -1.8440  0.9653
 8164TIP3    H245908   6.501   0.086  11.236 -0.3169 -0.1198 -0.6540
 8165TIP3   OH245909   4.752   1.987  16.997 -0.4565 -0.0293  0.3718
 8165TIP3    H145910   4.725   1.935  17.073 -0.3313  0.2471  0.6054
 8165TIP3    H245911   4.843   2.010  17.014 -0.3168 -0.2674 -0.0330
 8166TIP3   OH245912   2.309   1.731   4.292  0.6309  0.2346 -0.8664
 8166TIP3    H145913   2.241   1.666   4.307  0.7417 -0.1901 -2.1067
 8166TIP3    H245914   2.262   1.809   4.263  0.6457  0.0396 -1.4207
 8167TIP3   OH245915   3.809   0.823   4.585  0.0130 -0.0436 -0.4495
 8167TIP3    H145916   3.716   0.813   4.566 -0.1698  1.3433 -0.3742
 8167TIP3    H245917   3.812   0.864   4.672  0.6145  1.5696 -1.1744
 8168TIP3   OH245918   2.300   3.328   4.648  0.5710 -0.4600  0.2947
 8168TIP3    H145919   2.285   3.319   4.742  0.5916 -0.8488  0.2622
 8168TIP3    H245920   2.225   3.378   4.617  0.9331  0.3068  0.6322
 8169TIP3   OH245921   0.316   5.363   3.902 -0.1738  0.2345  0.2538
 8169TIP3    H145922   0.375   5.292   3.877 -0.2924  0.5351 -0.9055
 8169TIP3    H245923   0.367   5.417   3.963 -0.0395 -0.7528  1.0487
 8170TIP3   OH245924   2.807   5.165   3.013 -0.0819 -0.0976  0.3750
 8170TIP3    H145925   2.805   5.256   2.983  0.7522 -0.3886 -0.6439
 8170TIP3    H245926   2.745   5.120   2.957 -0.8267 -0.1021  1.1722
 8171TIP3   OH245927   4.148   2.333   2.077 -0.4149 -0.6514  0.4452
 8171TIP3    H145928   4.214   2.264   2.071  0.3032 -0.0599  1.3514
 8171TIP3    H245929   4.195   2.409   2.111 -0.4560  1.2372 -3.2182
 8172TIP3   OH245930   4.963   5.638  11.395  0.0683 -0.0659 -0.0024
 8172TIP3    H145931   4.896   5.590  11.444 -0.3680  1.1275  0.6219
 8172TIP3    H245932   5.005   5.694  11.461  2.3450 -1.4381 -0.1809
 8173TIP3   OH245933   2.794   2.364   6.884  0.1639 -0.3748 -0.5142
 8173TIP3    H145934   2.758   2.291   6.834  1.0790 -1.4087  0.2739
 8173TIP3    H245935   2.889   2.356   6.872  0.3863 -0.4331  1.0390
 8174TIP3   OH245936   6.730   6.612  15.033  0.2323 -1.0571 -0.1274
 8174TIP3    H145937   6.671   6.686  15.024 -0.7704 -1.5576  1.8664
 8174TIP3    H245938   6.783   6.633  15.110  1.0475 -1.6906 -0.4992
 8175TIP3   OH245939   1.188   2.320  13.957 -0.2200  0.1603  0.3293
 8175TIP3    H145940   1.232   2.398  13.921  0.8690 -0.6363 -0.1308
 8175TIP3    H245941   1.230   2.307  14.042 -0.0775 -0.1809  0.2066
 8176TIP3   OH245942   3.747   2.284   5.338  0.4679 -0.1882 -0.6447
 8176TIP3    H145943   3.712   2.371   5.315 -0.2318 -0.5808 -1.1118
 8176TIP3    H245944   3.834   2.302   5.373  0.3812  0.6956 -0.8461
 8177TIP3   OH245945   6.090   2.791  15.882  0.2683  0.1423  0.3083
 8177TIP3    H145946   6.066   2.726  15.815  1.9950  0.7897 -1.0167
 8177TIP3    H245947   6.185   2.787  15.886  0.2711  1.0128  1.8706
 8178TIP3   OH245948   1.270   0.409  14.450  0.6205 -0.0218  0.1076
 8178TIP3    H145949   1.240   0.476  14.510 -0.1988  0.1408 -0.4684
 8178TIP3    H245950   1.203   0.341  14.454  1.2003 -0.6028  0.3258
 8179TIP3   OH245951   2.608   3.347   2.183 -0.0271 -0.0423 -0.7292
 8179TIP3    H145952   2.653   3.396   2.251  0.3389  0.2052 -1.1474
 8179TIP3    H245953   2.551   3.287   2.231 -1.3771  1.5760 -0.1980
 8180TIP3   OH245954   2.236   4.743   6.525 -0.2411  0.7925  0.0452
 8180TIP3    H145955   2.273   4.696   6.600  0.7430 -0.3652 -1.1111
 8180TIP3    H245956   2.150   4.774   6.555  0.0413  0.1690  1.5615
 8181TIP3   OH245957   0.646   3.941   5.573  0.2775 -0.4523 -0.5017
 8181TIP3    H145958   0.626   3.848   5.567  0.0731 -0.5566  1.2549
 8181TIP3    H245959   0.687   3.962   5.489 -0.8715 -1.8078 -1.4583
 8182TIP3   OH245960   5.819   1.894  13.039 -0.0668  0.4554 -0.0525
 8182TIP3    H145961   5.807   1.933  13.126 -2.1200 -0.1874  0.0177
 8182TIP3    H245962   5.761   1.818  13.039 -0.1949  0.5065 -2.0298
 8183TIP3   OH245963   0.606   5.059  14.596 -0.1888  0.2481 -0.0981
 8183TIP3    H145964   0.641   5.147  14.609  0.1540  0.3497 -1.4997
 8183TIP3    H245965   0.667   5.002  14.642  0.0201  0.6737  0.1666
 8184TIP3   OH245966   3.561   0.887  12.418  0.0462  0.2394  0.3708
 8184TIP3    H145967   3.546   0.793  12.408 -0.6634  0.2599  1.1369
 8184TIP3    H245968   3.624   0.909  12.349  1.8569 -1.1857  1.4606
 8185TIP3   OH245969   2.797   6.364  13.400  0.6671 -0.3263 -0.5036
 8185TIP3    H145970   2.794   6.400  13.312 -1.2668 -2.5901 -1.4653
 8185TIP3    H245971   2.836   6.277  13.389 -1.2257 -1.3638  0.5462
 8186TIP3   OH245972   4.317   3.069   0.625 -0.1878 -0.1926 -0.3602
 8186TIP3    H145973   4.366   3.073   0.543  0.4499  1.0095  0.0502
 8186TIP3    H245974   4.323   3.158   0.661  0.0208 -0.8224  1.2593
 8187TIP3   OH245975   3.286   3.866  13.498 -0.1012  0.0559  0.1521
 8187TIP3    H145976   3.242   3.782  13.510  1.4588 -0.7022  0.8380
 8187TIP3    H245977   3.341   3.854  13.420 -0.0953  0.5458  0.0748
 8188TIP3   OH245978   3.548   3.272  11.489  0.2837 -0.4559 -0.2784
 8188TIP3    H145979   3.519   3.344  11.546  1.0197  0.0576 -0.5287
 8188TIP3    H245980   3.533   3.193  11.541  1.1379  0.0211  0.7422
 8189TIP3   OH245981   5.035   4.269  14.572 -0.1672  0.1730  0.7350
 8189TIP3    H145982   5.106   4.298  14.514 -0.5383  1.5114  0.9026
 8189TIP3    H245983   5.073   4.199  14.624  0.6629  0.0473 -0.0131
 8190TIP3   OH245984   6.154   5.330  15.696  0.0982 -0.0316  0.1282
 8190TIP3    H145985   6.232   5.353  15.646  0.8500 -1.4165  0.6079
 8190TIP3    H245986   6.118   5.254  15.650  0.0892 -0.5414  0.9615
 8191TIP3   OH245987   4.210   5.852  13.110 -0.1784 -0.0532 -0.4296
 8191TIP3    H145988   4.139   5.890  13.058 -0.9091 -1.9621 -0.9183
 8191TIP3    H245989   4.283   5.843  13.048  0.5742  1.9576  0.0857
 8192TIP3   OH245990   3.241   3.922   5.648 -0.1283  0.1373 -0.4531
 8192TIP3    H145991   3.324   3.954   5.683 -1.5397  0.9614  2.4165
 8192TIP3    H245992   3.217   3.849   5.706 -1.9601  0.7160 -0.3974
 8193TIP3   OH245993   3.732   4.325  15.559  0.2895  0.0343 -0.0536
 8193TIP3    H145994   3.795   4.274  15.508 -1.0128 -0.0445 -1.6258
 8193TIP3    H245995   3.770   4.412  15.563  1.0983 -0.3146  0.1071
 8194TIP3   OH245996   0.368   0.615   1.624  0.2644  0.0871 -0.5740
 8194TIP3    H145997   0.435   0.660   1.573  1.1659  1.6723  1.8214
 8194TIP3    H245998   0.416   0.549   1.673 -0.1376  0.3070  0.1289
 8195TIP3   OH245999   2.548   2.898  10.917  0.2145  0.0953 -0.5380
 8195TIP3    H146000   2.624   2.849  10.885 -0.4066  0.5028 -2.8899
 8195TIP3    H246001   2.476   2.834  10.918  0.5279 -0.2954  1.6958
 8196TIP3   OH246002   6.680   2.054  14.477  0.0322  0.1087 -0.3939
 8196TIP3    H146003   6.752   2.099  14.521 -0.3545  0.6707 -0.3187
 8196TIP3    H246004   6.707   2.049  14.385  1.3893 -2.1567  0.0596
 8197TIP3   OH246005   1.693   0.382   0.100  0.3876  0.3179  0.3800
 8197TIP3    H146006   1.759   0.447   0.124  1.1914 -0.3043 -0.0945
 8197TIP3    H246007   1.732   0.333   0.028 -0.2280 -0.6427  0.6786
 8198TIP3   OH246008   0.655   1.405  14.603 -0.0298  0.6514 -0.2083
 8198TIP3    H146009   0.590   1.360  14.549 -1.0120  0.3802  1.1380
 8198TIP3    H246010   0.694   1.335  14.656  2.0932  0.6582 -1.6675
 8199TIP3   OH246011   0.470   2.123  13.198  0.1200 -0.3830 -0.4737
 8199TIP3    H146012   0.522   2.138  13.277  0.7828  2.3720 -1.3263
 8199TIP3    H246013   0.381   2.149  13.222  0.0120 -0.9305 -0.2574
 8200TIP3   OH246014   5.540   2.217   2.091 -0.2844 -0.1623 -0.3985
 8200TIP3    H146015   5.610   2.163   2.053  0.4618  0.1962  0.4186
 8200TIP3    H246016   5.459   2.172   2.067  0.2076 -0.4090 -1.6400
 8201TIP3   OH246017   0.368   1.279  17.200 -0.0001  1.0035  0.1169
 8201TIP3    H146018   0.311   1.202  17.209  0.7450  0.4487  0.1931
 8201TIP3    H246019   0.309   1.349  17.174 -0.4628  0.0253 -1.6494
 8202TIP3   OH246020   3.855   0.608   6.454  1.0547 -0.1141 -0.1879
 8202TIP3    H146021   3.890   0.696   6.440 -0.0284  0.3047 -0.3553
 8202TIP3    H246022   3.762   0.621   6.474  0.2002 -1.3192 -2.8204
 8203TIP3   OH246023   0.128   1.578  13.288 -0.1902  0.5738 -0.2593
 8203TIP3    H146024   0.112   1.668  13.259  0.4690  0.2308 -1.7846
 8203TIP3    H246025   0.204   1.585  13.346  1.0978  0.7849 -1.9160
 8204TIP3   OH246026   3.163   1.609   2.365  0.2094  0.3984  0.2328
 8204TIP3    H146027   3.107   1.667   2.418  1.8837  1.8570  0.5320
 8204TIP3    H246028   3.174   1.531   2.419 -1.3208  0.1861  0.2638
 8205TIP3   OH246029   0.755   4.908  11.963 -0.3223  0.2971  0.9373
 8205TIP3    H146030   0.748   4.825  12.010  0.4954  0.5801  1.5813
 8205TIP3    H246031   0.689   4.965  12.005 -0.1162  0.3137  1.2424
 8206TIP3   OH246032   2.960   3.515  13.007  0.0217  0.4842  0.0231
 8206TIP3    H146033   2.873   3.525  13.045  0.5763  0.0896  1.4565
 8206TIP3    H246034   2.945   3.464  12.927 -0.9309 -0.7397  0.9309
 8207TIP3   OH246035   0.907   4.700   5.998  0.2799 -0.7532  0.0456
 8207TIP3    H146036   0.990   4.747   5.986  0.7709 -0.8118  2.6214
 8207TIP3    H246037   0.845   4.767   6.026 -0.9227 -0.5219 -2.8559
 8208TIP3   OH246038   1.633   0.496  16.409 -0.0683 -0.2448 -0.3638
 8208TIP3    H146039   1.699   0.532  16.349  2.5269 -0.2590  2.2751
 8208TIP3    H246040   1.602   0.572  16.458  0.0741 -0.6127  0.3010
 8209TIP3   OH246041   2.831   6.555   5.887  0.1550 -0.7448 -0.6893
 8209TIP3    H146042   2.918   6.522   5.863  1.0405  0.9633 -0.0157
 8209TIP3    H246043   2.800   6.600   5.808  0.3793 -0.3855 -0.5730
 8210TIP3   OH246044   0.032   3.717  15.899  0.0132  0.1192  0.1744
 8210TIP3    H146045  -0.001   3.724  15.988  0.8494  0.2164  0.4873
 8210TIP3    H246046   0.108   3.659  15.906 -0.3279 -0.4329 -0.5901
 8211TIP3   OH246047   2.125   3.066  17.097 -0.6935  0.0544 -0.4312
 8211TIP3    H146048   2.107   2.994  17.158  1.6117  0.9559  1.4927
 8211TIP3    H246049   2.124   3.025  17.011  1.2085 -2.5315  0.6199
 8212TIP3   OH246050   5.699   1.085  10.596  0.5049 -0.3637  0.4121
 8212TIP3    H146051   5.757   1.026  10.548  0.9871 -0.0025  0.5436
 8212TIP3    H246052   5.755   1.158  10.622  0.2341 -0.5272  1.4778
 8213TIP3   OH246053   3.866   1.257  14.170  0.0186  0.7715 -0.3091
 8213TIP3    H146054   3.866   1.227  14.261 -1.7227  1.1198 -0.1609
 8213TIP3    H246055   3.952   1.231  14.137  0.4036 -0.0447  1.2068
 8214TIP3   OH246056   3.091   1.203   5.397  0.0552  0.6704  0.0841
 8214TIP3    H146057   3.115   1.120   5.438 -0.3383  0.4402 -0.1492
 8214TIP3    H246058   3.019   1.181   5.339 -1.6862  1.5815  1.7935
 8215TIP3   OH246059   3.168   0.665  17.102  0.1860  0.1784 -0.1632
 8215TIP3    H146060   3.134   0.638  17.017  0.4085 -3.2679  0.6543
 8215TIP3    H246061   3.094   0.710  17.144 -0.3762  0.6917 -1.6364
 8216TIP3   OH246062   3.594   2.175  12.962  0.2012 -0.5980  0.0155
 8216TIP3    H146063   3.542   2.098  12.938 -0.2322 -0.3631  0.1917
 8216TIP3    H246064   3.600   2.171  13.057  0.4428 -0.5846  0.0007
 8217TIP3   OH246065   4.074   1.596   6.432  0.3060 -0.5382 -0.5083
 8217TIP3    H146066   4.047   1.687   6.423 -0.8426 -0.7138  0.7798
 8217TIP3    H246067   4.145   1.598   6.496 -0.1276 -0.5984 -0.0194
 8218TIP3   OH246068   6.100   2.702  12.714  0.4095  0.1134 -0.2776
 8218TIP3    H146069   6.181   2.652  12.715  0.2247 -0.2532  1.8293
 8218TIP3    H246070   6.124   2.788  12.749 -0.0336  0.1344 -0.0105
 8219TIP3   OH246071   2.407   5.368  15.182  0.1550  0.7666  0.4286
 8219TIP3    H146072   2.467   5.414  15.124 -0.8063  1.7572  0.1893
 8219TIP3    H246073   2.440   5.278  15.185  1.6625  1.3026  0.3590
 8220TIP3   OH246074   4.471   4.274   0.592 -0.1351 -0.0391 -0.2809
 8220TIP3    H146075   4.409   4.344   0.609  0.3300  0.5846 -1.0698
 8220TIP3    H246076   4.554   4.319   0.574  0.7095 -0.8648  1.3498
 8221TIP3   OH246077   5.470   2.116  17.019 -0.1016  0.0462 -0.2550
 8221TIP3    H146078   5.475   2.022  17.000 -1.7938 -0.3338  0.9711
 8221TIP3    H246079   5.490   2.158  16.935 -0.1110 -1.4246 -1.0348
 8222TIP3   OH246080   1.180   2.724   5.216  0.4779  0.1491  0.7778
 8222TIP3    H146081   1.240   2.791   5.248 -0.3742  0.3763  2.0169
 8222TIP3    H246082   1.172   2.662   5.289 -1.5536  0.6765  1.0631
 8223TIP3   OH246083   1.853   1.988  10.689 -0.1255 -0.5321  0.0380
 8223TIP3    H146084   1.841   2.083  10.695  1.2266 -0.3864  0.9798
 8223TIP3    H246085   1.897   1.975  10.605 -0.1521 -0.3038 -0.0123
 8224TIP3   OH246086   0.485   4.159   5.507  0.0294  0.6130 -0.5921
 8224TIP3    H146087   0.557   4.098   5.518 -1.7023 -1.5362 -0.5210
 8224TIP3    H246088   0.527   4.244   5.494  2.4995 -0.1128  1.8135
 8225TIP3   OH246089   4.835   2.282  17.079 -0.4340 -0.2037  0.5972
 8225TIP3    H146090   4.903   2.218  17.059 -0.5906 -0.1817 -0.0459
 8225TIP3    H246091   4.835   2.289  17.174  0.8052  0.1700  0.5948
 8226TIP3   OH246092   2.735   1.791   0.520  0.5975  0.8755  0.7633
 8226TIP3    H146093   2.693   1.851   0.459 -1.0206  0.8628  1.8139
 8226TIP3    H246094   2.820   1.832   0.537 -0.1105  2.4475  0.7865
 8227TIP3   OH246095   2.888   3.715   2.177  0.0358  0.0378  0.2603
 8227TIP3    H146096   2.828   3.788   2.167 -0.1748  0.5893  4.0276
 8227TIP3    H246097   2.968   3.743   2.134 -1.3169  0.6710 -1.9705
 8228TIP3   OH246098   1.144   6.194  15.464 -0.0289  0.0315  0.6107
 8228TIP3    H146099   1.128   6.251  15.388  1.1385  1.1019  1.1430
 8228TIP3    H246100   1.122   6.106  15.432 -1.8107  0.7236 -0.2449
 8229TIP3   OH246101   6.745   4.230  11.640 -0.8793  0.4280 -0.1569
 8229TIP3    H146102   6.821   4.281  11.613 -0.8839  1.5754  1.8364
 8229TIP3    H246103   6.779   4.142  11.656  0.0518  0.9426  0.7658
 8230TIP3   OH246104   6.586   2.379   2.866  1.0541  0.1028 -0.5686
 8230TIP3    H146105   6.625   2.296   2.893 -0.8258 -1.5149 -2.4289
 8230TIP3    H246106   6.636   2.405   2.789 -0.5231 -1.2587 -2.1334
 8231TIP3   OH246107   0.141   2.054   3.784  0.0690  0.4776  0.0125
 8231TIP3    H146108   0.066   2.050   3.843 -0.7283  3.1151 -0.7108
 8231TIP3    H246109   0.143   1.968   3.742 -1.2867 -0.3407  1.5098
 8232TIP3   OH246110   5.724   3.584   1.001  0.0637  0.3745 -0.7504
 8232TIP3    H146111   5.765   3.548   0.923  2.1304  0.0363  0.4210
 8232TIP3    H246112   5.747   3.677   0.999 -1.2290  0.7074 -1.3176
 8233TIP3   OH246113   0.491   0.996   2.512 -0.7113  0.2119 -0.3938
 8233TIP3    H146114   0.571   0.943   2.514  0.4811  1.8840 -1.2308
 8233TIP3    H246115   0.420   0.933   2.513  0.5957 -1.3342  0.7806
 8234TIP3   OH246116   0.683   3.734  15.479  0.4894 -0.5179  0.3632
 8234TIP3    H146117   0.777   3.715  15.488  0.7818 -0.8095 -2.2564
 8234TIP3    H246118   0.651   3.666  15.420 -1.2721 -0.1320  0.8355
 8235TIP3   OH246119   1.293   0.696  14.091  0.2386  0.0083  0.3764
 8235TIP3    H146120   1.223   0.640  14.124 -0.0822 -0.2632 -0.7432
 8235TIP3    H246121   1.250   0.753  14.027  0.6487  1.2265  1.1425
 8236TIP3   OH246122   3.987   3.180   2.750 -0.5133  0.0720  0.0783
 8236TIP3    H146123   3.993   3.216   2.838  1.6537 -1.3854  0.6073
 8236TIP3    H246124   4.055   3.226   2.701  0.0937 -0.9899 -0.0957
 8237TIP3   OH246125   5.744   1.536  14.120  0.2871 -0.2932 -0.6344
 8237TIP3    H146126   5.767   1.625  14.094 -1.2992 -0.3226 -2.3593
 8237TIP3    H246127   5.801   1.480  14.067 -0.2298 -0.3089 -1.1848
 8238TIP3   OH246128   5.600   6.131  16.841  0.0167  0.4880 -0.1677
 8238TIP3    H146129   5.647   6.057  16.802 -0.2461  0.0502  0.3365
 8238TIP3    H246130   5.631   6.207  16.792  0.0821  0.0132 -0.8813
 8239TIP3   OH246131   5.048   5.732  11.952  0.1608  0.2343  0.1013
 8239TIP3    H146132   5.032   5.723  11.858 -1.6276 -0.3027  0.4201
 8239TIP3    H246133   4.991   5.667  11.993  0.2656  1.0386  1.6072
 8240TIP3   OH246134   3.388   0.058   3.621 -0.1513 -0.4874  0.4984
 8240TIP3    H146135   3.414   0.122   3.555  2.0032  0.5337  2.2381
 8240TIP3    H246136   3.382  -0.025   3.572  2.7581 -0.0610 -0.8230
 8241TIP3   OH246137   0.301   6.580   3.047  0.6409 -0.4862  0.4526
 8241TIP3    H146138   0.304   6.596   2.953  0.2338 -0.7517  0.3884
 8241TIP3    H246139   0.233   6.513   3.057 -0.8586  1.0906  1.1515
 8242TIP3   OH246140   1.641   2.086  15.440 -0.0768  0.2050 -0.1492
 8242TIP3    H146141   1.583   2.094  15.516 -0.3849  2.0397 -0.5280
 8242TIP3    H246142   1.706   2.155  15.452  1.0054 -0.6941 -0.6283
 8243TIP3   OH246143   6.541   0.856  12.026  0.3809 -0.1704  0.7631
 8243TIP3    H146144   6.550   0.931  11.968 -0.0117 -0.1968  0.6673
 8243TIP3    H246145   6.548   0.780  11.968  2.0536 -0.2481  1.0165
 8244TIP3   OH246146   3.723   4.856   5.053 -0.1498 -0.4433  0.0441
 8244TIP3    H146147   3.778   4.847   5.131  1.4389 -0.1777 -0.9839
 8244TIP3    H246148   3.719   4.950   5.038  1.0992 -0.5506 -1.1832
 8245TIP3   OH246149   1.037   1.359   4.067  0.3668 -0.1059  0.5520
 8245TIP3    H146150   1.112   1.379   4.011  0.8439 -3.1157 -0.0438
 8245TIP3    H246151   1.075   1.351   4.155  0.5758 -0.6044  0.4198
 8246TIP3   OH246152   5.425   6.118   0.373  0.0548  0.6229  0.2465
 8246TIP3    H146153   5.506   6.067   0.376 -0.3724 -0.1805 -0.9723
 8246TIP3    H246154   5.446   6.199   0.419  0.8994 -0.4344  1.8134
 8247TIP3   OH246155   5.319   5.010   5.609 -0.0553  0.4220 -0.3715
 8247TIP3    H146156   5.292   5.042   5.523  1.2961 -0.9921 -1.3936
 8247TIP3    H246157   5.269   4.929   5.620  0.6785 -0.0563 -0.4337
 8248TIP3   OH246158   4.785   6.111  11.443  0.5266  0.0944 -0.1644
 8248TIP3    H146159   4.855   6.176  11.433  0.3069  0.3793  0.1271
 8248TIP3    H246160   4.746   6.104  11.356  2.0443 -1.3621 -0.7700
 8249TIP3   OH246161   4.682   3.408  15.336  0.1760 -0.0063 -0.1528
 8249TIP3    H146162   4.656   3.394  15.246  0.7235 -0.5111 -0.2354
 8249TIP3    H246163   4.735   3.488  15.334  1.1854 -0.6691 -0.4784
 8250TIP3   OH246164   2.828   5.022   1.581  0.3139 -0.3923 -0.1824
 8250TIP3    H146165   2.791   4.950   1.631 -0.6751  1.2487  1.5870
 8250TIP3    H246166   2.907   5.046   1.629  1.3753 -1.0765 -1.5045
 8251TIP3   OH246167   3.110   1.269   0.270 -0.2037  0.5999  0.4638
 8251TIP3    H146168   3.141   1.216   0.197 -2.5806  0.6267 -0.6657
 8251TIP3    H246169   3.189   1.299   0.314  1.2530 -1.1565 -0.8350
 8252TIP3   OH246170   3.756   5.803  15.138  0.0155 -0.0562 -0.0721
 8252TIP3    H146171   3.692   5.822  15.070 -0.7630  0.0809  0.6771
 8252TIP3    H246172   3.836   5.781  15.091 -0.1195  1.3843 -1.0073
 8253TIP3   OH246173   4.582   1.598  16.308 -0.3499 -0.0640 -0.0455
 8253TIP3    H146174   4.502   1.545  16.312 -1.9149  2.1782  0.5532
 8253TIP3    H246175   4.551   1.688  16.319  1.9841  1.1736 -2.4296
 8254TIP3   OH246176   3.653   1.924   5.728 -0.5512  0.1563  0.1986
 8254TIP3    H146177   3.684   2.014   5.730  2.0534 -0.6788  1.2080
 8254TIP3    H246178   3.709   1.880   5.664 -1.8129 -0.7632 -0.3210
 8255TIP3   OH246179   3.721   4.168  14.242  0.0565  0.2516 -0.7720
 8255TIP3    H146180   3.683   4.088  14.278  0.9849  0.2600  0.2991
 8255TIP3    H246181   3.783   4.139  14.175  2.0561 -0.1411  1.1202
 8256TIP3   OH246182   4.590   0.121  13.070  0.5761 -0.0669  0.0841
 8256TIP3    H146183   4.569   0.063  12.997  0.5744  0.2900 -0.2031
 8256TIP3    H246184   4.659   0.075  13.118 -1.4142 -1.6735  1.5637
 8257TIP3   OH246185   4.621   3.181  13.285 -0.2070  0.0614  0.1713
 8257TIP3    H146186   4.551   3.234  13.321 -0.5121 -0.5335  0.4788
 8257TIP3    H246187   4.698   3.237  13.286 -0.0809 -0.0926  2.2574
 8258TIP3   OH246188   6.527   1.464  11.691 -0.2913  0.4419  0.3141
 8258TIP3    H146189   6.520   1.514  11.772  0.7212 -0.7877  1.2066
 8258TIP3    H246190   6.619   1.440  11.685 -0.8808 -2.2261  0.5273
 8259TIP3   OH246191   2.246   0.888   5.378 -0.7761  0.5170 -0.6174
 8259TIP3    H146192   2.312   0.946   5.416 -2.6230  3.0073 -0.9775
 8259TIP3    H246193   2.255   0.806   5.427  1.0694  1.5256  0.8545
 8260TIP3   OH246194   4.812   6.000  14.122 -0.2377 -0.0239 -0.1044
 8260TIP3    H146195   4.792   6.037  14.036  2.1241  2.2589  0.2300
 8260TIP3    H246196   4.808   6.075  14.182 -1.1807 -1.4473  1.7076
 8261TIP3   OH246197   6.163   2.976   5.512 -0.2010  0.4001  0.0358
 8261TIP3    H146198   6.224   3.047   5.533  0.8945 -0.2574 -0.8038
 8261TIP3    H246199   6.141   2.990   5.420  0.8071 -0.8843 -0.4296
 8262TIP3   OH246200   2.949   2.789  16.556  0.1489 -0.1491  0.6319
 8262TIP3    H146201   2.947   2.740  16.474  1.3400  0.5191  0.1709
 8262TIP3    H246202   2.880   2.855  16.545  0.5536  0.1833 -0.0122
 8263TIP3   OH246203   0.015   1.303   6.455  0.1290 -0.3157  0.0619
 8263TIP3    H146204  -0.019   1.335   6.538  1.4007 -0.1483  0.5336
 8263TIP3    H246205   0.100   1.346   6.445  1.3052 -2.4741  0.0838
 8264TIP3   OH246206   3.228   5.585  14.362  0.1841 -0.3165 -0.4527
 8264TIP3    H146207   3.235   5.680  14.374 -1.7392 -0.1736 -0.0295
 8264TIP3    H246208   3.133   5.569  14.358  0.4860 -2.1428 -1.1887
 8265TIP3   OH246209   4.343   0.969  14.542  0.1641 -0.4267  0.2183
 8265TIP3    H146210   4.390   1.038  14.590  1.7891 -1.0887 -0.3234
 8265TIP3    H246211   4.363   0.889  14.590 -0.9336 -0.6522  0.3066
 8266TIP3   OH246212   6.354   1.141  12.745  0.6157 -0.1379  0.4371
 8266TIP3    H146213   6.381   1.181  12.663  1.8032 -1.1318  0.3191
 8266TIP3    H246214   6.360   1.047  12.729 -0.7878 -0.3793  1.1376
 8267TIP3   OH246215   1.209   0.047   1.723  0.4525  0.3084 -0.2251
 8267TIP3    H146216   1.205  -0.040   1.683  0.7634  0.3924 -0.4434
 8267TIP3    H246217   1.210   0.108   1.649  0.2313  0.4991 -0.0718
 8268TIP3   OH246218   5.411   6.055   0.679  0.4976 -0.5222 -0.2755
 8268TIP3    H146219   5.432   6.145   0.706  0.6895 -1.0502  1.4766
 8268TIP3    H246220   5.494   6.018   0.650  0.4264 -0.1476 -0.9590
 8269TIP3   OH246221   5.895   1.473   1.310 -0.1171  0.2622 -0.4043
 8269TIP3    H146222   5.821   1.494   1.367  0.2645 -1.2169  0.7181
 8269TIP3    H246223   5.967   1.526   1.344 -0.0848 -0.0460  0.0240
 8270TIP3   OH246224   2.188   3.698  15.455 -0.4535 -0.1280  0.1042
 8270TIP3    H146225   2.196   3.632  15.524 -2.0954 -0.2181  0.2668
 8270TIP3    H246226   2.198   3.781  15.501 -1.0543 -0.2037  0.3931
 8271TIP3   OH246227   2.240   2.364   4.378  0.9867  0.0543  0.6208
 8271TIP3    H146228   2.277   2.393   4.461  0.4167  0.3532  0.7773
 8271TIP3    H246229   2.241   2.442   4.322 -0.8711  0.5134  1.1567
 8272TIP3   OH246230   2.105   3.772   1.757 -0.6695  0.1861 -0.0277
 8272TIP3    H146231   2.061   3.794   1.839 -0.9593 -1.0699  0.1690
 8272TIP3    H246232   2.125   3.857   1.717 -2.2248  0.8108  0.4391
 8273TIP3   OH246233   5.815   3.901   1.239  0.0071  0.1422  0.4998
 8273TIP3    H146234   5.887   3.932   1.293 -0.5453  1.0934  0.7065
 8273TIP3    H246235   5.858   3.861   1.163  0.7535  0.5131  0.7156
 8274TIP3   OH246236   1.060   1.560  13.913  0.4803  0.1830  0.1880
 8274TIP3    H146237   0.970   1.585  13.935 -0.3001 -1.9671 -0.3289
 8274TIP3    H246238   1.110   1.641  13.921 -1.0862  1.0154  2.6385
 8275TIP3   OH246239   1.338   4.777  12.371  0.1775 -0.4170 -0.2433
 8275TIP3    H146240   1.258   4.741  12.332  0.8264 -3.0493  0.6285
 8275TIP3    H246241   1.362   4.849  12.314  0.0134 -2.8278 -3.6312
 8276TIP3   OH246242   1.989   3.127   2.898 -0.3821  0.0544 -0.0640
 8276TIP3    H146243   2.050   3.146   2.827 -1.1412  0.4006 -0.6495
 8276TIP3    H246244   2.038   3.147   2.978 -0.2305  1.9130 -0.5675
 8277TIP3   OH246245   1.107   5.204  13.285  0.3581 -0.3693 -0.0806
 8277TIP3    H146246   1.119   5.111  13.299  0.6675 -0.1475  1.1935
 8277TIP3    H246247   1.121   5.244  13.370 -0.3353  0.7938 -0.4809
 8278TIP3   OH246248   1.869   4.064  16.585  0.1429 -0.4620  0.0774
 8278TIP3    H146249   1.901   3.979  16.616  1.4008  0.2173  0.7171
 8278TIP3    H246250   1.774   4.057  16.589  0.2443 -1.1399  2.0980
 8279TIP3   OH246251   2.804   3.719  16.091 -0.3080  0.3991  0.8353
 8279TIP3    H146252   2.864   3.765  16.032  1.0293  0.1018  1.9226
 8279TIP3    H246253   2.814   3.764  16.175 -0.1883 -0.8451  1.5051
 8280TIP3   OH246254   5.668   0.535   6.796 -0.1808 -0.2747  0.0307
 8280TIP3    H146255   5.664   0.557   6.889 -0.1760  0.6816 -0.1843
 8280TIP3    H246256   5.698   0.615   6.754  0.1189 -0.7960 -0.7676
 8281TIP3   OH246257   6.290   1.496  12.591 -0.4643  0.3292  0.1055
 8281TIP3    H146258   6.272   1.517  12.499  1.2115  1.0781 -0.1052
 8281TIP3    H246259   6.205   1.477  12.629 -0.9971 -2.7051 -2.2224
 8282TIP3   OH246260   6.485   2.768   2.825 -0.0998 -0.1927  0.1100
 8282TIP3    H146261   6.394   2.770   2.795  0.1012 -0.5261 -0.5288
 8282TIP3    H246262   6.537   2.773   2.745  0.4505  0.5299  0.4976
 8283TIP3   OH246263   5.896   3.377  15.843  0.1291  0.4369 -0.0561
 8283TIP3    H146264   5.941   3.450  15.801  0.2475 -0.2557 -1.2012
 8283TIP3    H246265   5.812   3.371  15.798  1.1087 -1.6765 -1.8353
 8284TIP3   OH246266   2.686   4.909   0.014 -0.1132 -0.4267  0.3213
 8284TIP3    H146267   2.694   5.000  -0.016  1.6886 -0.9901 -1.1100
 8284TIP3    H246268   2.615   4.873  -0.039  0.5236 -0.3815 -0.5843
 8285TIP3   OH246269   5.401   6.112  14.358 -0.1304 -0.2458 -0.2007
 8285TIP3    H146270   5.468   6.057  14.320  0.9896  0.2388  0.9936
 8285TIP3    H246271   5.427   6.201  14.335 -1.2893 -0.1257 -1.1316
 8286TIP3   OH246272   4.729   1.818   5.732 -0.4872 -0.1832 -0.1441
 8286TIP3    H146273   4.746   1.793   5.641 -1.2368 -3.3828  0.4615
 8286TIP3    H246274   4.642   1.857   5.730  0.4362  2.0200 -1.0485
 8287TIP3   OH246275   3.713   4.270  11.267 -0.5478  0.0491 -0.5222
 8287TIP3    H146276   3.658   4.322  11.208 -1.6081 -0.2404  0.1700
 8287TIP3    H246277   3.735   4.192  11.217 -1.8368 -0.4123 -0.4029
 8288TIP3   OH246278   0.546   6.671   2.020 -0.3612 -0.3020 -0.1528
 8288TIP3    H146279   0.558   6.704   1.930  0.5861  1.9687  0.7176
 8288TIP3    H246280   0.594   6.588   2.022  2.9728  1.4097 -0.8210
 8289TIP3   OH246281   5.203   0.946   3.808 -0.0956 -0.0191 -0.2730
 8289TIP3    H146282   5.262   0.871   3.812  0.8574  0.7527  0.8642
 8289TIP3    H246283   5.253   1.013   3.761 -0.7582  0.0674 -0.8707
 8290TIP3   OH246284   6.728   2.730  12.801  0.5720  0.2774 -0.3949
 8290TIP3    H146285   6.661   2.713  12.867  0.3268 -0.5101 -0.8298
 8290TIP3    H246286   6.810   2.735  12.850  0.3576 -0.0350 -0.0015
 8291TIP3   OH246287   2.079   4.482   0.919 -0.1791 -0.2140 -0.1255
 8291TIP3    H146288   2.129   4.452   0.843  1.5498 -2.1511  1.6404
 8291TIP3    H246289   2.145   4.492   0.988 -1.4984  2.7159  0.8470
 8292TIP3   OH246290   4.619   4.202   5.105  0.4422 -0.4389 -0.2084
 8292TIP3    H146291   4.598   4.126   5.052 -0.5713 -0.0664 -0.3732
 8292TIP3    H246292   4.714   4.209   5.102  0.3834  0.5227 -3.3376
 8293TIP3   OH246293   0.645   5.296   0.517  0.4505 -0.4053  0.0993
 8293TIP3    H146294   0.649   5.214   0.566 -0.6904 -0.6173 -0.1258
 8293TIP3    H246295   0.551   5.313   0.507  0.6718  0.9313  0.1387
 8294TIP3   OH246296   4.251   5.777  13.794 -0.1618  0.2233 -0.0470
 8294TIP3    H146297   4.333   5.815  13.762  0.3751 -0.7094  0.1876
 8294TIP3    H246298   4.202   5.756  13.714  0.6233 -0.9102 -0.2568
 8295TIP3   OH246299   0.237   2.161  16.398  0.3871 -0.1021 -0.0657
 8295TIP3    H146300   0.285   2.084  16.368  1.4435  0.7456 -0.6597
 8295TIP3    H246301   0.246   2.160  16.493 -0.6988 -1.3726  0.0523
 8296TIP3   OH246302   4.796   0.039   1.085  0.5460  0.4837 -0.2703
 8296TIP3    H146303   4.888   0.058   1.101  0.3397  0.5722  0.8594
 8296TIP3    H246304   4.777  -0.038   1.139 -0.1038  0.6048 -0.3165
 8297TIP3   OH246305   5.066   5.220  16.201  0.2213  0.6246  0.5593
 8297TIP3    H146306   5.011   5.292  16.171  1.8448  1.7297  0.0832
 8297TIP3    H246307   5.112   5.191  16.123 -0.5270 -1.0865  0.7141
 8298TIP3   OH246308   0.460   3.568   4.941  0.0366  0.3854 -0.3519
 8298TIP3    H146309   0.457   3.565   5.037  2.0564  1.1869 -0.2171
 8298TIP3    H246310   0.370   3.547   4.914 -0.4965 -0.2461  1.6868
 8299TIP3   OH246311   5.509   0.415   2.847  0.4982  0.0997 -0.3167
 8299TIP3    H146312   5.498   0.404   2.941 -1.6069 -0.9507 -0.6329
 8299TIP3    H246313   5.603   0.403   2.832  0.8795  0.3407  1.6265
 8300TIP3   OH246314   1.335   6.636   6.432  0.0335  0.0505 -0.4159
 8300TIP3    H146315   1.306   6.546   6.448  1.6210 -0.3864  0.1435
 8300TIP3    H246316   1.339   6.642   6.336  0.1202 -0.5499 -0.4597
 8301TIP3   OH246317   1.431   5.819   2.648  0.5785  0.6719  0.5372
 8301TIP3    H146318   1.467   5.892   2.598  0.0823  0.3643 -0.2976
 8301TIP3    H246319   1.490   5.746   2.629 -0.9132 -0.0921 -1.6102
 8302TIP3   OH246320   3.292   2.329  15.414  0.0301  0.2976  0.1079
 8302TIP3    H146321   3.236   2.385  15.360  1.4356 -0.8389 -2.7397
 8302TIP3    H246322   3.232   2.276  15.465 -1.5684 -0.5849 -2.5105
 8303TIP3   OH246323   2.960   0.502   3.978  0.5811 -0.6382  0.3414
 8303TIP3    H146324   3.036   0.534   4.028  0.9818  0.0094 -0.6634
 8303TIP3    H246325   2.970   0.540   3.891  1.1627 -3.5571 -1.0101
 8304TIP3   OH246326   1.085   5.412  15.189  0.2408  0.3106 -0.0211
 8304TIP3    H146327   1.073   5.354  15.114 -1.2070  0.3237  0.1679
 8304TIP3    H246328   1.110   5.354  15.261 -1.7690 -0.2177  0.3129
 8305TIP3   OH246329   1.642   4.285   5.036  0.4000  0.4260 -0.4148
 8305TIP3    H146330   1.574   4.346   5.066  0.7181 -0.1851  1.7091
 8305TIP3    H246331   1.608   4.199   5.059  2.5998  0.1847  2.4939
 8306TIP3   OH246332   5.251   2.287   2.051 -0.0261 -0.1808 -0.7315
 8306TIP3    H146333   5.241   2.326   1.964 -1.4363 -0.1184 -0.5602
 8306TIP3    H246334   5.261   2.194   2.034 -3.1607 -0.6067 -0.9248
 8307TIP3   OH246335   2.543   0.624  15.437 -0.1689 -0.0753  0.4552
 8307TIP3    H146336   2.450   0.636  15.453 -0.0066 -1.0327  2.3315
 8307TIP3    H246337   2.584   0.629  15.523  1.4001 -0.6878 -0.2043
 8308TIP3   OH246338   2.971   3.724  14.970 -0.3941 -0.3050  0.6042
 8308TIP3    H146339   2.989   3.681  14.886  0.8089  0.8612  0.2289
 8308TIP3    H246340   2.930   3.656  15.023 -1.5931 -0.9386 -1.0596
 8309TIP3   OH246341   4.372   6.654  15.514 -0.6270 -0.1605  0.1379
 8309TIP3    H146342   4.420   6.590  15.567  0.2426 -0.5135 -1.0424
 8309TIP3    H246343   4.439   6.710  15.476 -1.1579 -0.3909 -1.2010
 8310TIP3   OH246344   6.018   2.261   6.063 -0.7695 -0.0513 -0.1312
 8310TIP3    H146345   6.034   2.307   5.981  0.6493 -0.8725 -0.3342
 8310TIP3    H246346   6.032   2.168   6.042 -2.0103 -0.4444  0.6552
 8311TIP3   OH246347   0.431   4.135  16.920 -0.4376  0.7438 -0.1354
 8311TIP3    H146348   0.364   4.070  16.942 -1.0824  1.8829  1.4045
 8311TIP3    H246349   0.442   4.187  16.999  0.4408  2.2014 -1.1593
 8312TIP3   OH246350   4.627   2.747  11.848  0.0684  0.3084 -0.1471
 8312TIP3    H146351   4.621   2.819  11.785 -1.7359  0.7097  0.4027
 8312TIP3    H246352   4.563   2.770  11.916 -0.7701 -1.9344 -0.0868
 8313TIP3   OH246353   0.729   6.318   5.872  0.4777  0.6124  0.3732
 8313TIP3    H146354   0.775   6.401   5.882  0.5645  0.7083 -0.7014
 8313TIP3    H246355   0.673   6.311   5.950  0.7246  1.5056  0.6352
 8314TIP3   OH246356   0.993   4.302   1.850 -0.4383 -0.1839  0.3111
 8314TIP3    H146357   0.971   4.303   1.943  1.2872 -0.1056  0.7538
 8314TIP3    H246358   1.045   4.382   1.837 -2.5118  1.0184 -1.2338
 8315TIP3   OH246359   3.320   3.703  17.281  0.1461  0.9170  0.2901
 8315TIP3    H146360   3.356   3.708  17.370  1.2559  0.7842 -0.1405
 8315TIP3    H246361   3.318   3.794  17.251 -0.1906  0.9576  0.4301
 8316TIP3   OH246362   3.777   4.479   5.574  0.8798 -0.2318 -0.2056
 8316TIP3    H146363   3.812   4.560   5.536 -0.6832 -0.2853 -1.8397
 8316TIP3    H246364   3.758   4.502   5.665 -1.0349  1.7579 -1.0375
 8317TIP3   OH246365   5.597   2.776   3.933  0.5659 -0.2088 -0.5372
 8317TIP3    H146366   5.653   2.735   3.867  0.2031 -2.3870  0.4048
 8317TIP3    H246367   5.634   2.746   4.017 -0.0282  1.0506  0.1985
 8318TIP3   OH246368   0.083   5.793  16.237 -0.0759  0.6422  0.1252
 8318TIP3    H146369   0.131   5.856  16.291  0.4933  0.1834  0.1592
 8318TIP3    H246370   0.151   5.745  16.190 -0.5534  0.8756 -0.8260
 8319TIP3   OH246371   5.016   0.102   5.397  0.4008  0.9026  0.1184
 8319TIP3    H146372   5.058   0.054   5.469  1.5057 -0.3807 -1.3111
 8319TIP3    H246373   5.088   0.147   5.353  0.0142  0.3031 -1.1729
 8320TIP3   OH246374   1.985   5.627   4.369  0.1700  0.3097  0.4320
 8320TIP3    H146375   2.013   5.554   4.313  0.3882  1.3361 -0.8617
 8320TIP3    H246376   2.066   5.656   4.412  0.6107  1.3272 -0.9710
 8321TIP3   OH246377   0.947   5.491   2.416 -0.2574  0.5511 -0.1959
 8321TIP3    H146378   1.003   5.522   2.345 -1.8612 -0.5623 -2.0477
 8321TIP3    H246379   0.935   5.568   2.472 -1.6246  2.5571 -2.9598
 8322TIP3   OH246380   5.423   5.353  16.082 -0.3755  0.1300  0.2284
 8322TIP3    H146381   5.494   5.301  16.119 -0.9057 -0.4730  0.4218
 8322TIP3    H246382   5.344   5.300  16.097 -0.9997  1.2086  0.8698
 8323TIP3   OH246383   4.822   5.856   2.686 -0.3486 -0.6374  0.5226
 8323TIP3    H146384   4.856   5.791   2.624 -0.7294 -1.0936  0.7789
 8323TIP3    H246385   4.735   5.823   2.709 -0.6064  0.0523  0.5374
 8324TIP3   OH246386   3.388   0.997   5.232 -0.3128 -0.1307  0.3579
 8324TIP3    H146387   3.406   0.992   5.326  0.3194 -0.1833  0.2410
 8324TIP3    H246388   3.295   0.979   5.224 -0.9679  2.4047  1.2036
 8325TIP3   OH246389   5.040   3.853  11.470 -0.1230  0.3565  0.0642
 8325TIP3    H146390   5.071   3.796  11.400 -0.6018 -0.8340  0.7878
 8325TIP3    H246391   4.951   3.824  11.488 -0.3326  1.2409  0.5571
 8326TIP3   OH246392   5.098   3.601   4.761 -0.1552 -0.1912 -0.1701
 8326TIP3    H146393   5.059   3.617   4.675  0.8506  1.1432 -0.4132
 8326TIP3    H246394   5.078   3.681   4.811 -1.6999 -1.3903  1.2471
 8327TIP3   OH246395   2.814   6.399   0.999 -0.2321  0.0151  0.2100
 8327TIP3    H146396   2.875   6.325   0.992 -0.7018 -0.2197 -2.1664
 8327TIP3    H246397   2.731   6.365   0.965 -0.7578  1.3400  0.1154
 8328TIP3   OH246398   4.627   5.038  11.460 -0.2684  0.2035  0.0236
 8328TIP3    H146399   4.551   5.069  11.509 -1.2649 -0.6949 -0.8979
 8328TIP3    H246400   4.684   5.115  11.453 -1.3488  1.0410  0.2452
 8329TIP3   OH246401   6.736   1.629   3.690 -0.8299 -0.4517 -0.2960
 8329TIP3    H146402   6.678   1.633   3.766  0.5615  1.6005  0.7644
 8329TIP3    H246403   6.786   1.548   3.702 -1.1146 -0.5081  0.6366
 8330TIP3   OH246404   2.842   2.572  11.258 -0.1263  0.3029  0.6144
 8330TIP3    H146405   2.846   2.646  11.197 -1.1766 -1.6577 -2.0436
 8330TIP3    H246406   2.749   2.549  11.262  0.3901 -2.5627 -0.9771
 8331TIP3   OH246407   4.925   5.201   5.836  0.1990 -0.5624  0.1285
 8331TIP3    H146408   4.923   5.114   5.876 -1.6068 -0.8469 -0.4617
 8331TIP3    H246409   4.928   5.185   5.742 -1.8826 -0.0959 -0.0834
 8332TIP3   OH246410   3.931   5.725  12.021 -0.0396  0.2273  0.1379
 8332TIP3    H146411   3.864   5.787  12.051  0.2044  0.3055  0.5332
 8332TIP3    H246412   4.011   5.777  12.013  0.4179 -0.2273  1.4683
 8333TIP3   OH246413   4.081   6.523  14.720  0.4336 -0.2353 -0.4241
 8333TIP3    H146414   4.110   6.582  14.650 -1.1303  0.6936 -0.3446
 8333TIP3    H246415   4.100   6.569  14.801  1.9456 -1.1733 -0.2065
 8334TIP3   OH246416   5.599   2.911  10.908 -0.2954  0.1939  0.1777
 8334TIP3    H146417   5.544   2.861  10.967 -0.0124  0.7206  0.9035
 8334TIP3    H246418   5.560   2.899  10.822 -0.5579 -0.7973  0.4318
 8335TIP3   OH246419   6.368   2.806   1.131 -0.0680 -0.2064  0.0597
 8335TIP3    H146420   6.377   2.826   1.038 -0.1045 -1.3860 -0.2098
 8335TIP3    H246421   6.458   2.791   1.161 -0.1772 -1.3717 -0.1579
 8336TIP3   OH246422   2.509   3.913   2.914  0.4443 -0.6154  0.4145
 8336TIP3    H146423   2.602   3.935   2.903  0.3178 -0.3349 -0.1110
 8336TIP3    H246424   2.462   3.992   2.889  0.0078 -1.2994 -1.0846
 8337TIP3   OH246425   2.307   4.641   4.766  0.0189 -0.0117  0.2109
 8337TIP3    H146426   2.343   4.690   4.840  0.1962 -2.6008  1.9848
 8337TIP3    H246427   2.214   4.667   4.763  0.2558  0.9215  0.6392
 8338TIP3   OH246428   4.550   2.207   5.330  0.2142 -0.4230 -0.1250
 8338TIP3    H146429   4.492   2.276   5.362  1.8730  0.7778  0.4907
 8338TIP3    H246430   4.637   2.234   5.361  1.0374 -2.3628 -0.6247
 8339TIP3   OH246431   0.780   3.227  14.067 -0.6080 -0.4808 -0.7642
 8339TIP3    H146432   0.816   3.290  14.005 -0.1623 -0.0797 -0.1139
 8339TIP3    H246433   0.843   3.225  14.139 -1.2340 -0.7541 -0.2086
 8340TIP3   OH246434   1.364   1.016  16.491 -0.3251 -0.3847 -0.5421
 8340TIP3    H146435   1.392   1.006  16.582  2.2645 -0.7161 -1.3014
 8340TIP3    H246436   1.406   1.097  16.461 -0.2663 -0.8399 -1.7494
 8341TIP3   OH246437   6.159   4.193   1.389  0.3092  0.2220  0.4974
 8341TIP3    H146438   6.253   4.173   1.390  0.3797 -0.1939 -2.8771
 8341TIP3    H246439   6.156   4.289   1.385  0.5554  0.2528  0.9235
 8342TIP3   OH246440   4.175   0.770   2.987 -0.0589  0.2250  0.6573
 8342TIP3    H146441   4.138   0.815   2.911  0.5775 -1.8830 -1.0106
 8342TIP3    H246442   4.253   0.821   3.008 -0.6566  1.2846  0.4130
 8343TIP3   OH246443   0.377   6.054   2.915 -0.1147  0.2561 -0.0777
 8343TIP3    H146444   0.356   6.076   3.006  1.3922  1.4490  0.0151
 8343TIP3    H246445   0.470   6.074   2.906  0.1519 -1.3618 -1.4626
 8344TIP3   OH246446   3.602   6.527   2.631 -0.4968 -0.1961 -0.0713
 8344TIP3    H146447   3.668   6.592   2.653 -1.1938  0.5347 -0.1249
 8344TIP3    H246448   3.602   6.467   2.705  2.0568 -1.7385 -1.1663
 8345TIP3   OH246449   3.032   3.223   2.681  0.3893 -0.6424  0.7747
 8345TIP3    H146450   2.970   3.248   2.612  0.3261 -0.4767  0.8903
 8345TIP3    H246451   3.050   3.130   2.665 -1.8116 -1.4219  2.1981
 8346TIP3   OH246452   0.250   1.979   0.576  0.0464 -0.0581  0.0620
 8346TIP3    H146453   0.340   1.948   0.587  0.4559  0.6417 -1.1370
 8346TIP3    H246454   0.198   1.899   0.566  0.3604 -0.5140  1.7617
 8347TIP3   OH246455   0.395   4.513   2.831  0.0097  0.0163 -0.2791
 8347TIP3    H146456   0.453   4.572   2.782 -2.8942  0.8024 -3.0979
 8347TIP3    H246457   0.432   4.426   2.816  2.3378  0.6854  0.9633
 8348TIP3   OH246458   2.951   1.165  14.654 -0.1344  0.2441 -0.2506
 8348TIP3    H146459   3.006   1.244  14.657  0.6239 -0.2755 -0.0455
 8348TIP3    H246460   2.870   1.194  14.612  0.2205  1.0782 -0.3928
 8349TIP3   OH246461   2.784   2.200   4.984  0.1738  0.2003  0.8376
 8349TIP3    H146462   2.823   2.177   4.899  0.2575 -1.3159  1.2476
 8349TIP3    H246463   2.856   2.238   5.034  0.3410  0.3033  0.5180
 8350TIP3   OH246464   3.683   3.121  15.526 -0.1403  0.3001  0.2623
 8350TIP3    H146465   3.604   3.087  15.568  0.0024  0.7280  0.8867
 8350TIP3    H246466   3.661   3.125  15.433 -0.1822 -1.4217  0.1688
 8351TIP3   OH246467   2.235   5.181  15.351  0.4316 -0.3929  0.6752
 8351TIP3    H146468   2.283   5.135  15.420  0.5668 -1.3173 -0.0198
 8351TIP3    H246469   2.261   5.273  15.360  1.4512 -0.7098  1.0206
 8352TIP3   OH246470   2.601   4.617  14.844  0.7475  0.5335 -0.5142
 8352TIP3    H146471   2.634   4.600  14.932  0.9937  0.8389 -0.5444
 8352TIP3    H246472   2.536   4.549  14.829  1.5376 -0.2344 -0.5501
 8353TIP3   OH246473   3.781   2.058   5.210  0.0589  0.1423 -0.4000
 8353TIP3    H146474   3.735   1.974   5.220  1.5981 -0.6194  0.7579
 8353TIP3    H246475   3.745   2.113   5.280 -0.2408  0.1025 -0.5213
 8354TIP3   OH246476   4.608   2.383   2.187  0.0272 -0.2366 -0.3042
 8354TIP3    H146477   4.626   2.410   2.277  1.6533 -1.9027 -0.0514
 8354TIP3    H246478   4.678   2.320   2.167 -1.4503 -1.4266 -2.0374
 8355TIP3   OH246479   6.074   5.421  14.651  0.4584  0.0224 -0.4917
 8355TIP3    H146480   6.157   5.397  14.691  0.5076  1.3901  0.3000
 8355TIP3    H246481   6.009   5.404  14.719  0.2449  0.1524 -0.6629
 8356TIP3   OH246482   0.837   4.381  13.729  0.5836 -0.2008 -0.1548
 8356TIP3    H146483   0.896   4.348  13.797 -0.5630 -0.6011  0.6826
 8356TIP3    H246484   0.750   4.375  13.769 -0.0446  0.1415 -1.4437
 8357TIP3   OH246485   3.841   5.076  14.622  0.3517  0.1747 -0.4051
 8357TIP3    H146486   3.787   5.043  14.695 -0.4991  2.5600  0.1294
 8357TIP3    H246487   3.779   5.085  14.549  1.1453 -1.9297 -1.4198
 8358TIP3   OH246488   4.333   0.906   0.734  0.0154 -0.3267  0.3303
 8358TIP3    H146489   4.264   0.972   0.729 -0.3556 -0.7734 -0.5528
 8358TIP3    H246490   4.391   0.927   0.662  0.8878  0.1128  1.1369
 8359TIP3   OH246491   4.217   6.310  16.514 -0.0212 -0.4514  0.3365
 8359TIP3    H146492   4.283   6.305  16.583 -0.7864  0.7109  1.1940
 8359TIP3    H246493   4.134   6.324  16.561 -0.5986  0.1225 -0.8027
 8360TIP3   OH246494   3.538   2.229   3.671 -0.0898 -0.5660 -0.3077
 8360TIP3    H146495   3.511   2.218   3.762  2.4440  1.3880  0.8156
 8360TIP3    H246496   3.634   2.223   3.674  0.1740  1.2553 -2.5559
 8361TIP3   OH246497   1.400   2.988   0.771 -0.5144 -0.3631 -0.3259
 8361TIP3    H146498   1.338   2.916   0.782 -2.3124  0.8835 -1.7322
 8361TIP3    H246499   1.474   2.949   0.725 -0.9131 -1.5591  0.0037
 8362TIP3   OH246500   0.889   2.039   4.138 -0.4126  0.4383 -0.2702
 8362TIP3    H146501   0.877   2.082   4.223 -0.6683  1.4081 -0.7776
 8362TIP3    H246502   0.888   2.111   4.075  2.4640  0.0533 -0.8880
 8363TIP3   OH246503   2.189   2.289   6.684  0.0477  0.8690 -0.1345
 8363TIP3    H146504   2.234   2.332   6.611 -1.9148  2.1739 -0.6551
 8363TIP3    H246505   2.137   2.358   6.724 -1.3423 -0.5100  0.5531
 8364TIP3   OH246506   0.416   1.069  10.859  0.8344  0.0672  0.0291
 8364TIP3    H146507   0.381   1.137  10.802  1.5068  2.1432  1.9686
 8364TIP3    H246508   0.341   1.041  10.912  0.7209 -0.2338 -0.2807
 8365TIP3   OH246509   5.528   2.823   4.786  0.3653 -0.2750  0.4861
 8365TIP3    H146510   5.591   2.784   4.847  2.0033  2.4768  0.7351
 8365TIP3    H246511   5.571   2.903   4.755 -2.0421  0.4530 -1.2817
 8366TIP3   OH246512   0.429   1.666  13.004 -0.5950 -0.4316 -0.0100
 8366TIP3    H146513   0.391   1.750  12.977  1.7224  0.1765 -1.7132
 8366TIP3    H246514   0.463   1.682  13.092 -0.8415  0.2131 -0.0290
 8367TIP3   OH246515   2.093   1.364  16.564  0.3261 -0.1565 -0.3841
 8367TIP3    H146516   2.062   1.300  16.629 -0.4555  0.9806  0.4046
 8367TIP3    H246517   2.013   1.401  16.527  0.6982  1.6460  0.4957
 8368TIP3   OH246518   4.016   2.310  12.893  0.0310 -0.0563 -0.4509
 8368TIP3    H146519   3.936   2.319  12.944  1.1428  1.7377  1.1227
 8368TIP3    H246520   3.989   2.326  12.803 -1.2142  1.8475  0.1913
 8369TIP3   OH246521   5.243   0.941  15.148  0.1112 -0.0733  0.6812
 8369TIP3    H146522   5.318   0.887  15.121  1.2306  1.2030  1.1433
 8369TIP3    H246523   5.168   0.882  15.140  1.0883 -1.2613 -0.2227
 8370TIP3   OH246524   2.289   6.244  16.903  0.6018 -0.1928  0.1674
 8370TIP3    H146525   2.371   6.252  16.951  0.6440  1.6467 -0.1369
 8370TIP3    H246526   2.229   6.305  16.947 -0.3452 -0.8541 -0.1587
 8371TIP3   OH246527   6.357   5.713  14.840 -0.3975  0.3250 -0.8240
 8371TIP3    H146528   6.432   5.766  14.868  1.6484 -1.6769 -2.1995
 8371TIP3    H246529   6.336   5.746  14.753 -1.5471  1.2633 -0.2144
 8372TIP3   OH246530   0.671   4.371  16.905  0.0158  0.5479 -0.3020
 8372TIP3    H146531   0.610   4.334  16.969 -0.8988  1.4582 -0.6284
 8372TIP3    H246532   0.751   4.385  16.955  1.2340 -3.8057 -0.6152
 8373TIP3   OH246533   4.507   0.049   4.426  0.0970 -0.2606  0.4230
 8373TIP3    H146534   4.506   0.143   4.442  0.2664 -0.3567  1.0440
 8373TIP3    H246535   4.428   0.017   4.471  0.2115 -0.4540  0.4860
 8374TIP3   OH246536   4.017   0.740   4.420  0.5886 -0.4185  0.5184
 8374TIP3    H146537   4.094   0.797   4.427  0.2363  0.6303 -2.5400
 8374TIP3    H246538   3.954   0.778   4.481  0.9626  1.5352 -0.2325
 8375TIP3   OH246539   0.427   5.058   1.414  0.0509  0.3047 -0.1661
 8375TIP3    H146540   0.343   5.100   1.432 -0.3367 -0.9392  1.0693
 8375TIP3    H246541   0.411   4.965   1.428  1.1961 -0.1505 -1.6753
 8376TIP3   OH246542   4.827   2.030  10.634  0.0556  0.2813 -0.0136
 8376TIP3    H146543   4.917   2.007  10.610 -0.6573 -2.3604 -0.4813
 8376TIP3    H246544   4.835   2.074  10.719  1.6773 -1.4744  0.8063
 8377TIP3   OH246545   4.273   5.194  15.913  0.3080  0.2031  0.5274
 8377TIP3    H146546   4.335   5.123  15.930 -0.1543 -0.6594 -1.1305
 8377TIP3    H246547   4.211   5.190  15.987  0.2409 -1.1982  0.4258
 8378TIP3   OH246548   4.586   4.428   6.314  0.4015 -0.8972  0.0083
 8378TIP3    H146549   4.491   4.426   6.305  0.4532  1.0241 -1.4855
 8378TIP3    H246550   4.618   4.366   6.248  0.2449  1.0975 -2.0384
 8379TIP3   OH246551   6.609   5.503   4.500  0.3127  0.4288 -0.2331
 8379TIP3    H146552   6.552   5.429   4.483 -1.1657  1.3440  0.5299
 8379TIP3    H246553   6.688   5.465   4.538 -0.9963 -0.6870  1.5531
 8380TIP3   OH246554   6.318   1.764  16.139 -0.3088 -0.2063 -0.7247
 8380TIP3    H146555   6.275   1.829  16.083 -0.0379 -0.0355 -0.7375
 8380TIP3    H246556   6.250   1.734  16.198 -0.3138  0.4707 -0.3767
 8381TIP3   OH246557   6.262   0.267  14.981 -0.0718 -0.5452 -0.1091
 8381TIP3    H146558   6.285   0.335  14.918  0.9607 -0.2727  0.5484
 8381TIP3    H246559   6.217   0.314  15.052 -1.0880 -0.8295 -0.5441
 8382TIP3   OH246560   1.975   6.542   4.466 -0.1578  0.5187 -0.6027
 8382TIP3    H146561   1.891   6.574   4.433 -0.0741  1.0755 -0.2884
 8382TIP3    H246562   1.952   6.483   4.538 -0.2598  1.4996  0.1899
 8383TIP3   OH246563   0.493   1.508  16.205  0.0624  0.6629  0.1270
 8383TIP3    H146564   0.568   1.453  16.183 -0.3088 -0.4941  1.5525
 8383TIP3    H246565   0.530   1.589  16.240  0.6570  0.3234  0.2893
 8384TIP3   OH246566   6.509   5.291  14.194  0.0210  0.3432 -0.1414
 8384TIP3    H146567   6.450   5.217  14.212 -1.5074  1.7680  1.0452
 8384TIP3    H246568   6.535   5.321  14.281  2.1341  0.0890 -0.6434
 8385TIP3   OH246569   1.267   0.021  15.848 -0.1413  0.4118 -0.3088
 8385TIP3    H146570   1.180   0.016  15.890  0.9788 -0.2788  2.1540
 8385TIP3    H246571   1.300   0.107  15.874  0.8769 -0.3315  1.0031
 8386TIP3   OH246572   0.233   6.376   3.348 -0.1008 -0.3236  0.0061
 8386TIP3    H146573   0.195   6.366   3.260 -0.7191  0.6324  0.1443
 8386TIP3    H246574   0.257   6.469   3.353 -1.3465 -0.0456  1.3418
 8387TIP3   OH246575   3.650   3.725  11.602  0.4285  0.6039  0.1499
 8387TIP3    H146576   3.717   3.711  11.669  0.8202 -2.3964 -0.7172
 8387TIP3    H246577   3.570   3.688  11.640  0.6063 -0.9337 -0.8658
 8388TIP3   OH246578   0.210   3.993   3.713 -0.6260  0.3077 -0.4638
 8388TIP3    H146579   0.136   4.024   3.661 -1.6960  1.1091  1.4431
 8388TIP3    H246580   0.197   3.899   3.719 -1.2658  0.3877 -0.4965
 8389TIP3   OH246581   2.003   4.409  11.434  0.1114 -0.5173 -0.0123
 8389TIP3    H146582   2.028   4.322  11.401 -0.8583 -0.8505  0.1013
 8389TIP3    H246583   2.001   4.465  11.357  2.9437 -0.0146  0.1838
 8390TIP3   OH246584   4.384   2.791  14.972 -0.2296 -0.0403  0.5435
 8390TIP3    H146585   4.351   2.877  14.946  0.5766  0.0640 -0.1881
 8390TIP3    H246586   4.331   2.729  14.922  0.3355  0.1087 -0.2632
 8391TIP3   OH246587   0.739   0.099   2.685  0.2536  0.0570 -0.3265
 8391TIP3    H146588   0.794   0.131   2.614  0.7941 -1.3562 -0.5790
 8391TIP3    H246589   0.697   0.178   2.721  2.0894  1.1309 -0.4240
 8392TIP3   OH246590   5.648   6.296  10.936  0.1281 -0.7006  0.2123
 8392TIP3    H146591   5.684   6.269  11.020  0.1408  0.2206  0.5192
 8392TIP3    H246592   5.560   6.257  10.935 -0.1105 -0.2107  0.9372
 8393TIP3   OH246593   3.388   6.551  15.749  0.4134  0.0732  0.1417
 8393TIP3    H146594   3.401   6.600  15.830 -0.6564  0.5494  0.0385
 8393TIP3    H246595   3.436   6.601  15.683 -0.5038  0.8958  0.0767
 8394TIP3   OH246596   1.570   5.121   5.425  0.2462 -0.8078 -0.2541
 8394TIP3    H146597   1.481   5.086   5.418 -1.6085  3.1611  0.6932
 8394TIP3    H246598   1.599   5.132   5.334 -1.9826  1.5109 -0.8001
 8395TIP3   OH246599   3.938   5.152   4.860  0.0591  0.3694 -0.4393
 8395TIP3    H146600   3.954   5.083   4.796 -0.3402 -0.7884  0.6680
 8395TIP3    H246601   3.954   5.233   4.813 -0.2809 -0.4460 -2.0179
 8396TIP3   OH246602   4.898   0.372   4.459  0.4799 -0.3507 -0.0495
 8396TIP3    H146603   4.985   0.371   4.419  0.4225  0.7339 -0.2454
 8396TIP3    H246604   4.840   0.398   4.387 -0.2483 -2.5713 -0.3212
 8397TIP3   OH246605   5.004   1.504  17.331 -0.2286 -0.9971 -0.1902
 8397TIP3    H146606   5.074   1.568  17.338  0.2250 -1.5979  1.1473
 8397TIP3    H246607   4.973   1.511  17.241  1.1994 -0.3622 -0.6502
 8398TIP3   OH246608   4.850   1.580   0.743  0.2709  0.1579 -0.1256
 8398TIP3    H146609   4.766   1.596   0.700 -0.4158 -0.4997  0.9325
 8398TIP3    H246610   4.911   1.564   0.671 -1.1986 -2.7144 -0.9048
 8399TIP3   OH246611   6.394   2.061   0.922 -0.2484 -0.1843 -0.1077
 8399TIP3    H146612   6.304   2.038   0.946 -0.3087  1.1674  1.0855
 8399TIP3    H246613   6.406   2.150   0.956  0.9380  0.3944 -1.8941
 8400TIP3   OH246614   5.034   1.176   1.540 -0.2816  0.3478 -0.7666
 8400TIP3    H146615   5.047   1.265   1.507  2.2174  0.5079  0.4024
 8400TIP3    H246616   4.940   1.163   1.537 -0.9358  3.6717  0.5105
 8401TIP3   OH246617   6.392   3.559  16.787  0.2562 -0.1115 -0.2343
 8401TIP3    H146618   6.453   3.495  16.750  2.7055  1.8201  0.1419
 8401TIP3    H246619   6.359   3.606  16.711 -0.8359 -1.1817 -0.4454
 8402TIP3   OH246620   4.297   2.137   1.789  0.3496 -0.1480 -0.7799
 8402TIP3    H146621   4.228   2.117   1.725  0.4285 -2.3057 -0.2692
 8402TIP3    H246622   4.273   2.086   1.866  2.5232 -1.0006 -0.6029
 8403TIP3   OH246623   4.302   1.274  13.821  0.5682 -0.3325  0.5009
 8403TIP3    H146624   4.357   1.307  13.751 -0.8162 -0.2321 -0.5753
 8403TIP3    H246625   4.310   1.179  13.815  0.3820 -0.3273  0.1372
 8404TIP3   OH246626   2.194   5.517  15.112  0.3091  0.4894  0.4776
 8404TIP3    H146627   2.108   5.526  15.153 -0.3180  0.6758 -0.8198
 8404TIP3    H246628   2.250   5.482  15.181 -0.9342 -0.1609  1.1931
 8405TIP3   OH246629   6.225   3.014   2.012 -0.9526 -0.0701  0.5464
 8405TIP3    H146630   6.258   3.100   1.987  1.1197 -1.0504 -0.3933
 8405TIP3    H246631   6.251   3.004   2.104  0.9288 -0.5397  0.0185
 8406TIP3   OH246632   1.628   2.699  16.928  0.6951  0.2632 -0.3566
 8406TIP3    H146633   1.589   2.758  16.864  0.1913  0.6370  0.2841
 8406TIP3    H246634   1.713   2.739  16.948  0.0432  1.1889  0.6286
 8407TIP3   OH246635   3.822   4.145   0.584 -0.1166 -0.4362 -0.0026
 8407TIP3    H146636   3.873   4.144   0.503 -1.0038  0.0405 -0.5801
 8407TIP3    H246637   3.833   4.233   0.619 -1.4996  0.0446 -0.7551
 8408TIP3   OH246638   3.755   1.012   3.245  1.1980  0.1278 -0.2349
 8408TIP3    H146639   3.775   0.968   3.327  0.1305  1.4359  0.7731
 8408TIP3    H246640   3.759   0.943   3.179 -0.9748 -1.6362  1.3446
 8409TIP3   OH246641   2.577   0.294  12.727  0.0823 -0.3523  0.3600
 8409TIP3    H146642   2.641   0.225  12.707 -0.4284 -0.8787  0.5085
 8409TIP3    H246643   2.617   0.344  12.799  1.6589  1.1816 -1.4695
 8410TIP3   OH246644   6.203   0.973  16.253 -0.2093 -0.2743 -0.6293
 8410TIP3    H146645   6.239   1.019  16.177  0.2232  1.4896  0.5865
 8410TIP3    H246646   6.109   0.966  16.234 -0.3009  1.1700 -0.8745
 8411TIP3   OH246647   3.503   0.042   6.375  0.1927  0.0219 -0.1231
 8411TIP3    H146648   3.585   0.089   6.362  0.5725 -1.2842 -3.5332
 8411TIP3    H246649   3.507   0.010   6.465  2.2884  1.9600  0.5669
 8412TIP3   OH246650   2.810   0.105   0.639 -0.1972  0.3086 -0.5565
 8412TIP3    H146651   2.785   0.151   0.719  1.0980 -0.8131  0.5423
 8412TIP3    H246652   2.804   0.172   0.571  1.1312  2.0224  0.8791
 8413TIP3   OH246653   1.386   1.001  14.415  0.0000  0.2345 -0.1787
 8413TIP3    H146654   1.436   0.929  14.376  0.0278  0.8285 -1.2846
 8413TIP3    H246655   1.428   1.080  14.381  0.6407  0.8245  1.8473
 8414TIP3   OH246656   5.591   0.907  12.081 -0.2204 -0.3855  0.3046
 8414TIP3    H146657   5.564   0.873  11.996 -0.4011 -1.4231  0.7603
 8414TIP3    H246658   5.529   0.977  12.101 -0.2950 -0.2727 -0.3171
 8415TIP3   OH246659   1.449   4.734   1.038  0.2669 -0.0086 -0.4200
 8415TIP3    H146660   1.514   4.752   0.970  1.0810  0.2901  0.4244
 8415TIP3    H246661   1.495   4.679   1.101 -0.5345 -0.4301 -0.1882
 8416TIP3   OH246662   4.468   0.340  15.372 -0.2744  0.1376 -0.4445
 8416TIP3    H146663   4.389   0.335  15.318 -2.4540 -4.5430  2.5437
 8416TIP3    H246664   4.435   0.351  15.461  2.4287 -1.5887  0.8875
 8417TIP3   OH246665   5.465   5.154   0.535 -0.4109  0.0239  0.6482
 8417TIP3    H146666   5.430   5.225   0.481 -2.3264  0.2351  2.0856
 8417TIP3    H246667   5.445   5.074   0.485  0.9424  0.3877 -0.5417
 8418TIP3   OH246668   0.760   6.595  10.947 -0.1441 -0.2767 -0.2018
 8418TIP3    H146669   0.665   6.594  10.955 -0.1155 -0.6029  0.1787
 8418TIP3    H246670   0.782   6.687  10.931 -0.5109 -0.1745 -0.1315
 8419TIP3   OH246671   3.649   6.335   5.395 -0.0430  0.3737 -0.3253
 8419TIP3    H146672   3.714   6.405   5.401  0.0489  0.1694  1.6447
 8419TIP3    H246673   3.699   6.254   5.406 -0.5326  0.1705  0.4675
 8420TIP3   OH246674   1.954   4.913   2.993 -0.3143 -0.3082 -0.3294
 8420TIP3    H146675   2.026   4.885   3.049 -0.6309 -0.1236  0.1794
 8420TIP3    H246676   1.947   4.845   2.926 -0.3422 -0.8624  0.2271
 8421TIP3   OH246677   3.499   5.881  12.882  0.6149  0.5089  0.1391
 8421TIP3    H146678   3.480   5.787  12.880  0.6801  0.4846  0.5192
 8421TIP3    H246679   3.558   5.895  12.808  1.0385  0.1518  0.4069
 8422TIP3   OH246680   2.132   4.685   0.429  0.1853  0.0819 -0.0288
 8422TIP3    H146681   2.147   4.746   0.501  1.9036  0.2429 -0.4897
 8422TIP3    H246682   2.038   4.666   0.433 -0.4989  3.0104 -0.0681
 8423TIP3   OH246683   5.832   2.404  15.084  0.0129  0.2183  0.1542
 8423TIP3    H146684   5.763   2.412  15.150  0.3754  1.3115  0.4260
 8423TIP3    H246685   5.791   2.435  15.003 -0.4765 -1.2633 -0.1929
 8424TIP3   OH246686   3.008   0.546   4.357 -0.4896  0.3652  0.2380
 8424TIP3    H146687   2.960   0.624   4.330 -0.7912  1.0021  2.4579
 8424TIP3    H246688   3.029   0.561   4.449  0.9678 -1.4247  0.2473
 8425TIP3   OH246689   0.937   6.572  13.860 -0.2918  0.2718  0.6064
 8425TIP3    H146690   0.935   6.592  13.767 -0.2915 -0.6215  0.4057
 8425TIP3    H246691   0.903   6.482  13.866 -1.1789  0.6481  1.5546
 8426TIP3   OH246692   2.281   3.144  11.504 -0.4615 -0.1141 -0.2345
 8426TIP3    H146693   2.293   3.101  11.420  0.3003  1.5652 -1.0287
 8426TIP3    H246694   2.197   3.111  11.536 -0.4984 -1.1887 -1.3869
 8427TIP3   OH246695   6.442   3.809  15.338 -0.3939  0.0776  0.4398
 8427TIP3    H146696   6.509   3.876  15.350 -0.4438  1.2061 -3.8854
 8427TIP3    H246697   6.359   3.857  15.341 -0.4252  0.4460 -2.8005
 8428TIP3   OH246698   5.287   2.008   4.387 -0.4885  0.1088  0.1772
 8428TIP3    H146699   5.210   1.973   4.342  0.4043 -1.1580 -0.4513
 8428TIP3    H246700   5.328   2.067   4.324 -0.4512  0.0703  0.1653
 8429TIP3   OH246701   3.890   1.105  12.502 -0.1805 -0.6526 -0.3232
 8429TIP3    H146702   3.927   1.155  12.429  0.6498 -1.2184 -0.3033
 8429TIP3    H246703   3.897   1.014  12.475  0.7816 -0.9138  0.7399
 8430TIP3   OH246704   5.063   0.495   2.890 -0.1104  0.3475  0.0983
 8430TIP3    H146705   5.150   0.456   2.899  0.7974  2.2397  0.0029
 8430TIP3    H246706   5.035   0.471   2.801  0.0885 -0.6732  0.3006
 8431TIP3   OH246707   5.774   4.669  14.560 -0.0303 -0.1615  0.7659
 8431TIP3    H146708   5.700   4.619  14.527  0.0676 -0.6940  1.3263
 8431TIP3    H246709   5.752   4.760  14.541  0.1810 -0.4507 -1.0408
 8432TIP3   OH246710   1.886   2.176   2.752 -0.1815  0.3717  0.2933
 8432TIP3    H146711   1.893   2.133   2.838 -0.0059 -0.2099 -0.0055
 8432TIP3    H246712   1.886   2.269   2.772 -0.5810  0.2372  0.9629
 8433TIP3   OH246713   2.936   1.085  14.910  0.1924 -0.2523  0.2113
 8433TIP3    H146714   2.962   1.126  14.827  1.5328 -1.7134 -0.1638
 8433TIP3    H246715   2.906   0.998  14.884  0.6997 -0.7533  1.2484
 8434TIP3   OH246716   2.630   2.986  15.047 -0.7426  0.0623  1.1488
 8434TIP3    H146717   2.597   2.897  15.044  2.1087 -1.0866  0.3690
 8434TIP3    H246718   2.692   2.987  15.120  1.0895  0.6268 -0.3242
 8435TIP3   OH246719   3.862   6.581   0.268 -0.1414  0.5666  0.5147
 8435TIP3    H146720   3.935   6.592   0.329  2.4069 -1.9575 -1.7763
 8435TIP3    H246721   3.825   6.496   0.290 -1.3333  1.0693  0.5356
 8436TIP3   OH246722   6.115   5.777  14.283 -0.2746 -0.4967 -0.1838
 8436TIP3    H146723   6.059   5.818  14.217  0.4042 -0.2171 -0.5929
 8436TIP3    H246724   6.203   5.810  14.264  0.5796 -3.1752 -1.4355
 8437TIP3   OH246725   4.446   2.188   6.403 -0.1929  0.0261  0.3880
 8437TIP3    H146726   4.413   2.130   6.471 -1.2344  1.1121  0.8480
 8437TIP3    H246727   4.531   2.151   6.378 -1.3311 -2.3595 -0.2076
 8438TIP3   OH246728   5.166   1.403  12.463  0.5345 -0.0110 -0.2406
 8438TIP3    H146729   5.235   1.403  12.396  0.1164 -1.0878 -0.6843
 8438TIP3    H246730   5.137   1.312  12.468 -1.1368  0.4875 -0.3536
 8439TIP3   OH246731   0.093   0.629  16.626 -0.2486  0.0202 -0.3841
 8439TIP3    H146732   0.080   0.538  16.597  0.1077 -0.3506  0.5709
 8439TIP3    H246733   0.167   0.660  16.576 -1.3778  0.3420 -1.9172
 8440TIP3   OH246734   2.284   0.346   6.543 -0.7614 -0.7024  0.6199
 8440TIP3    H146735   2.330   0.281   6.490 -1.8251 -2.2421  1.4823
 8440TIP3    H246736   2.201   0.304   6.565 -2.3009  1.6917 -0.2902
 8441TIP3   OH246737   1.140   4.713   1.063  0.3921  0.2422 -0.1533
 8441TIP3    H146738   1.228   4.675   1.065  0.8852  1.3306 -0.6321
 8441TIP3    H246739   1.148   4.789   1.005 -1.2678 -0.5997 -1.5451
 8442TIP3   OH246740   5.229   1.889   3.769 -0.7557 -0.5338  0.5442
 8442TIP3    H146741   5.286   1.966   3.767 -0.1014 -1.0009  0.7780
 8442TIP3    H246742   5.231   1.860   3.860 -0.8466 -0.9304  0.4224
 8443TIP3   OH246743   3.586   6.365   2.866  0.2252  0.4201  0.3009
 8443TIP3    H146744   3.637   6.319   2.932  0.6643  0.4165 -0.0369
 8443TIP3    H246745   3.514   6.406   2.915 -0.0144 -0.3859  0.6430
 8444TIP3   OH246746   1.363   5.909  16.561  0.7270 -0.0666 -0.0823
 8444TIP3    H146747   1.428   5.886  16.494 -0.0358  0.5581 -1.0650
 8444TIP3    H246748   1.284   5.862  16.534  0.7258 -0.7668  1.0696
 8445TIP3   OH246749   4.126   6.006  11.990 -0.2564  0.3702 -0.4582
 8445TIP3    H146750   4.191   5.993  12.059 -1.8508 -2.4484  0.6649
 8445TIP3    H246751   4.132   6.099  11.969  1.7911  0.8902  1.9427
 8446TIP3   OH246752   4.329   3.321   2.015  0.0816  0.6074  0.3948
 8446TIP3    H146753   4.362   3.244   2.062 -1.7949 -1.3704 -1.3124
 8446TIP3    H246754   4.375   3.320   1.931 -0.4555  0.9552  0.0904
 8447TIP3   OH246755   3.892   4.416  17.371  0.3883  0.4101 -0.3057
 8447TIP3    H146756   3.934   4.335  17.341  1.3260  0.4026  0.9619
 8447TIP3    H246757   3.867   4.398  17.462 -1.2150  0.8755 -0.6158
 8448TIP3   OH246758   5.265   4.530  11.594  0.0407  0.7347 -1.0439
 8448TIP3    H146759   5.308   4.472  11.531  1.7199 -0.5887  1.2059
 8448TIP3    H246760   5.333   4.551  11.658 -1.9588  0.8274  1.1718
 8449TIP3   OH246761   1.360   2.850  15.614  0.3802  0.1084 -0.4253
 8449TIP3    H146762   1.432   2.787  15.613 -0.3465 -0.7869  1.1279
 8449TIP3    H246763   1.349   2.873  15.706 -0.5155  1.1831 -0.7750
 8450TIP3   OH246764   0.766   1.455  17.035  0.2349 -0.4452  0.5673
 8450TIP3    H146765   0.694   1.501  17.079  0.2360 -1.7495  1.9936
 8450TIP3    H246766   0.783   1.508  16.957 -2.1050  0.0556  0.3088
 8451TIP3   OH246767   5.392   4.546   6.291 -0.0188 -0.3919 -0.2203
 8451TIP3    H146768   5.361   4.635   6.274  1.3311  0.5121  1.6883
 8451TIP3    H246769   5.471   4.538   6.237  1.6433  0.7829  1.9018
 8452TIP3   OH246770   3.167   3.718   0.854 -0.4647  0.2149 -0.6144
 8452TIP3    H146771   3.219   3.799   0.855 -2.0417  1.3476  2.0606
 8452TIP3    H246772   3.230   3.649   0.873  0.9129  0.7439 -2.8877
 8453TIP3   OH246773   5.684   1.748  15.509 -0.9310 -0.0121 -0.4301
 8453TIP3    H146774   5.648   1.811  15.571 -1.9610  0.2927 -1.2972
 8453TIP3    H246775   5.616   1.681  15.501 -0.7546 -0.1255 -1.0921
 8454TIP3   OH246776   5.945   2.675   3.260 -0.0334 -0.4797 -0.3341
 8454TIP3    H146777   6.023   2.630   3.228  0.4450  0.7811 -1.0040
 8454TIP3    H246778   5.940   2.651   3.353  2.6853  1.4037  0.4414
 8455TIP3   OH246779   1.166   4.149  14.281 -0.0162 -0.0662 -0.5991
 8455TIP3    H146780   1.153   4.244  14.281 -2.3670 -0.3157  0.8460
 8455TIP3    H246781   1.156   4.123  14.190  0.9536  1.0645 -1.0607
 8456TIP3   OH246782   2.127   1.857  16.604 -0.3108 -0.3787  0.0681
 8456TIP3    H146783   2.218   1.872  16.578 -0.1085  0.7486  1.3018
 8456TIP3    H246784   2.117   1.762  16.602  0.9944 -0.5415  0.1999
 8457TIP3   OH246785   0.819   4.899   4.363  0.3370 -0.7051 -0.7387
 8457TIP3    H146786   0.904   4.942   4.368  0.6858 -1.1698 -2.1629
 8457TIP3    H246787   0.824   4.829   4.427  0.2876  0.4603  0.5819
 8458TIP3   OH246788   3.162   2.173   3.500 -0.0361 -0.1422  0.1710
 8458TIP3    H146789   3.236   2.117   3.474  0.4999 -0.5655  2.3850
 8458TIP3    H246790   3.183   2.200   3.589 -1.6159  1.4099  0.1273
 8459TIP3   OH246791   0.345   3.977  15.492 -0.2567  0.1752 -0.1533
 8459TIP3    H146792   0.373   3.921  15.564  0.6059 -0.2409 -0.7895
 8459TIP3    H246793   0.311   3.915  15.427 -1.3697  0.5728  0.0396
 8460TIP3   OH246794   3.191   6.490   1.229 -0.3207 -0.2021 -0.0299
 8460TIP3    H146795   3.135   6.564   1.207 -0.1313  0.3248  1.1896
 8460TIP3    H246796   3.280   6.525   1.227 -0.0102 -0.9898 -1.7629
 8461TIP3   OH246797   3.100   2.995  12.635  0.7902  0.1742 -0.0876
 8461TIP3    H146798   3.072   3.051  12.708 -0.8994  1.5373 -1.6836
 8461TIP3    H246799   3.037   2.923  12.635  0.4521  0.4659 -0.5115
 8462TIP3   OH246800   6.157   4.010  11.170  0.1814 -0.0190  0.4198
 8462TIP3    H146801   6.217   3.954  11.219 -0.0142 -1.7968 -1.2085
 8462TIP3    H246802   6.153   3.969  11.083 -1.8744  1.1558 -0.1040
 8463TIP3   OH246803   2.501   4.749  17.212  0.1898 -0.9304  0.1900
 8463TIP3    H146804   2.429   4.686  17.211  0.7715 -1.6244 -1.2147
 8463TIP3    H246805   2.515   4.771  17.120  1.6791 -0.7246  0.4390
 8464TIP3   OH246806   5.859   4.600   2.481  0.3825 -0.0839  0.4520
 8464TIP3    H146807   5.806   4.540   2.428 -0.9663  0.8741  0.6708
 8464TIP3    H246808   5.907   4.652   2.417  1.4147 -1.2319  0.2573
 8465TIP3   OH246809   0.163   4.510   6.305 -0.5612 -0.0681 -0.9221
 8465TIP3    H146810   0.078   4.543   6.275 -0.8446  0.1338  0.0692
 8465TIP3    H246811   0.172   4.425   6.263  0.2154  1.2069 -3.6018
 8466TIP3   OH246812   3.528   2.385  12.289  0.5081 -0.0896  0.8334
 8466TIP3    H146813   3.444   2.422  12.316  1.0711  1.6793  0.2989
 8466TIP3    H246814   3.581   2.384  12.369  0.5426  0.4528  0.8220
 8467TIP3   OH246815   1.734   5.440   1.024 -0.2211 -0.0126 -0.0459
 8467TIP3    H146816   1.685   5.370   0.981  0.4041 -0.1247 -0.5932
 8467TIP3    H246817   1.730   5.419   1.117  0.6924 -1.2676 -0.2674
 8468TIP3   OH246818   2.448   1.684  15.985 -0.4193  0.0637 -0.0771
 8468TIP3    H146819   2.417   1.654  15.899  1.7145 -1.5609 -0.3411
 8468TIP3    H246820   2.401   1.629  16.048 -0.2734 -0.3386 -0.3181
 8469TIP3   OH246821   5.109   1.765  11.735 -0.1579  0.2717 -0.5211
 8469TIP3    H146822   5.126   1.819  11.658 -0.1870 -0.4733 -1.0591
 8469TIP3    H246823   5.169   1.691  11.725 -0.7255 -0.2278 -0.2278
 8470TIP3   OH246824   2.500   3.506   0.431 -0.2394  0.2558 -0.2224
 8470TIP3    H146825   2.586   3.538   0.461 -0.7855 -0.2791  2.1094
 8470TIP3    H246826   2.518   3.419   0.396  0.0298 -0.3908  1.4435
 8471TIP3   OH246827   6.607   0.416   6.377 -0.2889 -0.1278  0.0467
 8471TIP3    H146828   6.568   0.338   6.417 -0.1257 -0.4728 -0.4580
 8471TIP3    H246829   6.670   0.448   6.442  2.2381 -2.4464 -1.0625
 8472TIP3   OH246830   0.256   5.798  12.227 -0.1729  0.1498 -0.5090
 8472TIP3    H146831   0.278   5.868  12.165 -0.7472  1.7599  1.0144
 8472TIP3    H246832   0.280   5.834  12.313 -1.9237 -0.8928  0.4730
 8473TIP3   OH246833   4.629   3.375   6.494 -0.1999  0.8289 -0.4144
 8473TIP3    H146834   4.605   3.284   6.513  0.1945  0.6921 -0.5546
 8473TIP3    H246835   4.716   3.368   6.453 -0.5240  1.1990 -1.1792
 8474TIP3   OH246836   5.317   2.751  11.683  0.0117 -0.0242 -0.3734
 8474TIP3    H146837   5.259   2.745  11.608 -0.0434 -1.0710 -0.2656
 8474TIP3    H246838   5.289   2.680  11.741  2.6369 -1.9154 -1.2053
 8475TIP3   OH246839   6.090   1.500   3.629 -0.2294 -0.0645  0.2314
 8475TIP3    H146840   6.157   1.568   3.628 -0.4109  0.1219  0.4983
 8475TIP3    H246841   6.059   1.499   3.720 -1.5284  0.7823 -0.1787
 8476TIP3   OH246842   5.101   1.447  10.566  0.3643  0.1150  0.1375
 8476TIP3    H146843   5.044   1.462  10.491  0.7225  1.8412  0.1641
 8476TIP3    H246844   5.094   1.353  10.583  0.7501 -0.4548 -2.4244
 8477TIP3   OH246845   2.613   0.205  14.886 -0.2873 -0.0593 -0.4712
 8477TIP3    H146846   2.612   0.298  14.905 -1.3836  0.1755 -1.5342
 8477TIP3    H246847   2.538   0.192  14.827 -0.8633 -1.8021  0.5680
 8478TIP3   OH246848   0.349   5.637  15.738 -0.0274 -0.1759  0.1690
 8478TIP3    H146849   0.441   5.644  15.761 -0.4758  5.3841  1.7338
 8478TIP3    H246850   0.349   5.627  15.643  2.2018  0.3661  0.0626
 8479TIP3   OH246851   3.012   6.058  13.576 -0.5390  0.5750  0.3651
 8479TIP3    H146852   2.929   6.025  13.613 -0.7265  1.5512  0.8559
 8479TIP3    H246853   3.071   5.983  13.580 -1.7230 -0.5005 -1.0981
 8480TIP3   OH246854   5.088   5.215   6.430  0.4671  0.1545  0.1603
 8480TIP3    H146855   5.078   5.232   6.524 -1.9315  1.0507 -0.1704
 8480TIP3    H246856   5.042   5.132   6.417 -2.1624  1.6367 -0.6423
 8481TIP3   OH246857   1.009   0.428   2.112  0.0934 -0.1682  0.0313
 8481TIP3    H146858   1.056   0.345   2.113  0.0064 -0.2176  0.0250
 8481TIP3    H246859   0.968   0.431   2.026  0.7263  0.2347 -0.2584
 8482TIP3   OH246860   5.610   4.809  15.027 -0.4679  0.2974 -0.2917
 8482TIP3    H146861   5.603   4.838  14.936 -1.4602 -0.1470 -0.3685
 8482TIP3    H246862   5.678   4.865  15.065 -1.3434  1.7590 -0.7965
 8483TIP3   OH246863   3.892   4.231   3.278 -0.0414 -0.0766 -0.0142
 8483TIP3    H146864   3.804   4.224   3.313  0.3310 -0.0641  0.9711
 8483TIP3    H246865   3.883   4.215   3.184 -1.0902 -0.0051  0.0689
 8484TIP3   OH246866   2.421   1.096  12.335 -0.2836 -0.0749  0.1512
 8484TIP3    H146867   2.495   1.100  12.274  0.0995 -0.5218  0.5854
 8484TIP3    H246868   2.384   1.009  12.321 -0.0741 -0.2504  0.7052
 8485TIP3   OH246869   0.999   5.057   4.644  0.1402  0.0179 -0.7112
 8485TIP3    H146870   1.051   5.054   4.563 -1.8728 -0.5600 -2.0393
 8485TIP3    H246871   0.967   5.147   4.649 -1.3110 -0.4273 -1.6269
 8486TIP3   OH246872   3.158   3.725  13.103 -0.3672  0.3847  0.3765
 8486TIP3    H146873   3.073   3.686  13.084 -0.2660  0.9213 -1.3631
 8486TIP3    H246874   3.146   3.818  13.081  0.3682  0.6686  1.1449
 8487TIP3   OH246875   4.372   2.493  13.739  0.0235 -0.9095 -0.0077
 8487TIP3    H146876   4.285   2.522  13.711  0.0454 -1.3187 -0.5319
 8487TIP3    H246877   4.411   2.456  13.660  2.2669  2.8360 -0.8950
 8488TIP3   OH246878   3.576   3.140   1.757  0.1708 -0.0096  0.7099
 8488TIP3    H146879   3.539   3.068   1.704  2.1813 -1.6169  1.3752
 8488TIP3    H246880   3.668   3.143   1.732  0.4349  1.4082  1.7637
 8489TIP3   OH246881   0.980   2.756  11.881  0.3522  0.4714 -0.3461
 8489TIP3    H146882   1.019   2.669  11.876 -0.7036 -0.1369  1.2280
 8489TIP3    H246883   1.006   2.799  11.800  1.6789 -0.9727 -0.7278
 8490TIP3   OH246884   1.866   5.119   4.955 -0.2883  0.3760  0.2183
 8490TIP3    H146885   1.948   5.131   5.002 -0.2476  0.6515  0.0820
 8490TIP3    H246886   1.810   5.070   5.015 -0.0324  0.2133  0.3206
 8491TIP3   OH246887   3.738   0.453   2.624  0.0499  0.0461  0.6234
 8491TIP3    H146888   3.795   0.453   2.547  0.9931  1.0865  1.2865
 8491TIP3    H246889   3.741   0.543   2.656 -0.7593 -0.2467  1.5727
 8492TIP3   OH246890   2.616   1.480   5.637  0.0853 -0.3646 -0.0776
 8492TIP3    H146891   2.611   1.480   5.542 -0.4361  1.0831 -0.0689
 8492TIP3    H246892   2.571   1.560   5.664 -2.3016 -2.0857  1.5111
 8493TIP3   OH246893   5.479   6.087   1.677  0.1465 -0.3422  0.3765
 8493TIP3    H146894   5.560   6.037   1.688 -0.0910 -0.9983 -0.7159
 8493TIP3    H246895   5.443   6.094   1.765  1.9805  1.0060  1.0792
 8494TIP3   OH246896   6.012   3.397   4.612 -0.0077  0.0653  0.2242
 8494TIP3    H146897   6.090   3.350   4.585 -0.0352 -1.0025  1.8143
 8494TIP3    H246898   5.939   3.349   4.572  0.0553 -0.1711  0.3927
 8495TIP3   OH246899   6.499   4.548  14.735 -0.5587 -0.2669 -0.4623
 8495TIP3    H146900   6.547   4.558  14.653 -0.0131 -0.8867 -0.2233
 8495TIP3    H246901   6.442   4.625  14.738 -1.4746 -0.8446 -2.0024
 8496TIP3   OH246902   6.074   1.778   3.489  0.0988  0.3673 -0.0520
 8496TIP3    H146903   5.989   1.739   3.472 -0.3397 -0.0046  2.5548
 8496TIP3    H246904   6.137   1.708   3.472  0.0048  0.8141 -2.5528
 8497TIP3   OH246905   0.947   1.714  15.989 -0.6079 -0.3479  0.0629
 8497TIP3    H146906   0.903   1.639  15.949 -0.5658  0.8439 -2.3806
 8497TIP3    H246907   0.876   1.767  16.025 -0.7140 -1.0331  0.8848
 8498TIP3   OH246908   1.094   0.448   4.328 -0.3633 -0.1309 -0.1409
 8498TIP3    H146909   1.042   0.528   4.325 -0.6454 -0.1355  2.4146
 8498TIP3    H246910   1.032   0.378   4.307 -0.8877  0.0601  0.7307
 8499TIP3   OH246911   3.705   0.389   5.033  0.1081 -0.1635 -0.7842
 8499TIP3    H146912   3.767   0.317   5.042  0.9426  0.4864 -1.2169
 8499TIP3    H246913   3.749   0.465   5.072 -1.8734 -0.4267  2.3913
 8500TIP3   OH246914   3.269   0.406   4.584  0.2985  0.2358 -0.2318
 8500TIP3    H146915   3.284   0.323   4.629 -2.1578 -0.2778 -0.2468
 8500TIP3    H246916   3.256   0.470   4.655  2.1610  0.6545 -0.2204
 8501TIP3   OH246917   4.594   1.197  15.349  0.3603 -0.3809 -0.2869
 8501TIP3    H146918   4.619   1.216  15.259  0.7791  0.2448 -0.0435
 8501TIP3    H246919   4.668   1.148  15.384 -0.9037 -3.0230 -1.0572
 8502TIP3   OH246920   5.020   6.434   2.499  0.1389 -0.1213 -0.7029
 8502TIP3    H146921   4.974   6.351   2.510  1.4838 -0.6846  0.9735
 8502TIP3    H246922   4.987   6.490   2.569  0.5354  0.1560 -0.7321
 8503TIP3   OH246923   6.077   1.943   5.817  0.2374  0.5774  0.1629
 8503TIP3    H146924   6.046   1.853   5.825  0.7521  0.5141  1.7826
 8503TIP3    H246925   6.105   1.967   5.905 -0.3685  2.5187 -0.1274
 8504TIP3   OH246926   2.987   2.493   5.026 -0.2408 -0.2388  0.9724
 8504TIP3    H146927   2.948   2.426   5.083 -2.4498 -0.2623 -0.4564
 8504TIP3    H246928   2.989   2.453   4.939 -1.9345  1.5949  0.0113
 8505TIP3   OH246929   6.390   4.611  11.494  0.2712  0.1525  0.3761
 8505TIP3    H146930   6.481   4.580  11.491  1.1742  2.5701  0.4420
 8505TIP3    H246931   6.361   4.594  11.583  0.3434 -1.3801  0.1309
 8506TIP3   OH246932   3.533   4.403  14.223 -0.1020 -0.3094  0.2244
 8506TIP3    H146933   3.557   4.456  14.299 -1.4205 -0.0852  0.5152
 8506TIP3    H246934   3.573   4.318  14.240 -0.3573 -0.2585  1.1800
 8507TIP3   OH246935   3.438   6.668  16.038  0.0420 -0.3202 -0.2712
 8507TIP3    H146936   3.433   6.759  16.009 -1.9071  0.2670  1.6579
 8507TIP3    H246937   3.374   6.661  16.109  1.4886 -2.7229  0.9463
 8508TIP3   OH246938   2.944   4.930  15.930 -0.2878  0.3099  0.0245
 8508TIP3    H146939   2.951   4.834  15.929 -1.5666  0.1749  1.1709
 8508TIP3    H246940   3.033   4.960  15.911  0.6656 -1.1156  1.8447
 8509TIP3   OH246941   0.841   0.576  12.994 -0.3997 -0.2680  0.9267
 8509TIP3    H146942   0.927   0.540  13.015 -0.5025 -0.9504  0.2216
 8509TIP3    H246943   0.831   0.562  12.900 -2.0609 -1.9472  1.2836
 8510TIP3   OH246944   6.287   6.255  14.969  0.5434  0.0976  0.6738
 8510TIP3    H146945   6.211   6.230  15.021  0.5384  0.7595  0.9872
 8510TIP3    H246946   6.354   6.278  15.033  0.1899  1.9775  0.4065
 8511TIP3   OH246947   4.685   0.859  14.112  0.7280 -0.3040  0.1048
 8511TIP3    H146948   4.677   0.765  14.124  2.7952 -0.5727 -0.2614
 8511TIP3    H246949   4.606   0.895  14.153  0.5295 -2.0926  1.4221
 8512TIP3   OH246950   1.813   2.650  11.628  0.3809  0.3437  0.2317
 8512TIP3    H146951   1.733   2.598  11.627  0.4988  0.1414  0.8763
 8512TIP3    H246952   1.842   2.647  11.719  1.1378  0.3943 -0.0048
 8513TIP3   OH246953   5.001   3.377   5.293  0.1984 -0.2989  0.0906
 8513TIP3    H146954   4.993   3.467   5.263  0.0061 -0.4036 -0.1784
 8513TIP3    H246955   4.910   3.346   5.300  0.2093 -0.1285  1.2435
 8514TIP3   OH246956   5.828   2.943  14.001 -0.3553  0.3172  0.3574
 8514TIP3    H146957   5.776   2.952  14.081  0.0795 -2.2297  0.9941
 8514TIP3    H246958   5.769   2.901  13.938 -0.8667  2.7518 -0.9340
 8515TIP3   OH246959   1.819   3.926   2.673 -0.1672  0.2190  0.9586
 8515TIP3    H146960   1.819   4.020   2.656 -0.7688  0.0717  0.0619
 8515TIP3    H246961   1.905   3.908   2.710  0.9335  0.7512 -1.1521
 8516TIP3   OH246962   4.779   4.829  13.397  0.2676 -0.0508  0.1462
 8516TIP3    H146963   4.817   4.822  13.485 -0.9524  2.8647  1.0277
 8516TIP3    H246964   4.854   4.842  13.339  1.0103  4.6222  1.7175
 8517TIP3   OH246965   5.602   0.259   3.112 -0.2368  0.5769  0.3757
 8517TIP3    H146966   5.521   0.223   3.149  0.3609  0.4283  1.5890
 8517TIP3    H246967   5.627   0.197   3.045 -0.3538 -0.1615  0.9986
 8518TIP3   OH246968   1.996   0.397   4.418  0.0163 -0.1059  0.2786
 8518TIP3    H146969   1.977   0.321   4.362  0.9056 -0.2662  0.1867
 8518TIP3    H246970   2.072   0.439   4.378 -0.4623  0.8371  0.3390
 8519TIP3   OH246971   6.390   5.276  14.494 -0.4760  0.2174 -0.2400
 8519TIP3    H146972   6.485   5.271  14.505 -0.5351 -0.8913 -0.0492
 8519TIP3    H246973   6.356   5.217  14.561 -1.1956 -1.0521 -1.6667
 8520TIP3   OH246974   2.818   3.312   0.706 -0.8269  0.1979  0.0256
 8520TIP3    H146975   2.894   3.296   0.762 -0.3916 -0.8335 -0.8262
 8520TIP3    H246976   2.756   3.243   0.731 -0.1369 -1.0746 -1.5815
 8521TIP3   OH246977   0.336   0.789   5.326 -0.5842  0.2024  0.4979
 8521TIP3    H146978   0.389   0.856   5.369 -2.9336  1.2244  1.9976
 8521TIP3    H246979   0.391   0.756   5.255  1.2045  2.6933  0.6188
 8522TIP3   OH246980   0.405   5.090   6.497 -0.3674  0.7279 -0.6821
 8522TIP3    H146981   0.367   5.164   6.450 -2.6818 -0.5084 -0.9551
 8522TIP3    H246982   0.332   5.028   6.505  0.7990 -0.4391  1.7728
 8523TIP3   OH246983   0.493   1.210   2.715 -0.3270 -1.1785  0.1833
 8523TIP3    H146984   0.512   1.146   2.646  1.3145 -2.7066  1.9694
 8523TIP3    H246985   0.510   1.164   2.797  0.5278  1.3969  1.5776
 8524TIP3   OH246986   5.461   5.795   1.432  0.1215 -0.8897  0.1489
 8524TIP3    H146987   5.538   5.798   1.489  0.6071 -1.3292 -0.4658
 8524TIP3    H246988   5.488   5.841   1.353 -0.4215 -0.6058  0.1258
 8525TIP3   OH246989   2.277   6.601  16.351 -0.1979 -0.5333  0.1935
 8525TIP3    H146990   2.350   6.610  16.289 -0.2031  2.1891  0.4343
 8525TIP3    H246991   2.307   6.648  16.429 -1.9058  0.0250  0.5557
 8526TIP3   OH246992   3.848   0.814   0.511 -0.1530  0.6726  0.0989
 8526TIP3    H146993   3.886   0.738   0.465 -0.6530  0.2027  0.4568
 8526TIP3    H246994   3.923   0.869   0.531  0.7420 -1.3337  2.8924
 8527TIP3   OH246995   1.259   0.705   0.291  0.0692 -0.4190 -0.0426
 8527TIP3    H146996   1.341   0.713   0.340  0.1275 -1.2573  0.0141
 8527TIP3    H246997   1.196   0.675   0.357 -0.0562 -0.7076 -0.2942
 8528TIP3   OH246998   5.108   4.154  13.395  0.8023  0.2093 -0.0295
 8528TIP3    H146999   5.165   4.103  13.338  1.2696  0.3764  0.2880
 8528TIP3    H247000   5.141   4.244  13.388  1.5105  0.0652  1.3046
 8529TIP3   OH247001   6.043   2.310  15.315 -0.7607  0.3967 -0.5068
 8529TIP3    H147002   6.061   2.244  15.248  0.2625  0.2212 -0.0643
 8529TIP3    H247003   6.008   2.384  15.265  1.0633  0.7100 -1.4148
 8530TIP3   OH247004   5.741   0.685  17.196 -0.1919  0.1522  0.2060
 8530TIP3    H147005   5.688   0.622  17.147  0.5093 -0.2307 -0.0653
 8530TIP3    H247006   5.758   0.643  17.279 -0.7913  0.5160  0.5235
 8531TIP3   OH247007   3.331   4.236  12.840 -0.1966 -0.5408 -0.4052
 8531TIP3    H147008   3.333   4.259  12.933 -1.9622  0.5316 -0.5831
 8531TIP3    H247009   3.417   4.262  12.807 -0.5642  1.8441  0.3489
 8532TIP3   OH247010   4.563   3.594   5.183 -0.0047 -0.0312  0.1569
 8532TIP3    H147011   4.496   3.619   5.246 -0.1805  0.3620 -0.1843
 8532TIP3    H247012   4.514   3.568   5.105  0.2312  0.1287 -0.0457
 8533TIP3   OH247013   4.805   4.266  11.340  0.2379 -0.1314  0.2916
 8533TIP3    H147014   4.758   4.340  11.379  1.9622  1.0754  0.1587
 8533TIP3    H247015   4.735   4.209  11.306 -1.1292  1.4784  0.2823
 8534TIP3   OH247016   6.429   5.580  11.287 -0.1702  0.2197  0.2980
 8534TIP3    H147017   6.497   5.638  11.320  0.9201  0.3756 -1.9993
 8534TIP3    H247018   6.384   5.631  11.220 -1.7789 -0.3059  0.9324
 8535TIP3   OH247019   3.796   6.586   4.847 -0.2577  0.5413 -0.1325
 8535TIP3    H147020   3.870   6.596   4.788 -0.7036 -0.2694 -0.8683
 8535TIP3    H247021   3.726   6.550   4.791 -1.1993  1.2650  0.5369
 8536TIP3   OH247022   0.064   5.426  11.990 -0.2173 -0.3829 -0.5378
 8536TIP3    H147023   0.040   5.454  11.901  4.3198  0.9362 -1.5726
 8536TIP3    H247024  -0.012   5.375  12.019 -2.3693 -0.0582 -4.7247
 8537TIP3   OH247025   4.044   3.511   2.905  0.0727 -0.5856 -0.2335
 8537TIP3    H147026   4.124   3.535   2.952  0.7177 -1.3902 -0.8821
 8537TIP3    H247027   4.054   3.552   2.819 -0.5260 -0.1418 -0.0945
 8538TIP3   OH247028   6.650   1.774  11.531  0.2309  0.6724 -0.3480
 8538TIP3    H147029   6.594   1.698  11.517  1.2340 -0.7737  2.5833
 8538TIP3    H247030   6.592   1.839  11.570 -0.2869  0.8446 -1.3722
 8539TIP3   OH247031   5.075   2.999  15.209  0.1800  0.1399 -0.5579
 8539TIP3    H147032   5.017   2.966  15.277  1.1844 -0.1931  0.1471
 8539TIP3    H247033   5.049   3.091  15.198 -0.6067 -0.0572 -0.4023
 8540TIP3   OH247034   4.028   3.665  13.711  0.3346  0.8900  0.3165
 8540TIP3    H147035   4.098   3.631  13.655  0.3862  0.5855  0.5611
 8540TIP3    H247036   4.051   3.756  13.725  0.0326  1.1150 -0.5991
 8541TIP3   OH247037   5.874   5.795   5.561 -0.2404 -0.3281 -0.2587
 8541TIP3    H147038   5.825   5.713   5.552 -2.5619  0.8558  0.8381
 8541TIP3    H247039   5.876   5.831   5.473  0.6598 -1.4486 -0.7236
 8542TIP3   OH247040   5.639   3.542  14.130  0.1966  0.2620 -0.1016
 8542TIP3    H147041   5.719   3.594  14.120 -0.8217  2.4625  1.9438
 8542TIP3    H247042   5.600   3.575  14.211 -1.1510 -3.0277  0.7304
 8543TIP3   OH247043   4.939   0.388   5.747 -0.0164 -0.4372  0.3194
 8543TIP3    H147044   4.846   0.383   5.768  0.2220  0.9058  1.9209
 8543TIP3    H247045   4.966   0.474   5.779  1.5879 -0.4163 -0.9658
 8544TIP3   OH247046   1.533   4.992  12.923  0.0596 -1.0785 -0.5994
 8544TIP3    H147047   1.474   5.040  12.865  1.1659 -0.7273 -1.4906
 8544TIP3    H247048   1.480   4.971  13.000 -0.6573  1.0043 -0.4513
 8545TIP3   OH247049   0.582   4.684   1.228 -0.5003  1.1209 -0.0732
 8545TIP3    H147050   0.489   4.701   1.243 -0.0120  2.1856  2.2599
 8545TIP3    H247051   0.598   4.598   1.267 -0.2795  1.5312  0.7748
 8546TIP3   OH247052   0.630   4.591  17.276 -0.4422  0.3806 -0.0013
 8546TIP3    H147053   0.698   4.621  17.216 -0.4770  1.6247  0.5613
 8546TIP3    H247054   0.550   4.631  17.244 -0.8939 -0.8911 -0.5225
 8547TIP3   OH247055   0.993   4.163   3.205  0.8873 -0.3567 -0.1882
 8547TIP3    H147056   1.083   4.136   3.226  0.4119 -1.6710  0.2841
 8547TIP3    H247057   0.980   4.133   3.115  0.9748 -0.0071 -0.3186
 8548TIP3   OH247058   6.155   1.079   3.948 -0.1447 -0.3283 -0.2907
 8548TIP3    H147059   6.185   1.003   3.898 -1.9968 -1.2496 -0.1142
 8548TIP3    H247060   6.227   1.099   4.008  0.1287 -2.4538  0.1828
 8549TIP3   OH247061   2.306   0.290  10.582 -0.1313  0.6438 -0.4755
 8549TIP3    H147062   2.379   0.352  10.576 -0.2794  0.7225 -1.9460
 8549TIP3    H247063   2.228   0.342  10.561 -0.7354  0.6837  1.6102
 8550TIP3   OH247064   6.676   0.049   4.565 -0.4546 -0.3541  0.4878
 8550TIP3    H147065   6.714  -0.021   4.511 -1.2308  0.3245 -0.9971
 8550TIP3    H247066   6.635   0.108   4.502  0.9289  1.9444  1.6003
 8551TIP3   OH247067   5.798   3.505  11.920 -0.3654  0.0765 -0.4722
 8551TIP3    H147068   5.857   3.431  11.911  1.5807  1.5528 -0.5967
 8551TIP3    H247069   5.736   3.496  11.848  0.6519 -0.7126 -1.2693
 8552TIP3   OH247070   5.498   3.583   6.082  0.1857 -0.4059 -0.3788
 8552TIP3    H147071   5.508   3.576   6.177  0.9246  1.1144 -0.3165
 8552TIP3    H247072   5.583   3.558   6.047 -0.2660 -1.5662 -0.7033
 8553TIP3   OH247073   0.135   3.865  16.952 -0.0528 -0.4026  0.2585
 8553TIP3    H147074   0.168   3.919  17.024 -0.7237 -0.7697  0.8500
 8553TIP3    H247075   0.070   3.920  16.909 -1.4983 -1.0766  1.4979
 8554TIP3   OH247076   2.192   5.807  12.987  0.3343  0.1212  1.2172
 8554TIP3    H147077   2.120   5.810  12.924  0.2237 -0.9340  1.2729
 8554TIP3    H247078   2.261   5.860  12.947 -0.5251  1.2976  1.2489
 8555TIP3   OH247079   6.341   4.906   0.286  0.0404 -0.4016 -0.4992
 8555TIP3    H147080   6.283   4.972   0.249 -1.1447 -1.0375  0.1712
 8555TIP3    H247081   6.429   4.943   0.278 -0.7524  2.4711  2.2222
 8556TIP3   OH247082   4.688   0.083   5.783  0.2627  0.2670  0.3975
 8556TIP3    H147083   4.669   0.177   5.783  0.3344  0.2816  0.2472
 8556TIP3    H247084   4.602   0.042   5.782  0.2299  0.3312  0.5638
 8557TIP3   OH247085   2.433   0.142  10.761  0.1837  0.5739 -0.2150
 8557TIP3    H147086   2.364   0.119  10.823 -0.5598  0.8497 -0.9156
 8557TIP3    H247087   2.386   0.181  10.687  1.0749  0.5678 -0.7955
 8558TIP3   OH247088   3.612   1.264  14.836  0.5728 -0.1311 -0.3329
 8558TIP3    H147089   3.663   1.344  14.839  3.8728 -2.0389  2.3277
 8558TIP3    H247090   3.567   1.261  14.921  0.4392 -1.0368 -0.4209
 8559TIP3   OH247091   6.281   6.645  15.897  0.0121  1.0420  0.2708
 8559TIP3    H147092   6.244   6.719  15.944 -1.2069  0.3691  0.4013
 8559TIP3    H247093   6.296   6.677  15.808  2.3818  2.3408  1.0388
 8560TIP3   OH247094   1.647   4.281  14.188  0.4633 -0.3132  0.2396
 8560TIP3    H147095   1.736   4.253  14.209  1.1222 -0.4015 -2.3988
 8560TIP3    H247096   1.601   4.199  14.168  0.2756 -0.1324 -0.0681
 8561TIP3   OH247097   6.579   5.810  15.318  0.2639  0.1328  0.0347
 8561TIP3    H147098   6.548   5.825  15.408 -0.1071  2.4143 -0.3927
 8561TIP3    H247099   6.628   5.728  15.322 -1.0264 -0.6118  1.9839
 8562TIP3   OH247100   2.134   3.305  10.962 -0.4587 -0.2526 -0.6665
 8562TIP3    H147101   2.098   3.337  10.879  1.5316 -1.0704 -1.9058
 8562TIP3    H247102   2.227   3.291  10.945  0.4606  1.3218  2.2403
 8563TIP3   OH247103   2.037   0.181   2.369  0.3440 -0.1833 -0.4567
 8563TIP3    H147104   2.088   0.173   2.288  0.3992 -0.3671 -0.4049
 8563TIP3    H247105   2.036   0.275   2.387 -0.4014 -0.0510 -1.1294
 8564TIP3   OH247106   4.597   3.172  14.902 -0.0524 -0.2598  0.3376
 8564TIP3    H147107   4.507   3.146  14.884  0.0012  0.9057 -2.0513
 8564TIP3    H247108   4.642   3.163  14.818  2.4118 -1.9150  1.6945
 8565TIP3   OH247109   4.939   5.091   1.665  0.6827  0.1170 -0.0050
 8565TIP3    H147110   5.006   5.111   1.731  1.3244 -1.4527 -0.1435
 8565TIP3    H247111   4.879   5.166   1.668  0.3172 -0.1945  2.8234
 8566TIP3   OH247112   4.937   3.327   5.790  0.4669 -0.0920  0.4943
 8566TIP3    H147113   5.013   3.288   5.833  0.4928 -2.2884 -1.3212
 8566TIP3    H247114   4.888   3.252   5.755 -2.2571  1.2756  1.0877
 8567TIP3   OH247115   5.992   1.991   0.091  0.1615 -0.3007  0.1357
 8567TIP3    H147116   6.028   2.077   0.069  2.3605 -0.7766  1.5090
 8567TIP3    H247117   5.994   1.987   0.187 -0.6931 -1.5739  0.1329
 8568TIP3   OH247118   0.343   6.512  14.275 -0.3925  0.1917 -0.7528
 8568TIP3    H147119   0.316   6.432  14.321  2.2600 -0.4987 -0.2125
 8568TIP3    H247120   0.314   6.498  14.185 -2.8181  0.1288 -0.0494
 8569TIP3   OH247121   5.036   0.490   1.165  0.2857  0.1088 -0.0226
 8569TIP3    H147122   5.071   0.480   1.076  0.2456 -0.1597 -0.0073
 8569TIP3    H247123   5.090   0.433   1.219  0.1061  0.0281  0.0734
 8570TIP3   OH247124   5.899   0.752   4.283 -0.2427  0.1692 -0.0144
 8570TIP3    H147125   5.936   0.827   4.236 -1.5252 -0.0828 -1.5469
 8570TIP3    H247126   5.874   0.691   4.213 -1.2634 -0.6956  1.0737
 8571TIP3   OH247127   0.750   1.498  14.312 -0.1454  1.2764 -0.4745
 8571TIP3    H147128   0.832   1.545  14.297  0.2076  0.3799 -1.5184
 8571TIP3    H247129   0.770   1.435  14.380  0.1414  0.8177 -0.9783
 8572TIP3   OH247130   5.730   2.336  14.570 -0.0671 -0.0334  0.2873
 8572TIP3    H147131   5.745   2.401  14.501  0.9829 -0.2335  0.3110
 8572TIP3    H247132   5.747   2.383  14.651 -2.1653  0.4540  0.5134
 8573TIP3   OH247133   4.114   4.583  15.470  0.0426 -0.0651 -0.0086
 8573TIP3    H147134   4.127   4.572  15.564  0.3396  0.1475 -0.0256
 8573TIP3    H247135   4.019   4.581  15.459 -0.3773  4.5212  0.8970
 8574TIP3   OH247136   6.527   0.085   6.032  0.4855 -0.1942  0.1063
 8574TIP3    H147137   6.571   0.169   6.043 -1.0107  0.5276  0.8530
 8574TIP3    H247138   6.518   0.076   5.937 -0.7367  1.3056  0.0196
 8575TIP3   OH247139   0.443   5.118  11.653  0.2182  0.0246  0.3652
 8575TIP3    H147140   0.386   5.195  11.650 -1.8336 -1.3931  1.0927
 8575TIP3    H247141   0.463   5.098  11.562 -1.3821 -0.0848  0.0239
 8576TIP3   OH247142   6.229   6.678   0.791 -0.1110  0.5599 -0.4584
 8576TIP3    H147143   6.156   6.731   0.759  0.3203  1.3084 -0.2287
 8576TIP3    H247144   6.306   6.717   0.750  0.4869  1.6839  1.6004
 8577TIP3   OH247145   6.420   4.772   3.202  0.0109  0.1727 -0.9599
 8577TIP3    H147146   6.504   4.753   3.244  1.2183  1.0154 -2.8787
 8577TIP3    H247147   6.431   4.859   3.164 -1.5119  0.0308 -1.8258
 8578TIP3   OH247148   1.279   0.850  11.100  0.5841 -0.6123 -0.6297
 8578TIP3    H147149   1.230   0.816  11.025 -1.6606  0.4529  0.2625
 8578TIP3    H247150   1.370   0.855  11.070 -0.1930 -0.5573 -3.1574
 8579TIP3   OH247151   2.382   4.793  14.921 -0.9337 -0.0909 -0.2671
 8579TIP3    H147152   2.404   4.801  15.013  1.5969  1.2713 -0.8858
 8579TIP3    H247153   2.437   4.721  14.889 -1.5561 -0.3482 -0.7681
 8580TIP3   OH247154   4.039   0.391  12.575  0.6028 -0.3651 -0.4394
 8580TIP3    H147155   3.974   0.341  12.526 -0.0481 -0.3741  0.3992
 8580TIP3    H247156   4.096   0.324  12.613  0.5085 -0.4136 -0.3807
 8581TIP3   OH247157   2.253   0.619   2.521  0.3082  0.7167  0.0360
 8581TIP3    H147158   2.288   0.531   2.506 -0.2648  0.5910 -0.6455
 8581TIP3    H247159   2.328   0.677   2.505  1.2308  0.2933  2.4414
 8582TIP3   OH247160   5.887   2.292  11.645 -0.0639 -0.1552 -0.5400
 8582TIP3    H147161   5.847   2.364  11.694  0.4555 -1.4894  1.9868
 8582TIP3    H247162   5.823   2.221  11.652 -0.1356 -0.2941 -2.1819
 8583TIP3   OH247163   1.063   3.948  11.864  0.4104  0.4784  0.0684
 8583TIP3    H147164   0.967   3.951  11.854  0.2481 -0.4366  1.0941
 8583TIP3    H247165   1.097   3.990  11.785 -0.8548  1.9219  0.2442
 8584TIP3   OH247166   1.875   1.554   0.358 -0.2425 -0.5137 -1.0036
 8584TIP3    H147167   1.883   1.634   0.306 -4.5566 -0.4441 -1.9427
 8584TIP3    H247168   1.852   1.584   0.446 -0.1510 -0.7091 -0.9116
 8585TIP3   OH247169   4.384   3.821  15.452  0.1795 -0.1363  0.3159
 8585TIP3    H147170   4.398   3.803  15.545  0.6780  0.3691  0.3461
 8585TIP3    H247171   4.418   3.910  15.440  1.9112 -0.8951 -0.7612
 8586TIP3   OH247172   2.943   0.281  12.931 -0.3663  0.2352 -0.3201
 8586TIP3    H147173   3.024   0.249  12.892 -0.7761 -0.8395 -0.3159
 8586TIP3    H247174   2.960   0.373  12.950  0.1310  0.5813 -2.2499
 8587TIP3   OH247175   2.481   5.259   0.413  0.1139 -0.3763  0.6074
 8587TIP3    H147176   2.555   5.293   0.462 -0.4735  0.4924  0.9110
 8587TIP3    H247177   2.518   5.229   0.330  1.1286 -1.9180  1.5633
 8588TIP3   OH247178   5.120   4.443   6.181 -0.5439  0.2403 -0.7414
 8588TIP3    H147179   5.106   4.362   6.132 -1.0895  0.4757 -0.9922
 8588TIP3    H247180   5.214   4.448   6.194 -0.6725 -2.1619  2.2336
 8589TIP3   OH247181   0.431   2.184  16.636  0.4197  0.2404  0.0799
 8589TIP3    H147182   0.480   2.207  16.715 -1.2202  0.4382  1.0882
 8589TIP3    H247183   0.413   2.268  16.594 -0.4784  0.3409  0.6255
 8590TIP3   OH247184   4.270   0.851   1.615 -0.1399  0.3388 -0.3627
 8590TIP3    H147185   4.220   0.770   1.617  2.8780 -1.6866  1.7816
 8590TIP3    H247186   4.334   0.839   1.545  2.1859 -0.5583  1.7474
 8591TIP3   OH247187   6.681   2.850   5.190  0.2127 -0.0878  0.3244
 8591TIP3    H147188   6.642   2.793   5.256  1.7095 -2.3144 -0.6126
 8591TIP3    H247189   6.611   2.863   5.126  0.1768 -1.9342 -0.0660
 8592TIP3   OH247190   4.498   0.677  16.206  0.4720  0.2103  0.3729
 8592TIP3    H147191   4.509   0.765  16.170  1.2733 -0.0433 -0.0339
 8592TIP3    H247192   4.426   0.685  16.268 -0.9085  0.6664 -1.2442
 8593TIP3   OH247193   1.481   1.340   4.912 -0.2708  0.0173  0.3155
 8593TIP3    H147194   1.514   1.392   4.838 -0.1639  0.1845  0.4806
 8593TIP3    H247195   1.509   1.388   4.990  0.8172 -0.8715  0.5051
 8594TIP3   OH247196   0.334   5.993  14.983 -0.5838 -0.5093  0.0385
 8594TIP3    H147197   0.406   5.995  15.045 -0.9392  0.5721  0.4306
 8594TIP3    H247198   0.256   5.983  15.037 -1.0535  2.0853 -0.0350
 8595TIP3   OH247199   5.497   5.310   0.116  0.1883 -0.0218 -0.4708
 8595TIP3    H147200   5.549   5.388   0.136 -0.9051  0.6195  0.0050
 8595TIP3    H247201   5.478   5.317   0.022  0.4742  0.0440 -0.5239
 8596TIP3   OH247202   3.269   1.191   1.715  0.7646 -0.3917  0.0593
 8596TIP3    H147203   3.253   1.190   1.809 -0.2058 -1.2952 -0.0961
 8596TIP3    H247204   3.290   1.100   1.693  1.2812 -0.1367 -0.5618
 8597TIP3   OH247205   0.346   4.298  16.717 -0.1960  0.1436 -0.2990
 8597TIP3    H147206   0.403   4.264  16.786  0.5268  1.2817 -0.3086
 8597TIP3    H247207   0.341   4.227  16.653 -0.1230 -0.5787  0.4800
 8598TIP3   OH247208   2.448   4.327   3.917  0.3023 -0.4744  0.7897
 8598TIP3    H147209   2.463   4.234   3.901  0.0444 -0.4934  0.6607
 8598TIP3    H247210   2.440   4.365   3.830  1.8534 -0.0846  0.7812
 8599TIP3   OH247211   3.171   4.878   4.149 -0.0442 -0.0641  0.2003
 8599TIP3    H147212   3.089   4.840   4.178 -0.0990 -0.5697 -0.5897
 8599TIP3    H247213   3.152   4.971   4.138 -0.4663 -0.1541  0.1661
 8600TIP3   OH247214   5.588   5.334  15.281  0.1826  0.4484  0.7593
 8600TIP3    H147215   5.640   5.413  15.270 -0.7064  1.4244  2.9854
 8600TIP3    H247216   5.610   5.303  15.369  0.1715 -1.5351  0.1053
 8601TIP3   OH247217   6.479   5.985  13.188  0.1422  0.4006  0.5878
 8601TIP3    H147218   6.490   5.901  13.144 -2.7726  0.3455 -0.1835
 8601TIP3    H247219   6.516   6.050  13.127  0.7223 -0.1246  0.3706
 8602TIP3   OH247220   1.430   0.063  12.819  0.1093 -0.0984  0.0410
 8602TIP3    H147221   1.491   0.098  12.885  0.4083  0.6632 -0.6111
 8602TIP3    H247222   1.347   0.106  12.839 -0.3000 -1.2911  1.0566
 8603TIP3   OH247223   2.164   2.838   4.653  0.3595  0.2126  0.4493
 8603TIP3    H147224   2.254   2.835   4.686  0.4064 -1.3012  0.2531
 8603TIP3    H247225   2.113   2.791   4.719 -0.5905  2.3098  1.3163
 8604TIP3   OH247226   2.424   5.973  13.858 -0.2348 -0.2604  0.4525
 8604TIP3    H147227   2.454   5.899  13.909 -0.3641  0.0665  1.0091
 8604TIP3    H247228   2.335   5.949  13.831 -1.9306  1.2929  4.0303
 8605TIP3   OH247229   0.307   3.541   4.594  0.2197 -0.1751 -0.2363
 8605TIP3    H147230   0.235   3.482   4.568  0.0441 -0.1829  0.2686
 8605TIP3    H247231   0.385   3.487   4.587  0.0630 -0.4618  0.1934
 8606TIP3   OH247232   2.103   0.075  12.125 -0.0405 -0.3182 -0.5692
 8606TIP3    H147233   2.113   0.168  12.147  1.7806 -1.1360  2.6124
 8606TIP3    H247234   2.018   0.051  12.162  0.5996 -0.4377  0.8857
 8607TIP3   OH247235   5.749   5.278   2.033  0.2337 -0.1533  0.0743
 8607TIP3    H147236   5.764   5.338   2.106  0.2614  0.5412 -0.4980
 8607TIP3    H247237   5.720   5.196   2.075  0.6172  0.1165  0.8783
 8608TIP3   OH247238   0.934   3.760  15.312 -0.1081 -0.4563 -0.7059
 8608TIP3    H147239   0.862   3.822  15.303  0.3944  0.4759  1.1331
 8608TIP3    H247240   0.965   3.746  15.223 -1.8252 -0.0147 -1.4200
 8609TIP3   OH247241   4.320   3.222  11.563  0.0593  0.0310 -0.0993
 8609TIP3    H147242   4.386   3.282  11.528 -1.3038  1.8448  0.3014
 8609TIP3    H247243   4.305   3.159  11.492  1.1442  0.4632 -0.7373
 8610TIP3   OH247244   3.376   5.878  16.231 -0.5444  0.1859 -0.0375
 8610TIP3    H147245   3.393   5.929  16.152 -1.6208 -0.3511 -0.6406
 8610TIP3    H247246   3.458   5.882  16.281  0.0908  0.6906 -1.0909
 8611TIP3   OH247247   0.938   0.061  13.991 -0.6134  0.3516  0.5340
 8611TIP3    H147248   0.853   0.020  13.972 -0.1265 -0.9566  1.0532
 8611TIP3    H247249   0.998  -0.013  14.000  1.1563  1.2857 -2.3106
 8612TIP3   OH247250   6.367   5.976  14.002  0.5761 -0.2700  0.3435
 8612TIP3    H147251   6.422   6.017  13.935  0.4802 -0.0299  0.4087
 8612TIP3    H247252   6.362   5.884  13.977  0.1834 -0.1004 -0.2180
 8613TIP3   OH247253   5.542   2.340   4.666 -0.3310 -0.1197 -0.4293
 8613TIP3    H147254   5.573   2.299   4.747 -0.7266 -1.4824 -0.9519
 8613TIP3    H247255   5.472   2.284   4.635  0.3815 -0.1084 -2.1851
 8614TIP3   OH247256   1.320   3.387  11.690 -0.2857 -0.5997  0.2337
 8614TIP3    H147257   1.365   3.373  11.773 -0.2324 -1.3017  0.0913
 8614TIP3    H247258   1.388   3.423  11.632  0.6235 -3.2493 -0.4988
 8615TIP3   OH247259   4.346   2.275  14.751 -0.1305 -0.2069  0.5562
 8615TIP3    H147260   4.278   2.222  14.710 -0.2996 -0.4962  1.1969
 8615TIP3    H247261   4.428   2.234  14.724 -0.1595  0.6025 -0.8557
 8616TIP3   OH247262   2.840   4.499   2.674 -0.1192 -0.3965 -0.2096
 8616TIP3    H147263   2.872   4.583   2.641  1.5527 -0.6009  0.7917
 8616TIP3    H247264   2.857   4.437   2.604  1.1494 -0.3753  0.0563
 8617TIP3   OH247265   1.484   6.695   3.308 -0.0632  0.3006  0.4322
 8617TIP3    H147266   1.508   6.603   3.301  1.5011  0.6030  1.3572
 8617TIP3    H247267   1.502   6.732   3.221  2.0564  0.3037  0.8230
 8618TIP3   OH247268   4.079   4.367   5.840  0.2027 -0.2946 -0.0737
 8618TIP3    H147269   4.006   4.307   5.854 -0.9844  1.2933  0.9815
 8618TIP3    H247270   4.113   4.385   5.928  1.5165 -0.5438 -0.4988
 8619TIP3   OH247271   0.975   4.309   2.316  0.2480 -0.0778  0.0248
 8619TIP3    H147272   0.925   4.370   2.370  0.9928  1.2814 -0.7425
 8619TIP3    H247273   1.051   4.287   2.369  1.2778  1.7101 -0.5986
 8620TIP3   OH247274   6.692   1.537  11.287  0.1858 -0.5242 -0.4828
 8620TIP3    H147275   6.765   1.563  11.343 -0.1336  0.7371 -0.6325
 8620TIP3    H247276   6.615   1.548  11.342  0.0176 -0.8780 -0.6481
 8621TIP3   OH247277   0.792   5.615   5.695 -0.7433  0.1648 -0.1570
 8621TIP3    H147278   0.788   5.697   5.645  0.4436  0.5892  0.4163
 8621TIP3    H247279   0.801   5.547   5.628 -1.1911  0.5298 -0.6088
 8622TIP3   OH247280   0.270   6.566   2.757  0.8580 -0.7417  0.5379
 8622TIP3    H147281   0.188   6.607   2.728  1.4757 -0.1981 -0.4845
 8622TIP3    H247282   0.248   6.474   2.770  0.4763 -0.9485 -1.3950
 8623TIP3   OH247283   0.165   0.161  14.090 -0.6422  0.5016 -0.4599
 8623TIP3    H147284   0.105   0.231  14.115 -0.1108  0.5647  0.6751
 8623TIP3    H247285   0.252   0.198  14.105 -0.3557 -0.3818  0.1223
 8624TIP3   OH247286   4.605   3.937   1.633 -0.0407 -0.2894 -0.3481
 8624TIP3    H147287   4.659   3.964   1.559  0.1091 -1.5283 -0.7227
 8624TIP3    H247288   4.534   3.886   1.594 -0.4781 -0.1851  0.2859
 8625TIP3   OH247289   4.687   0.969   2.711  0.5375  0.0610  0.3624
 8625TIP3    H147290   4.724   0.895   2.758  2.0712  1.4338  1.4675
 8625TIP3    H247291   4.593   0.963   2.726  0.8848 -0.0386  2.9843
 8626TIP3   OH247292   4.689   0.402  17.311  0.1759  0.2244 -0.2249
 8626TIP3    H147293   4.759   0.357  17.263 -0.3675 -1.1153  0.1953
 8626TIP3    H247294   4.733   0.476  17.352  0.8384  0.8645 -2.0052
 8627TIP3   OH247295   4.208   5.657  16.012 -0.5672 -0.1915 -0.3816
 8627TIP3    H147296   4.138   5.603  16.049 -0.4390 -0.4299 -0.4875
 8627TIP3    H247297   4.273   5.594  15.982  1.0574  0.0398  2.3478
 8628TIP3   OH247298   3.072   4.135   1.183  0.0552 -0.0493 -0.5492
 8628TIP3    H147299   3.109   4.210   1.229 -0.5138 -1.4267  2.3587
 8628TIP3    H247300   3.146   4.074   1.174  0.6577  0.9009 -3.3862
 8629TIP3   OH247301   4.457   2.013  13.718  0.2113  0.5445 -0.2456
 8629TIP3    H147302   4.371   1.971  13.721  0.0311  0.7009 -2.1089
 8629TIP3    H247303   4.506   1.972  13.790 -0.0176 -2.7367 -1.7906
 8630TIP3   OH247304   4.063   3.606   4.059  0.2534 -0.0707 -0.3345
 8630TIP3    H147305   4.030   3.591   3.970 -0.8840 -1.0995  0.2366
 8630TIP3    H247306   4.093   3.521   4.089 -1.6105 -0.2791  1.1246
 8631TIP3   OH247307   0.377   4.139  10.728  0.1510  0.4493 -0.2545
 8631TIP3    H147308   0.391   4.232  10.741  2.3987  0.0837  0.2594
 8631TIP3    H247309   0.381   4.127  10.633  1.5765  0.6801 -0.2480
 8632TIP3   OH247310   2.418   0.096   1.160  0.1474  0.5406 -0.1277
 8632TIP3    H147311   2.461   0.038   1.097 -0.6841 -0.6275  0.3683
 8632TIP3    H247312   2.459   0.075   1.244 -1.0048 -0.2134  0.2598
 8633TIP3   OH247313   3.756   6.226  14.231  0.4050 -0.3543  0.5555
 8633TIP3    H147314   3.783   6.281  14.304 -0.8198 -0.5171  1.1656
 8633TIP3    H247315   3.818   6.153  14.232 -0.2200 -0.9142  2.1375
 8634TIP3   OH247316   3.296   2.637  12.791 -0.3009 -0.2519 -0.3990
 8634TIP3    H147317   3.210   2.656  12.828  1.5018  1.8431  3.2831
 8634TIP3    H247318   3.319   2.551  12.828 -0.5579 -0.5572 -0.9372
 8635TIP3   OH247319   2.955   4.488  11.509 -0.0502 -0.5022  0.2273
 8635TIP3    H147320   3.006   4.419  11.552 -0.7787 -1.4532 -0.3861
 8635TIP3    H247321   3.020   4.542  11.463  0.6266 -0.1257  1.5937
 8636TIP3   OH247322   0.056   3.406   4.603  0.2247  0.1854  0.6331
 8636TIP3    H147323   0.104   3.358   4.670 -0.3565  0.9137  1.5870
 8636TIP3    H247324  -0.026   3.432   4.645 -0.8280 -0.6582 -0.8393
 8637TIP3   OH247325   1.152   4.617  14.941 -0.1206 -0.2738 -0.8048
 8637TIP3    H147326   1.123   4.708  14.937 -2.3998 -0.9238 -0.6950
 8637TIP3    H247327   1.192   4.608  15.028  0.2372  0.6481 -0.8668
 8638TIP3   OH247328   4.037   1.583  15.178  0.3025  0.3531 -0.0247
 8638TIP3    H147329   3.970   1.634  15.131  1.0435  0.1631 -1.3489
 8638TIP3    H247330   4.089   1.649  15.224 -1.2232  0.4474  1.6580
 8639TIP3   OH247331   6.733   2.246  16.399  0.1600  0.4416 -0.1991
 8639TIP3    H147332   6.659   2.187  16.387  0.9653 -0.4608 -0.7537
 8639TIP3    H247333   6.811   2.190  16.395  0.8229  0.8551  3.3414
 8640TIP3   OH247334   1.149   5.354   3.400 -0.1319 -0.1323  0.2115
 8640TIP3    H147335   1.220   5.328   3.341 -0.5776 -0.2129 -0.2988
 8640TIP3    H247336   1.187   5.347   3.487  0.6795  0.4324 -0.0832
 8641TIP3   OH247337   2.420   0.780   2.351 -0.6634 -0.1135 -0.0976
 8641TIP3    H147338   2.455   0.840   2.417 -1.7360  1.3576 -0.7834
 8641TIP3    H247339   2.481   0.786   2.278 -0.7961  0.1827 -0.1842
 8642TIP3   OH247340   4.239   2.385   3.833 -0.3356  0.3905  0.3404
 8642TIP3    H147341   4.193   2.319   3.782 -0.7595  0.9457  0.0072
 8642TIP3    H247342   4.190   2.392   3.915  0.1016 -0.1923  0.6632
 8643TIP3   OH247343   3.270   1.939   3.663  0.0568  0.4786  0.0313
 8643TIP3    H147344   3.192   1.933   3.608  1.2288 -0.6801 -1.5943
 8643TIP3    H247345   3.316   2.016   3.630 -0.8131  1.7671  1.6523
 8644TIP3   OH247346   2.942   3.268   4.385 -0.5622 -0.0856 -0.3277
 8644TIP3    H147347   2.999   3.281   4.461 -0.7159  0.6630 -0.3270
 8644TIP3    H247348   2.854   3.263   4.423 -0.5041 -1.2355 -0.3273
 8645TIP3   OH247349   5.529   0.242  12.071 -0.2874 -0.4288 -0.6179
 8645TIP3    H147350   5.565   0.288  11.995 -0.3857 -0.6487 -0.7997
 8645TIP3    H247351   5.590   0.170  12.085  0.0813 -0.0150 -0.0921
 8646TIP3   OH247352   3.830   4.529  12.143 -0.0923  0.6436  0.2557
 8646TIP3    H147353   3.799   4.605  12.093 -1.3129 -0.3951 -0.6383
 8646TIP3    H247354   3.901   4.493  12.090 -0.7437  0.1121 -0.2875
 8647TIP3   OH247355   4.057   0.779  11.532  0.1003  0.2657 -0.6403
 8647TIP3    H147356   4.064   0.699  11.584  0.5321  0.0953 -0.9584
 8647TIP3    H247357   3.973   0.772  11.487  0.2762 -0.1497 -0.9032
 8648TIP3   OH247358   4.960   4.961  16.473 -0.2356 -0.5863  0.0641
 8648TIP3    H147359   4.893   5.020  16.438  1.6095  1.2231 -0.6373
 8648TIP3    H247360   4.914   4.910  16.540 -2.5188 -0.1236 -1.0443
 8649TIP3   OH247361   4.652   1.918   5.181  0.2153 -0.3726 -0.0135
 8649TIP3    H147362   4.571   1.955   5.145  0.8147  1.8936  0.8486
 8649TIP3    H247363   4.623   1.839   5.226 -1.4440  0.1144 -0.1533
 8650TIP3   OH247364   3.039   6.621  15.212  0.0546 -0.0102  0.0841
 8650TIP3    H147365   2.983   6.697  15.204  0.6787  0.4939  0.4282
 8650TIP3    H247366   3.109   6.648  15.271 -1.6805 -1.9727  3.3691
 8651TIP3   OH247367   4.139   4.439  16.312 -0.6395  0.6460  0.0593
 8651TIP3    H147368   4.214   4.482  16.353 -0.1719 -0.5866  0.5177
 8651TIP3    H247369   4.175   4.361  16.270 -1.8448 -0.8879  1.6949
 8652TIP3   OH247370   1.580   3.315   0.850  0.1724  0.2529  0.0776
 8652TIP3    H147371   1.493   3.286   0.824 -0.1755  1.3250 -0.0394
 8652TIP3    H247372   1.631   3.235   0.858 -1.2880 -0.5518  1.9691
 8653TIP3   OH247373   1.322   3.696   0.279 -0.1551  0.5019 -0.3310
 8653TIP3    H147374   1.306   3.625   0.341  0.2006  0.1920 -0.5843
 8653TIP3    H247375   1.282   3.773   0.319 -1.4116 -0.0411 -0.5129
 8654TIP3   OH247376   0.311   2.194  16.071 -0.6317 -0.0451  0.1380
 8654TIP3    H147377   0.337   2.159  16.156  0.5519 -1.3106 -0.6891
 8654TIP3    H247378   0.263   2.274  16.091  1.8575  1.1584  1.9265
 8655TIP3   OH247379   5.799   0.067   4.124  0.6433  0.9948 -1.2421
 8655TIP3    H147380   5.725   0.006   4.125  1.5681 -0.1859 -1.2889
 8655TIP3    H247381   5.772   0.139   4.181 -0.1690  0.1200 -0.4790
 8656TIP3   OH247382   3.200   1.822   0.900 -0.5835  0.5174 -0.4183
 8656TIP3    H147383   3.260   1.862   0.963 -2.0547  0.1295  1.2722
 8656TIP3    H247384   3.114   1.829   0.939 -1.6706  0.8483 -2.6972
 8657TIP3   OH247385   3.951   2.982  15.334  0.2214 -0.0878 -0.3150
 8657TIP3    H147386   4.025   2.921  15.331 -0.7523 -1.2919 -1.5474
 8657TIP3    H247387   3.900   2.960  15.256 -1.1701  1.0476  0.2439
 8658TIP3   OH247388   6.511   6.667   1.679  0.0771  0.9377 -0.4465
 8658TIP3    H147389   6.524   6.658   1.585  0.6216  0.8652 -0.3705
 8658TIP3    H247390   6.449   6.598   1.702  0.1906  0.7493 -0.7044
 8659TIP3   OH247391   4.409   3.621  14.848 -0.1182  0.0541  0.3184
 8659TIP3    H147392   4.385   3.558  14.781  0.5752  1.9480 -1.8092
 8659TIP3    H247393   4.326   3.643  14.891 -0.5990 -1.0377 -0.0190
 8660TIP3   OH247394   1.839   2.528   4.595 -0.1173  0.0576 -0.0529
 8660TIP3    H147395   1.780   2.499   4.526  0.2062 -0.6063 -0.0593
 8660TIP3    H247396   1.919   2.555   4.549 -0.1506  0.2710  0.0109
 8661TIP3   OH247397   1.527   2.709   5.350  0.0071 -0.1783 -0.0940
 8661TIP3    H147398   1.548   2.750   5.434  1.0060  0.1148 -0.4776
 8661TIP3    H247399   1.461   2.642   5.372  1.7728 -1.5775  1.2737
 8662TIP3   OH247400   1.064   2.678   0.556 -0.4730  0.6315  0.3036
 8662TIP3    H147401   1.040   2.685   0.648 -1.3526 -1.0331  0.2445
 8662TIP3    H247402   1.106   2.593   0.548 -1.6498  0.1198 -1.0461
 8663TIP3   OH247403   4.983   4.031   5.108 -0.2958 -0.2724  0.0489
 8663TIP3    H147404   4.987   4.036   5.204  0.6765  0.2054 -0.0034
 8663TIP3    H247405   4.978   4.123   5.080 -1.0874 -0.4258 -0.3572
 8664TIP3   OH247406   6.596   1.378  13.590 -0.3132  0.0667 -0.1947
 8664TIP3    H147407   6.508   1.410  13.569 -0.8449 -0.4962  1.0442
 8664TIP3    H247408   6.641   1.374  13.506 -1.0193  1.6722 -0.6890
 8665TIP3   OH247409   5.230   2.357  11.671 -0.1521 -0.2637  0.0102
 8665TIP3    H147410   5.207   2.370  11.579  1.4215 -2.7139 -0.8320
 8665TIP3    H247411   5.152   2.317  11.710 -0.6544  0.3519 -0.3328
 8666TIP3   OH247412   2.227   5.963  15.467  0.1490 -0.2155  0.6538
 8666TIP3    H147413   2.281   5.913  15.529  1.6465 -1.3353 -1.4086
 8666TIP3    H247414   2.175   5.897  15.422 -0.5335  0.5091  0.3567
 8667TIP3   OH247415   0.503   4.930   6.249 -0.3793 -0.0960 -0.3763
 8667TIP3    H147416   0.414   4.962   6.232 -0.0284  0.3397 -1.5173
 8667TIP3    H247417   0.550   4.946   6.167 -0.3331 -4.1785 -1.3854
 8668TIP3   OH247418   1.734   6.412  17.392 -0.9850 -0.3484 -0.3329
 8668TIP3    H147419   1.658   6.462  17.419 -1.1739 -1.2371  0.8578
 8668TIP3    H247420   1.729   6.331  17.442  0.3535 -0.7419 -0.7769
 8669TIP3   OH247421   4.283   5.746   4.788 -0.6423 -0.2893  0.0166
 8669TIP3    H147422   4.275   5.841   4.794 -1.0204 -0.2114 -1.3817
 8669TIP3    H247423   4.194   5.714   4.773 -0.7829 -1.0486  2.1727
 8670TIP3   OH247424   0.503   5.778  11.578  0.2509 -0.0076  0.3287
 8670TIP3    H147425   0.561   5.777  11.655  0.0754  0.4737  0.4663
 8670TIP3    H247426   0.479   5.870  11.567  1.3411  0.1370 -1.1117
 8671TIP3   OH247427   6.152   5.677   5.452  0.5609 -0.1738  0.4534
 8671TIP3    H147428   6.114   5.589   5.455 -1.0358  0.2896 -2.4309
 8671TIP3    H247429   6.081   5.734   5.479  0.7712  0.3803 -0.1468
 8672TIP3   OH247430   4.062   3.698   2.220 -0.1022  0.0290  0.7157
 8672TIP3    H147431   4.053   3.604   2.211  1.7877 -0.0969 -0.2549
 8672TIP3    H247432   4.087   3.729   2.133  0.1508  1.3042  1.2149
 8673TIP3   OH247433   1.929   2.133  12.365  0.0736  0.2060 -0.2688
 8673TIP3    H147434   1.939   2.163  12.456  0.0663 -0.0725 -0.1766
 8673TIP3    H247435   2.009   2.085  12.347 -0.1582 -0.2009 -0.2310
 8674TIP3   OH247436   0.822   4.144   4.970 -0.1890  0.2921  0.3351
 8674TIP3    H147437   0.894   4.133   4.907 -0.0953  2.3982 -0.0095
 8674TIP3    H247438   0.763   4.072   4.951  0.5473  0.0422 -1.2103
 8675TIP3   OH247439   5.832   5.407  14.835 -0.3209  0.1329 -0.3150
 8675TIP3    H147440   5.741   5.419  14.864 -0.0619  0.7465  0.2842
 8675TIP3    H247441   5.875   5.366  14.910  0.2417  1.2655  0.0106
 8676TIP3   OH247442   0.307   0.240   3.253  0.0256 -0.2020  0.2356
 8676TIP3    H147443   0.223   0.238   3.207  0.5969  0.3553 -0.8861
 8676TIP3    H247444   0.372   0.229   3.183  0.9258  0.5708  0.9334
 8677TIP3   OH247445   4.424   0.017   5.727 -0.1578  0.3605 -0.1979
 8677TIP3    H147446   4.331   0.038   5.730 -0.3824 -0.6510  0.2055
 8677TIP3    H247447   4.461   0.081   5.666 -1.0039  1.1611  0.1119
 8678TIP3   OH247448   2.175   6.380   2.880  0.4086  0.1411  0.2026
 8678TIP3    H147449   2.197   6.473   2.869 -3.7643  1.1084 -2.2142
 8678TIP3    H247450   2.122   6.378   2.960 -1.0605  0.2549 -0.7431
 8679TIP3   OH247451   2.060   1.296  12.961  0.2518  0.0963  0.1283
 8679TIP3    H147452   2.064   1.389  12.983 -0.1764  0.3025 -0.6375
 8679TIP3    H247453   2.146   1.277  12.922 -0.5833  0.8489 -2.2355
 8680TIP3   OH247454   5.384   2.816   3.165  0.6779  0.2979 -0.0156
 8680TIP3    H147455   5.339   2.854   3.090  0.2404 -0.7379 -0.3027
 8680TIP3    H247456   5.477   2.831   3.148  0.6071 -0.2089 -0.9499
 8681TIP3   OH247457   4.257   0.403  15.968  0.4671 -0.0855 -0.0787
 8681TIP3    H147458   4.338   0.382  16.016  0.2710 -1.7291 -0.3831
 8681TIP3    H247459   4.188   0.360  16.019 -0.2961  1.5464  0.3412
 8682TIP3   OH247460   5.369   3.638  16.021 -0.0277 -0.4567  0.4337
 8682TIP3    H147461   5.354   3.647  15.927 -0.6924  2.1335  0.7046
 8682TIP3    H247462   5.416   3.718  16.045 -1.2257 -0.3258  2.5380
 8683TIP3   OH247463   3.134   3.100   4.674  0.0065 -0.0677  0.1665
 8683TIP3    H147464   3.130   3.019   4.623  0.0936 -0.7046  1.1580
 8683TIP3    H247465   3.186   3.159   4.620  0.0213 -0.6952 -0.5278
 8684TIP3   OH247466   1.987   4.266  13.975  0.6836  0.6163 -0.4503
 8684TIP3    H147467   1.907   4.221  13.949  1.2681  0.9304 -3.0537
 8684TIP3    H247468   1.962   4.359  13.976  0.7064  0.6185  0.0081
 8685TIP3   OH247469   4.925   3.097   6.391  0.3431  0.0430 -0.0952
 8685TIP3    H147470   4.920   3.002   6.385  0.5080 -0.0409  0.8771
 8685TIP3    H247471   4.996   3.114   6.453 -1.0512  0.7233  1.4093
 8686TIP3   OH247472   0.018   0.988   6.557 -0.5692 -0.1639  0.1440
 8686TIP3    H147473   0.105   1.011   6.526 -1.3551  1.2752 -1.1152
 8686TIP3    H247474   0.002   0.900   6.523 -0.3788  0.3610 -1.3475
 8687TIP3   OH247475   3.971   3.355   4.513 -0.4672 -0.3816  0.4862
 8687TIP3    H147476   3.889   3.320   4.477 -1.6618  0.2409  2.4610
 8687TIP3    H247477   3.983   3.308   4.595 -0.5795  1.7334  1.7952
 8688TIP3   OH247478   0.010   0.016   1.759  0.0334 -0.4709  0.2019
 8688TIP3    H147479   0.002   0.055   1.846 -1.2683  3.7899 -1.5992
 8688TIP3    H247480  -0.058  -0.051   1.756 -0.9736  0.4098  1.9658
 8689TIP3   OH247481   5.970   1.565   3.889 -0.3344  0.1100 -0.3531
 8689TIP3    H147482   5.994   1.620   3.963 -0.1269 -1.4458  0.7729
 8689TIP3    H247483   5.992   1.476   3.916 -3.6506 -0.9850 -0.7851
 8690TIP3   OH247484   6.357   5.134   0.491 -0.1412 -0.4333  0.3152
 8690TIP3    H147485   6.296   5.080   0.541  0.2880 -1.0491  0.1750
 8690TIP3    H247486   6.444   5.101   0.514  0.1178  0.0822  0.0993
 8691TIP3   OH247487   4.643   0.714  15.787 -0.2056 -0.1948 -0.0382
 8691TIP3    H147488   4.577   0.688  15.851  1.1789  0.7967  1.9142
 8691TIP3    H247489   4.606   0.791  15.744  0.1833  1.2860  2.1025
 8692TIP3   OH247490   5.162   3.777  11.701 -0.1689  0.4492  0.2384
 8692TIP3    H147491   5.096   3.830  11.745 -0.8721  0.1171 -0.4146
 8692TIP3    H247492   5.165   3.810  11.612  1.4252  1.2725  0.5560
 8693TIP3   OH247493   6.665   4.976   4.697  0.5594 -0.0352 -0.0204
 8693TIP3    H147494   6.680   4.919   4.622  2.4176  0.1847  0.1253
 8693TIP3    H247495   6.621   4.920   4.761 -0.4898 -0.3917 -1.0154
 8694TIP3   OH247496   6.587   2.351  14.859  0.7654  0.2139  0.0663
 8694TIP3    H147497   6.551   2.438  14.849 -1.3712 -0.5057  0.9889
 8694TIP3    H247498   6.648   2.359  14.933  1.5208  1.1527 -0.6369
 8695TIP3   OH247499   5.033   4.541  13.865  0.1627 -0.3806 -0.7212
 8695TIP3    H147500   5.026   4.605  13.936 -0.4501  0.1936 -1.2936
 8695TIP3    H247501   5.126   4.545  13.840  1.1544 -2.7374  1.9805
 8696TIP3   OH247502   5.274   0.416   3.946 -0.4550  0.1632  0.1177
 8696TIP3    H147503   5.230   0.370   4.017 -0.9368 -0.3976 -0.5362
 8696TIP3    H247504   5.327   0.483   3.990  1.6011 -2.0427  1.2493
 8697TIP3   OH247505   6.531   1.097  16.732 -0.1022 -0.3742  0.0139
 8697TIP3    H147506   6.521   1.004  16.710  0.9708 -0.4385 -0.2858
 8697TIP3    H247507   6.625   1.113  16.722 -0.0815  0.4256  1.3339
 8698TIP3   OH247508   5.377   1.235  11.702  0.2070  0.6191 -0.0926
 8698TIP3    H147509   5.352   1.199  11.787 -1.8269 -0.7221 -1.1905
 8698TIP3    H247510   5.473   1.243  11.707  0.2112 -0.0436  2.0450
 8699TIP3   OH247511   0.120   4.591   2.868 -0.4068 -0.2948 -0.0775
 8699TIP3    H147512   0.214   4.577   2.880 -0.7641 -1.3321  2.0717
 8699TIP3    H247513   0.087   4.505   2.841 -0.6356  0.3339 -1.9477
 8700TIP3   OH247514   2.008   1.201   4.140  0.3398  0.1596 -0.3517
 8700TIP3    H147515   2.100   1.195   4.115  0.3491  1.2705 -0.6549
 8700TIP3    H247516   1.960   1.168   4.064  0.4955 -1.8719  0.3739
 8701TIP3   OH247517   0.306   5.093   5.904  0.1236  0.3540  0.2529
 8701TIP3    H147518   0.367   5.031   5.864 -0.4186  0.3463 -0.5753
 8701TIP3    H247519   0.352   5.125   5.981 -0.6252 -3.1467  2.3613
 8702TIP3   OH247520   1.525   6.742  11.982 -0.1321 -0.5637 -0.1569
 8702TIP3    H147521   1.480   6.680  12.039  0.9442 -0.4756  0.8346
 8702TIP3    H247522   1.468   6.751  11.906 -1.9310 -0.1724  1.1861
 8703TIP3   OH247523   1.638   1.219  17.146  0.1134  0.2025  0.0500
 8703TIP3    H147524   1.729   1.238  17.170 -0.3376  1.4365  0.9172
 8703TIP3    H247525   1.596   1.198  17.230 -0.2769 -0.9691 -0.4208
 8704TIP3   OH247526   0.522   1.440   4.425  0.4685  0.1328 -0.2393
 8704TIP3    H147527   0.464   1.463   4.352  1.4382  1.5174 -0.6103
 8704TIP3    H247528   0.594   1.503   4.420  0.7490  0.0459  1.6965
 8705TIP3   OH247529   1.696   0.990  17.338 -0.0180 -0.6668 -0.5706
 8705TIP3    H147530   1.656   0.909  17.370 -1.4097  0.0824 -0.3150
 8705TIP3    H247531   1.624   1.053  17.337  0.9836  0.5088 -0.9820
 8706TIP3   OH247532   0.653   5.538  15.245 -0.1403  0.5430  0.1156
 8706TIP3    H147533   0.747   5.551  15.238 -0.1377  1.3581  1.4461
 8706TIP3    H247534   0.644   5.455  15.293 -0.0269  2.0009  2.8179
 8707TIP3   OH247535   2.282   6.173   1.796 -0.3729 -0.6519 -0.4317
 8707TIP3    H147536   2.306   6.130   1.878  0.4557 -0.1200 -0.3723
 8707TIP3    H247537   2.364   6.178   1.747 -0.2691  1.4003 -0.1640
 8708TIP3   OH247538   3.784   4.430   0.412  0.5154  0.4794 -0.4530
 8708TIP3    H147539   3.761   4.401   0.500 -0.7012  1.6633 -0.3351
 8708TIP3    H247540   3.722   4.501   0.394  0.8118  0.3383 -2.2178
 8709TIP3   OH247541   0.955   2.758   1.943 -0.1844 -0.1480 -0.0185
 8709TIP3    H147542   0.974   2.727   1.855 -1.2357 -1.6237  0.2350
 8709TIP3    H247543   1.011   2.704   2.000 -0.6633 -0.3056  0.3092
 8710TIP3   OH247544   5.797   6.350   4.096 -0.1080  0.3659  0.2672
 8710TIP3    H147545   5.753   6.289   4.036 -0.7088  1.1864 -0.1478
 8710TIP3    H247546   5.798   6.304   4.180  1.4889 -1.1597 -0.5097
 8711TIP3   OH247547   3.944   1.729  11.992  0.2102  0.4601  0.0194
 8711TIP3    H147548   3.887   1.790  12.038 -0.8037  0.0256 -0.6223
 8711TIP3    H247549   3.924   1.643  12.030 -1.9840 -0.2097 -2.3372
 8712TIP3   OH247550   4.818   2.685   0.412  0.3768  0.1245 -0.0438
 8712TIP3    H147551   4.827   2.677   0.317  0.7995 -1.7311  0.1186
 8712TIP3    H247552   4.749   2.622   0.434 -1.8592  2.5873  0.6084
 8713TIP3   OH247553   5.088   2.381   5.411 -0.1552 -0.1370 -0.2423
 8713TIP3    H147554   5.033   2.453   5.443 -0.5187 -0.8998  0.9551
 8713TIP3    H247555   5.102   2.400   5.319 -3.6773 -0.6130 -1.0349
 8714TIP3   OH247556   1.170   1.799  15.835  0.2775 -0.5712 -0.1612
 8714TIP3    H147557   1.202   1.864  15.898  0.0234 -0.3815 -0.2217
 8714TIP3    H247558   1.102   1.752  15.883 -0.5260  0.1510 -0.5560
 8715TIP3   OH247559   4.646   5.805  16.863  1.0172  1.1063  0.0449
 8715TIP3    H147560   4.582   5.876  16.861  0.6805  0.8339  0.9179
 8715TIP3    H247561   4.595   5.726  16.847  1.0138  0.8137  1.4040
 8716TIP3   OH247562   6.559   3.673  10.921  0.3286 -0.3468 -0.0965
 8716TIP3    H147563   6.558   3.594  10.975  1.4017  0.0492  0.5184
 8716TIP3    H247564   6.577   3.640  10.833 -0.9801 -0.9467 -0.1711
 8717TIP3   OH247565   1.389   4.050   4.516 -0.1741 -0.2801  0.9099
 8717TIP3    H147566   1.479   4.065   4.487 -0.1953  0.8725  1.3633
 8717TIP3    H247567   1.375   3.956   4.504  0.1767 -0.0909 -1.7467
 8718TIP3   OH247568   1.753   3.113  13.912  0.1650 -0.0821  0.1320
 8718TIP3    H147569   1.673   3.070  13.882  0.1569  0.1777 -0.2282
 8718TIP3    H247570   1.809   3.116  13.834  0.6311 -0.5012  0.4467
 8719TIP3   OH247571   0.799   1.405  12.336 -0.0311  0.4449  0.2486
 8719TIP3    H147572   0.797   1.329  12.394  0.1201  0.8176  0.7474
 8719TIP3    H247573   0.716   1.400  12.288 -0.9775  1.0633  1.7263
 8720TIP3   OH247574   4.271   1.952  16.058  0.0899 -0.0677 -0.0567
 8720TIP3    H147575   4.366   1.947  16.049  0.0855 -1.6910  0.4843
 8720TIP3    H247576   4.238   1.878  16.007 -1.0115  1.3417 -1.4858
 8721TIP3   OH247577   2.094   0.706  14.582 -0.0096  0.2674  0.1830
 8721TIP3    H147578   2.090   0.660  14.666  0.6377  0.4856  0.3454
 8721TIP3    H247579   2.093   0.636  14.517 -0.3592  0.0883  0.3758
 8722TIP3   OH247580   3.608   6.517   3.528 -0.2874 -0.1901 -0.2594
 8722TIP3    H147581   3.598   6.448   3.462 -0.1763  0.3702 -0.8782
 8722TIP3    H247582   3.595   6.598   3.479 -0.9387  0.2140  0.5598
 8723TIP3   OH247583   3.908   3.324   0.011 -0.4172 -0.1430  0.0148
 8723TIP3    H147584   3.984   3.276  -0.022  0.2434 -0.0261  1.3158
 8723TIP3    H247585   3.833   3.271  -0.014  0.2487 -1.4885  0.7664
 8724TIP3   OH247586   3.272   4.861  14.926  0.1646 -0.1692  0.1452
 8724TIP3    H147587   3.339   4.877  14.992  0.4634  0.3791 -0.2745
 8724TIP3    H247588   3.321   4.849  14.845 -0.2657  1.2996 -0.3672
 8725TIP3   OH247589   0.045   3.101   4.003 -0.4493 -0.1606  0.4257
 8725TIP3    H147590   0.034   3.093   4.098 -0.4620 -0.1836  0.4226
 8725TIP3    H247591   0.118   3.043   3.983  0.5056  0.9417  0.6224
 8726TIP3   OH247592   2.334   6.439  11.294  0.2700 -0.0477 -0.9173
 8726TIP3    H147593   2.312   6.472  11.381  1.8372 -0.5756 -0.2758
 8726TIP3    H247594   2.318   6.512  11.235 -2.9361 -0.3194 -0.5649
 8727TIP3   OH247595   6.459   1.579  13.140  0.7594  0.2675 -0.3117
 8727TIP3    H147596   6.377   1.590  13.091 -0.0264  0.2862  0.9730
 8727TIP3    H247597   6.508   1.513  13.090 -0.6053 -0.7093 -0.4158
 8728TIP3   OH247598   3.592   2.898   6.264 -0.3755  0.0642  0.1895
 8728TIP3    H147599   3.620   2.986   6.242  0.8857 -0.6953 -1.4568
 8728TIP3    H247600   3.548   2.907   6.349 -0.5696  2.2963 -0.0961
 8729TIP3   OH247601   4.643   2.348   4.715 -0.2475 -0.7857 -0.0413
 8729TIP3    H147602   4.652   2.392   4.630 -1.0891 -1.5085 -0.5252
 8729TIP3    H247603   4.725   2.367   4.761  0.3333 -0.5951 -1.1205
 8730TIP3   OH247604   2.578   6.095  14.096 -0.3317  0.2408  0.4111
 8730TIP3    H147605   2.491   6.133  14.111  0.5989  2.6105  0.3462
 8730TIP3    H247606   2.584   6.086  14.001 -0.0623  1.2911  0.3180
 8731TIP3   OH247607   6.076   4.240   2.528 -0.1994 -0.0349  0.0992
 8731TIP3    H147608   6.032   4.174   2.583 -1.6604  0.0420 -0.9091
 8731TIP3    H247609   6.005   4.280   2.477  0.9259  0.8799 -0.8148
 8732TIP3   OH247610   4.513   2.278  15.991  0.5058 -0.2000  0.3744
 8732TIP3    H147611   4.597   2.251  15.955  1.0423  0.2904  1.2233
 8732TIP3    H247612   4.535   2.339  16.061 -0.5499 -0.1712  0.7062
 8733TIP3   OH247613   3.277   6.402   1.940 -0.0535 -0.5098  0.3634
 8733TIP3    H147614   3.206   6.466   1.945 -1.6128 -2.2593  2.7565
 8733TIP3    H247615   3.336   6.426   2.012  0.6584 -0.3925 -0.2374
 8734TIP3   OH247616   5.205   6.454   3.929  0.3929  0.3045 -0.6796
 8734TIP3    H147617   5.285   6.415   3.965  1.0403  0.9592 -1.3725
 8734TIP3    H247618   5.234   6.535   3.887 -0.8722  1.4197  0.4829
 8735TIP3   OH247619   3.778   6.459  16.568  0.0469 -0.1087  0.1265
 8735TIP3    H147620   3.786   6.476  16.474  0.5188  0.4154  0.2524
 8735TIP3    H247621   3.689   6.426  16.579 -0.0307 -0.1212 -0.4982
 8736TIP3   OH247622   6.097   3.685  13.605  0.0995  0.2475 -0.0929
 8736TIP3    H147623   6.045   3.735  13.542  0.3768  0.9084  0.1916
 8736TIP3    H247624   6.034   3.656  13.671  0.0498  0.8287  0.1177
 8737TIP3   OH247625   3.086   0.009   4.149 -0.2860  0.2101 -0.1137
 8737TIP3    H147626   3.063   0.067   4.076  1.8452 -1.0058 -1.9278
 8737TIP3    H247627   3.145   0.061   4.204 -0.0069  0.4309 -0.6122
 8738TIP3   OH247628   3.155   1.899   5.243  0.6432  0.2551 -0.5153
 8738TIP3    H147629   3.158   1.930   5.334  0.5016 -0.1748 -0.3614
 8738TIP3    H247630   3.245   1.904   5.213  1.2147 -2.1481  0.5303
 8739TIP3   OH247631   6.023   1.265  15.332 -0.0994  0.3357 -0.4692
 8739TIP3    H147632   6.092   1.198  15.331 -0.7939 -0.4665  1.1832
 8739TIP3    H247633   6.068   1.345  15.359  0.1694 -0.2521  0.9231
 8740TIP3   OH247634   6.627   1.587  12.204  0.0897  0.2061 -0.2967
 8740TIP3    H147635   6.647   1.670  12.162 -0.6222  0.2040 -0.6554
 8740TIP3    H247636   6.712   1.555  12.236  0.3594  1.0704 -0.1413
 8741TIP3   OH247637   0.599   3.136   1.645  0.0866 -0.5660  0.6600
 8741TIP3    H147638   0.639   3.146   1.559 -0.3874 -1.5251  0.3185
 8741TIP3    H247639   0.605   3.223   1.684  0.9036 -0.2808 -0.0777
 8742TIP3   OH247640   5.925   4.392  14.992  0.0889  0.1584 -0.8102
 8742TIP3    H147641   5.858   4.456  14.968 -0.6595 -0.9843 -1.9466
 8742TIP3    H247642   5.901   4.313  14.943 -0.5435 -1.8597  2.4340
 8743TIP3   OH247643   5.629   4.965  14.443  0.1334  0.6229 -0.9226
 8743TIP3    H147644   5.660   4.929  14.360 -0.0049 -0.1333 -0.6473
 8743TIP3    H247645   5.707   4.971  14.498  0.1881  0.9253 -1.0307
 8744TIP3   OH247646   2.227   1.238  14.031 -0.3536  0.5663 -0.0738
 8744TIP3    H147647   2.310   1.231  14.078 -0.5899  0.5842  0.3547
 8744TIP3    H247648   2.249   1.220  13.940 -0.1894 -1.3989  0.2994
 8745TIP3   OH247649   6.230   2.140  11.918 -0.1338 -0.6541  0.6008
 8745TIP3    H147650   6.317   2.101  11.909 -0.3464 -0.7773 -1.2564
 8745TIP3    H247651   6.224   2.204  11.846 -1.7151 -0.9365  0.4391
 8746TIP3   OH247652   0.794   6.451   4.682 -0.1128 -0.6679  0.9136
 8746TIP3    H147653   0.780   6.411   4.768 -0.7031 -0.2608  1.0131
 8746TIP3    H247654   0.706   6.468   4.649  0.1197 -0.3174  0.4630
 8747TIP3   OH247655   2.258   0.363   1.231  0.3899 -0.7808 -0.1568
 8747TIP3    H147656   2.296   0.275   1.237 -0.2588 -1.1468 -1.1139
 8747TIP3    H247657   2.330   0.419   1.203  0.5899 -1.1919 -0.4747
 8748TIP3   OH247658   1.963   4.326  12.942  0.1122 -0.0409 -0.4663
 8748TIP3    H147659   1.949   4.242  12.900  1.7051  0.1216 -1.4164
 8748TIP3    H247660   2.037   4.365  12.894  2.5383 -0.1160  2.8184
 8749TIP3   OH247661   2.607   3.378  14.547 -1.1076 -0.5283 -0.0896
 8749TIP3    H147662   2.588   3.320  14.473 -0.6850  1.0132 -1.4562
 8749TIP3    H247663   2.568   3.462  14.522  0.4447  0.4725  0.6882
 8750TIP3   OH247664   0.834   5.722   0.509 -0.0469 -0.2556 -0.1403
 8750TIP3    H147665   0.910   5.712   0.567 -0.9058 -0.4394  0.9825
 8750TIP3    H247666   0.847   5.808   0.469  1.0245 -0.5098 -0.3943
 8751TIP3   OH247667   6.408   2.224   1.470 -0.0525 -0.4067  0.2095
 8751TIP3    H147668   6.369   2.139   1.451 -3.4263  1.1667 -0.6497
 8751TIP3    H247669   6.479   2.205   1.531 -0.9369 -3.7633  0.3785
 8752TIP3   OH247670   2.400   0.831   4.901  0.1826  0.0698  0.0121
 8752TIP3    H147671   2.415   0.782   4.982  1.8378 -0.4718 -0.5801
 8752TIP3    H247672   2.402   0.923   4.927  2.4795 -0.0357  0.3644
 8753TIP3   OH247673   0.187   0.213  15.112  0.8557 -0.3968  0.5373
 8753TIP3    H147674   0.162   0.182  15.025 -0.2955 -3.1418  1.7319
 8753TIP3    H247675   0.167   0.140  15.170  1.4896  1.3701  3.1543
 8754TIP3   OH247676   2.321   0.892  11.525 -0.1022 -0.0158  0.6132
 8754TIP3    H147677   2.314   0.808  11.570  2.1370 -1.0734 -0.8301
 8754TIP3    H247678   2.405   0.927  11.555  0.5808  0.0844 -1.3227
 8755TIP3   OH247679   2.777   3.994   2.175 -0.1496  0.0280  0.1962
 8755TIP3    H147680   2.819   4.056   2.234  0.8010 -2.3679  2.2199
 8755TIP3    H247681   2.697   3.967   2.220 -0.8334  0.1737 -0.8989
 8756TIP3   OH247682   1.279   1.038   1.007  0.0019  0.0689  0.0348
 8756TIP3    H147683   1.303   0.946   0.998 -1.2071 -0.0374 -4.3206
 8756TIP3    H247684   1.354   1.086   0.973 -0.1771  0.5771  0.3415
 8757TIP3   OH247685   0.768   5.515   5.955  0.4553 -0.0361 -0.1480
 8757TIP3    H147686   0.676   5.538   5.971  0.1505 -1.1371 -0.2505
 8757TIP3    H247687   0.779   5.524   5.860  0.6590  0.7937 -0.0523
 8758TIP3   OH247688   4.406   1.897  12.984  0.0490 -0.4564  0.4456
 8758TIP3    H147689   4.371   1.946  12.909  1.0760  0.4890  0.5507
 8758TIP3    H247690   4.346   1.918  13.056  0.3515  0.4977  0.4354
 8759TIP3   OH247691   3.765   1.998   4.130 -0.8963  0.0647  0.0767
 8759TIP3    H147692   3.837   2.023   4.073  1.7171 -1.3784  2.4834
 8759TIP3    H247693   3.782   2.043   4.213 -1.9427 -1.4052  1.1589
 8760TIP3   OH247694   6.709   5.373  11.405 -0.0914  0.4689 -0.6894
 8760TIP3    H147695   6.783   5.374  11.466 -0.5046 -0.4804 -0.1463
 8760TIP3    H247696   6.647   5.436  11.440 -0.1125  0.2891 -0.4027
 8761TIP3   OH247697   5.988   5.199   3.059 -0.0448  0.6175  0.3321
 8761TIP3    H147698   6.027   5.173   2.975 -2.0390  0.1809 -0.5075
 8761TIP3    H247699   6.063   5.217   3.116  1.3575 -0.2595 -1.1691
 8762TIP3   OH247700   4.231   1.334   0.978 -0.4303  0.0587 -0.1549
 8762TIP3    H147701   4.249   1.262   1.039 -0.3378  0.4143  0.2421
 8762TIP3    H247702   4.318   1.364   0.950 -0.4757 -0.6379 -1.1112
 8763TIP3   OH247703   4.422   3.508   0.870 -0.6827 -0.1818  0.0541
 8763TIP3    H147704   4.368   3.546   0.800  0.6709 -0.0799 -0.9856
 8763TIP3    H247705   4.409   3.566   0.945 -3.4879 -1.2334  0.4916
 8764TIP3   OH247706   0.304   6.254  13.941  0.5358 -0.3134  0.0073
 8764TIP3    H147707   0.321   6.347  13.956 -1.5525 -0.0259  0.8998
 8764TIP3    H247708   0.299   6.245  13.846 -2.3489  1.1948 -0.1051
 8765TIP3   OH247709   4.768   5.620   5.555  0.3644  0.1853  0.7419
 8765TIP3    H147710   4.780   5.708   5.520  0.4017 -0.7068 -1.7329
 8765TIP3    H247711   4.724   5.633   5.639 -2.4004  2.4702 -0.8862
 8766TIP3   OH247712   4.429   6.294   5.766  0.2584 -0.1488 -0.0240
 8766TIP3    H147713   4.478   6.376   5.761 -3.1711  2.0384 -0.6890
 8766TIP3    H247714   4.383   6.288   5.683 -0.2761 -2.3730  0.3482
 8767TIP3   OH247715   5.383   0.549   2.164 -0.2628  0.2315  0.2652
 8767TIP3    H147716   5.388   0.454   2.171 -0.5544  0.2444  0.7046
 8767TIP3    H247717   5.367   0.566   2.071  0.8005 -0.0976  0.0049
 8768TIP3   OH247718   4.114   4.463  12.874 -0.3090  0.0937 -0.1383
 8768TIP3    H147719   4.179   4.441  12.808  0.1893  1.8026 -0.2594
 8768TIP3    H247720   4.147   4.423  12.954  0.1329 -0.2837 -0.5039
 8769TIP3   OH247721   5.190   0.151   6.188 -0.6853 -0.0898  0.6443
 8769TIP3    H147722   5.141   0.205   6.127 -0.0637  0.3422  0.5088
 8769TIP3    H247723   5.275   0.196   6.196 -0.7002 -0.2247  1.6919
 8770TIP3   OH247724   4.398   5.302   2.821 -0.3282  0.3097  0.1925
 8770TIP3    H147725   4.436   5.216   2.841 -0.7583  0.1556  0.3586
 8770TIP3    H247726   4.474   5.358   2.803  0.1406  0.5371  2.5424
 8771TIP3   OH247727   2.878   1.986  13.007 -0.1113  0.5525  0.0196
 8771TIP3    H147728   2.808   1.981  12.941  0.5485  0.0818 -0.6531
 8771TIP3    H247729   2.957   2.008  12.958  0.2549  0.9409  0.7594
 8772TIP3   OH247730   1.507   0.664   0.417 -0.9201 -1.2727 -0.1280
 8772TIP3    H147731   1.523   0.655   0.511 -1.6654 -0.4536  0.0863
 8772TIP3    H247732   1.592   0.688   0.381 -0.6283 -1.5883  0.3400
 8773TIP3   OH247733   3.546   0.534   6.352 -0.2033  0.5015 -0.2018
 8773TIP3    H147734   3.556   0.615   6.402  2.4200  1.1648 -1.5923
 8773TIP3    H247735   3.452   0.516   6.354 -0.4548  1.5829  3.1192
 8774TIP3   OH247736   1.310   0.459   1.587  0.0931  0.0601  0.2593
 8774TIP3    H147737   1.354   0.529   1.538  1.2407 -1.7587 -1.4480
 8774TIP3    H247738   1.351   0.462   1.674  1.1975  0.5629 -0.2553
 8775TIP3   OH247739   4.738   3.966   1.403  0.5819 -0.1212 -0.1985
 8775TIP3    H147740   4.747   3.877   1.367  0.2460  0.5337 -2.0079
 8775TIP3    H247741   4.724   4.021   1.326 -0.8946  1.2949  1.0315
 8776TIP3   OH247742   5.232   0.843   4.694  0.1205 -0.4252 -0.9635
 8776TIP3    H147743   5.195   0.765   4.652 -0.4231  0.6306 -2.5077
 8776TIP3    H247744   5.155   0.894   4.720  0.3494 -1.5588  2.5424
 8777TIP3   OH247745   5.462   3.347   1.428 -0.1436  0.1462 -0.3844
 8777TIP3    H147746   5.439   3.294   1.505 -1.5926 -1.0032 -1.5730
 8777TIP3    H247747   5.386   3.341   1.371  1.5303 -0.4639 -2.6917
 8778TIP3   OH247748   1.129   4.979  15.978 -0.1571  0.1130 -0.0282
 8778TIP3    H147749   1.170   5.030  16.049 -1.3701  1.0697  0.0281
 8778TIP3    H247750   1.166   5.017  15.898  0.8541 -0.6471  0.0645
 8779TIP3   OH247751   4.130   1.909   2.390  0.5212  0.5982 -0.0094
 8779TIP3    H147752   4.121   1.999   2.419  2.9189  0.6716  0.7689
 8779TIP3    H247753   4.224   1.891   2.395  0.1353 -1.9412 -0.1495
 8780TIP3   OH247754   0.161   5.738   6.441 -0.4897  0.5329  0.1472
 8780TIP3    H147755   0.176   5.706   6.353 -1.5811 -0.3135  0.2486
 8780TIP3    H247756   0.183   5.664   6.498 -0.1930  0.9320  0.5616
 8781TIP3   OH247757   0.977   6.398  15.011 -0.3858  0.2457  0.3068
 8781TIP3    H147758   1.036   6.395  14.936 -0.8958 -2.4422 -0.0761
 8781TIP3    H247759   0.922   6.475  14.994 -0.1566  0.0163 -1.8269
 8782TIP3   OH247760   3.577   3.079  13.257 -0.1331 -0.2554 -0.4749
 8782TIP3    H147761   3.494   3.084  13.305 -0.1085 -3.1829  0.0255
 8782TIP3    H247762   3.645   3.085  13.324  0.0043 -0.4522 -0.5953
 8783TIP3   OH247763   3.169   1.349   3.762 -0.0568 -0.3659 -0.1350
 8783TIP3    H147764   3.143   1.365   3.852 -0.6326  0.3351 -0.4115
 8783TIP3    H247765   3.202   1.434   3.731  0.5471 -0.7069 -0.4468
 8784TIP3   OH247766   2.070   6.373   3.171 -0.7708 -0.4979 -0.9281
 8784TIP3    H147767   2.130   6.399   3.242 -1.9216 -0.7106  0.1412
 8784TIP3    H247768   2.048   6.456   3.128  0.0273 -0.3796 -1.1298
 8785TIP3   OH247769   3.308   2.362   2.262 -1.0427  0.4915  0.0498
 8785TIP3    H147770   3.329   2.314   2.342 -0.7919  0.8481  0.2029
 8785TIP3    H247771   3.281   2.449   2.293 -2.6250  0.0977 -0.1443
 8786TIP3   OH247772   0.637   5.746  11.331  0.3566  0.7055  0.3201
 8786TIP3    H147773   0.591   5.811  11.385 -2.1542 -0.9928  0.4134
 8786TIP3    H247774   0.633   5.783  11.242  0.9263  1.6570  0.6702
 8787TIP3   OH247775   1.848   6.438   4.050  0.0078 -0.1891  0.2957
 8787TIP3    H147776   1.820   6.349   4.027 -2.1509  0.4546  0.2211
 8787TIP3    H247777   1.850   6.484   3.966 -1.0515  0.3672  0.5567
 8788TIP3   OH247778   6.214   5.957  16.709 -0.1325 -0.5098  0.2449
 8788TIP3    H147779   6.261   5.890  16.759 -0.5775 -0.7145  0.4032
 8788TIP3    H247780   6.220   6.036  16.764 -0.0916 -0.5712  0.3299
 8789TIP3   OH247781   3.284   4.809  12.320 -0.1403  0.6100  0.3346
 8789TIP3    H147782   3.253   4.874  12.383  1.1065  0.1530  1.4599
 8789TIP3    H247783   3.357   4.851  12.276 -0.9788  0.9092 -0.8055
 8790TIP3   OH247784   5.490   0.649   6.433 -0.2967 -0.1666 -0.6445
 8790TIP3    H147785   5.477   0.573   6.376  1.2268 -0.1320 -1.0710
 8790TIP3    H247786   5.523   0.612   6.515 -1.3888 -0.1105 -0.1589
 8791TIP3   OH247787   2.454   3.366  15.423  0.7648  0.2846 -0.4047
 8791TIP3    H147788   2.470   3.444  15.476  2.4599 -0.0365 -0.3697
 8791TIP3    H247789   2.378   3.388  15.370 -0.0677  1.1657  1.0924
 8792TIP3   OH247790   5.103   4.407   4.447 -0.0169 -0.0395 -0.3194
 8792TIP3    H147791   5.022   4.416   4.497  1.3306 -2.7300  2.7246
 8792TIP3    H247792   5.157   4.480   4.476 -0.5168  0.4580 -0.6164
 8793TIP3   OH247793   5.750   2.246   3.709  0.2267 -0.4209 -0.0628
 8793TIP3    H147794   5.817   2.205   3.656  0.3090  0.7301 -0.8833
 8793TIP3    H247795   5.691   2.287   3.646 -0.9707 -0.9779  0.6620
 8794TIP3   OH247796   5.538   6.068   1.012 -0.5393 -0.5949 -0.3854
 8794TIP3    H147797   5.483   5.991   1.024 -1.2210 -0.4997 -2.5163
 8794TIP3    H247798   5.479   6.142   1.025 -0.9120 -0.4921 -2.3274
 8795TIP3   OH247799   5.267   5.809   2.659  0.2617  0.3666  0.6106
 8795TIP3    H147800   5.225   5.891   2.687  0.0585  0.4020  0.2091
 8795TIP3    H247801   5.204   5.741   2.684 -0.0684  0.4249 -0.0517
 8796TIP3   OH247802   2.883   0.303   4.379  0.0490  0.5694  0.0519
 8796TIP3    H147803   2.936   0.228   4.406  0.3277  0.0495 -1.7569
 8796TIP3    H247804   2.947   0.362   4.338 -0.6668  0.0934 -1.8440
 8797TIP3   OH247805   5.754   0.408   3.321  0.1276  0.4745  0.2464
 8797TIP3    H147806   5.803   0.326   3.315  0.0050  0.4958 -2.0628
 8797TIP3    H247807   5.688   0.402   3.251 -0.6378  2.0713  0.7634
 8798TIP3   OH247808   1.056   1.792  11.308 -0.1023 -0.1145  0.1694
 8798TIP3    H147809   1.002   1.831  11.239 -0.1917 -0.6339 -0.0547
 8798TIP3    H247810   1.145   1.794  11.273 -0.2119 -0.8133 -0.1624
 8799TIP3   OH247811   2.759   0.652   0.631 -0.4620 -0.3207 -0.1701
 8799TIP3    H147812   2.799   0.724   0.581  2.2947 -0.0313  2.1657
 8799TIP3    H247813   2.703   0.695   0.695 -0.8854 -0.4271 -0.4691
 8800TIP3   OH247814   6.019   1.412   0.507  0.2352 -0.1712 -0.0505
 8800TIP3    H147815   6.099   1.365   0.488  0.1486 -0.7826  1.0452
 8800TIP3    H247816   6.048   1.491   0.553  0.2747  0.1123 -0.5574
 8801TIP3   OH247817   0.197   1.351  11.119 -0.0328 -0.2021 -0.2599
 8801TIP3    H147818   0.124   1.307  11.076  0.8361  0.3397 -2.3952
 8801TIP3    H247819   0.206   1.305  11.203 -1.2125 -1.9121 -1.0037
 8802TIP3   OH247820   1.137   0.249  14.676 -0.0875  0.0559  0.0975
 8802TIP3    H147821   1.061   0.243  14.618 -0.9903 -0.5597  1.3000
 8802TIP3    H247822   1.100   0.243  14.764  1.2050  1.3998  0.7719
 8803TIP3   OH247823   5.409   2.367  15.828  0.3542 -0.2123 -0.3257
 8803TIP3    H147824   5.437   2.302  15.892  3.0026  0.8497 -0.2481
 8803TIP3    H247825   5.355   2.428  15.878  0.5065 -0.6309  0.3715
 8804TIP3   OH247826   4.423   6.169   2.283  0.0780 -0.3455  0.3568
 8804TIP3    H147827   4.467   6.192   2.201 -0.6718  1.5829  0.4575
 8804TIP3    H247828   4.492   6.133   2.338  0.6217 -1.6103 -1.0574
 8805TIP3   OH247829   5.019   2.436  16.142 -0.0220  0.6282 -0.2170
 8805TIP3    H147830   5.110   2.408  16.151 -0.6053 -1.3394  0.0468
 8805TIP3    H247831   5.006   2.500  16.212  0.5431 -0.8686  1.3447
 8806TIP3   OH247832   5.710   3.691  15.986 -0.6998  0.0595  0.4313
 8806TIP3    H147833   5.664   3.768  16.019  0.6459  0.8791  0.4671
 8806TIP3    H247834   5.696   3.693  15.891 -0.0530  0.7894  0.3402
 8807TIP3   OH247835   5.276   3.267  14.550  0.3676  0.3339  0.4799
 8807TIP3    H147836   5.240   3.179  14.541 -0.0073  0.3287  1.8156
 8807TIP3    H247837   5.365   3.253  14.582  0.2480  0.4405  0.8630
 8808TIP3   OH247838   6.218   3.401  13.642 -0.0682  0.2936  0.5080
 8808TIP3    H147839   6.209   3.494  13.623  2.9343  0.5524 -0.1411
 8808TIP3    H247840   6.182   3.357  13.564 -0.5159  0.9377  0.3503
 8809TIP3   OH247841   4.963   4.194  14.216 -0.2128 -0.0929  0.5451
 8809TIP3    H147842   5.022   4.221  14.286 -0.5018 -0.3648  0.8960
 8809TIP3    H247843   4.951   4.100  14.230 -0.7401 -0.0371  0.4797
 8810TIP3   OH247844   2.372   4.749   4.064  0.1127  0.4206 -0.2956
 8810TIP3    H147845   2.311   4.736   4.137  1.1409  1.5283  0.8087
 8810TIP3    H247846   2.436   4.678   4.073  0.8431  1.1627  0.5521
 8811TIP3   OH247847   1.433   4.396  12.965 -0.1180  0.1791 -0.1259
 8811TIP3    H147848   1.484   4.467  12.925  1.1569 -1.0540 -0.7662
 8811TIP3    H247849   1.345   4.407  12.930 -0.1801  1.9387  0.4513
 8812TIP3   OH247850   5.823   6.254   0.620 -0.1120 -0.0778 -0.2605
 8812TIP3    H147851   5.876   6.230   0.696 -1.9919  2.6106  2.0748
 8812TIP3    H247852   5.784   6.338   0.643 -1.6741  0.3401 -3.7943
 8813TIP3   OH247853   0.788   1.224   2.671  0.0651  0.0819  0.2205
 8813TIP3    H147854   0.809   1.181   2.588 -1.6784  1.0467 -0.7874
 8813TIP3    H247855   0.693   1.221   2.676  0.1040  0.6671  1.8720
 8814TIP3   OH247856   3.832   4.229  11.885 -0.1735  0.0900 -0.1229
 8814TIP3    H147857   3.779   4.153  11.907  0.9666 -0.8645 -0.5543
 8814TIP3    H247858   3.774   4.304  11.899 -0.9341 -0.7562  1.5043
 8815TIP3   OH247859   0.777   0.353   2.305  0.1436  0.2981  0.1708
 8815TIP3    H147860   0.872   0.347   2.297  0.1565 -0.3669  0.7550
 8815TIP3    H247861   0.751   0.418   2.239  0.9495  0.1655 -0.2809
 8816TIP3   OH247862   1.545   4.614  16.663  0.1603 -0.0687 -0.0091
 8816TIP3    H147863   1.568   4.536  16.713 -1.3659 -0.0999  0.7118
 8816TIP3    H247864   1.520   4.678  16.730  0.1639  0.6150 -0.6540
 8817TIP3   OH247865   1.548   5.982   3.980 -0.2274  0.6653 -0.2562
 8817TIP3    H147866   1.510   5.895   3.971  0.4979  0.4464 -1.4388
 8817TIP3    H247867   1.634   5.967   4.018  1.1140  0.5156 -3.1289
 8818TIP3   OH247868   3.977   2.193   1.659  0.1175  0.0889 -0.0107
 8818TIP3    H147869   3.963   2.280   1.697  0.0333 -0.1585  0.5209
 8818TIP3    H247870   3.896   2.175   1.612  0.1959  0.3637 -0.2563
 8819TIP3   OH247871   0.345   2.969   5.706 -0.5626 -0.0718 -0.0786
 8819TIP3    H147872   0.337   3.008   5.619  2.0303  1.2105  0.1856
 8819TIP3    H247873   0.320   3.040   5.766 -0.6471 -0.4022  0.2796
 8820TIP3   OH247874   5.506   6.001   2.549  0.7408  0.2553 -0.2736
 8820TIP3    H147875   5.448   6.044   2.486 -0.2148 -0.3896  0.1268
 8820TIP3    H247876   5.508   6.059   2.625  0.8415  0.4146 -0.3996
 8821TIP3   OH247877   1.162   1.742   3.531 -0.6394  0.2856 -0.6480
 8821TIP3    H147878   1.237   1.713   3.480 -1.6341  0.1218 -2.0728
 8821TIP3    H247879   1.183   1.832   3.556  0.5766 -0.1874  0.0790
 8822TIP3   OH247880   2.086   2.582   1.638 -0.2350 -0.3276 -0.0267
 8822TIP3    H147881   2.073   2.630   1.556  1.2684 -0.5152 -0.4048
 8822TIP3    H247882   2.102   2.651   1.703 -0.2985 -0.2308 -0.1119
 8823TIP3   OH247883   3.542   2.464  15.234 -0.3741 -0.4238  0.0525
 8823TIP3    H147884   3.575   2.501  15.152 -0.1551  0.8400  0.7002
 8823TIP3    H247885   3.554   2.533  15.298 -1.4077 -1.0733  0.9664
 8824TIP3   OH247886   3.825   1.957   1.819 -0.7764  0.2713 -0.5318
 8824TIP3    H147887   3.786   2.031   1.772 -1.2844 -0.1295 -0.7574
 8824TIP3    H247888   3.785   1.960   1.906 -0.0334  0.8573 -0.1992
 8825TIP3   OH247889   6.052   5.375   5.784  0.0526 -0.2328 -0.1699
 8825TIP3    H147890   6.079   5.437   5.852 -1.0267  0.6981 -0.5630
 8825TIP3    H247891   6.031   5.295   5.832 -2.2010  0.8764  0.8255
 8826TIP3   OH247892   0.803   2.805   4.615 -0.0727 -0.2720  0.2490
 8826TIP3    H147893   0.870   2.864   4.651  0.5764  0.9724 -2.6776
 8826TIP3    H247894   0.853   2.740   4.565 -0.9618  0.8173 -2.1845
 8827TIP3   OH247895   2.377   5.746  15.220 -0.1386  0.3552  0.1798
 8827TIP3    H147896   2.407   5.682  15.156  1.3537  1.1328  0.0348
 8827TIP3    H247897   2.298   5.783  15.182 -0.8567 -1.1672  0.1353
 8828TIP3   OH247898   6.179   1.649  14.413  0.6115  0.3670  0.5296
 8828TIP3    H147899   6.159   1.726  14.468 -3.4084  0.8129 -1.1979
 8828TIP3    H247900   6.214   1.585  14.475  1.6817  2.6818  2.5210
 8829TIP3   OH247901   5.301   0.202  13.366 -0.3939 -0.2961  0.2437
 8829TIP3    H147902   5.369   0.136  13.380 -0.9507 -0.5669  1.8967
 8829TIP3    H247903   5.349   0.281  13.342  0.4497 -0.7063  0.5283
 8830TIP3   OH247904   6.453   2.757   5.393 -0.2019  0.3780  1.0753
 8830TIP3    H147905   6.413   2.674   5.369  0.4697 -0.0600  1.4399
 8830TIP3    H247906   6.531   2.733   5.444  2.3781  1.0203 -2.1712
 8831TIP3   OH247907   3.846   1.994  16.517 -0.2778 -0.1130  0.5263
 8831TIP3    H147908   3.808   2.077  16.490 -0.5303  0.5169  2.6325
 8831TIP3    H247909   3.940   2.011  16.523  0.2094 -1.0701 -2.5688
 8832TIP3   OH247910   3.595   3.274  14.091 -0.4590  0.2994 -0.2590
 8832TIP3    H147911   3.627   3.360  14.118  2.5276 -0.7086 -0.2262
 8832TIP3    H247912   3.669   3.235  14.044 -0.8291 -3.1044  1.7092
 8833TIP3   OH247913   1.200   0.580   2.783  0.5074  0.3441  0.1156
 8833TIP3    H147914   1.250   0.498   2.785 -0.0344  0.0082  1.6754
 8833TIP3    H247915   1.110   0.551   2.770  0.2583  0.6274  1.0872
 8834TIP3   OH247916   3.066   4.458   0.678 -0.1939 -0.4516  0.1849
 8834TIP3    H147917   3.074   4.366   0.705  0.0590  0.1767  2.5000
 8834TIP3    H247918   2.981   4.485   0.711 -0.6663 -0.0759 -1.3002
 8835TIP3   OH247919   6.209   3.127   6.350  0.8603  0.0858 -0.2432
 8835TIP3    H147920   6.124   3.166   6.373  0.7946  0.2156 -0.6951
 8835TIP3    H247921   6.220   3.147   6.257  0.4154 -1.7133 -0.7201
 8836TIP3   OH247922   6.222   3.171  10.619  0.0946 -0.0446  0.7723
 8836TIP3    H147923   6.129   3.195  10.618  0.0756 -0.0907 -0.8068
 8836TIP3    H247924   6.268   3.255  10.616  0.1550  0.0305  2.6133
 8837TIP3   OH247925   2.248   1.867   1.782  0.1207 -0.7479  0.7281
 8837TIP3    H147926   2.247   1.844   1.689  1.2547  0.2345  0.4515
 8837TIP3    H247927   2.219   1.788   1.826  0.6769 -1.6166 -0.4012
 8838TIP3   OH247928   2.555   5.019  13.374 -0.3471  0.3245 -0.1609
 8838TIP3    H147929   2.463   5.000  13.353  0.2767 -2.6593 -0.6090
 8838TIP3    H247930   2.557   5.026  13.469 -1.2112  1.6336 -0.2206
 8839TIP3   OH247931   6.100   5.386   2.736  0.2431 -0.4377  0.1517
 8839TIP3    H147932   6.038   5.427   2.676 -0.7015 -0.7684  0.8965
 8839TIP3    H247933   6.137   5.460   2.786  1.6344 -0.0589 -1.3286
 8840TIP3   OH247934   1.793   1.483  12.713  1.0989 -0.3166  0.3371
 8840TIP3    H147935   1.851   1.514  12.643  3.5504 -0.8362  1.9743
 8840TIP3    H247936   1.816   1.391  12.724 -1.2348 -0.9968  0.0349
 8841TIP3   OH247937   3.340   3.481   5.437 -0.2750  0.5120 -0.2092
 8841TIP3    H147938   3.337   3.388   5.461 -2.8598  0.1206 -1.5671
 8841TIP3    H247939   3.397   3.484   5.361 -2.6063 -0.6595 -2.1690
 8842TIP3   OH247940   4.866   4.304   1.176  0.7183  0.3490  0.0516
 8842TIP3    H147941   4.915   4.386   1.186  0.1198  0.7027  0.1361
 8842TIP3    H247942   4.934   4.238   1.161  1.4688  0.3417  2.8489
 8843TIP3   OH247943   3.040   6.609   0.764  0.2391  0.0591  0.0826
 8843TIP3    H147944   3.054   6.704   0.766  2.1137 -0.1798  0.0302
 8843TIP3    H247945   3.100   6.575   0.829 -1.5261 -1.0223  1.2247
 8844TIP3   OH247946   0.330   1.709   2.832  0.8971 -0.2380 -0.2079
 8844TIP3    H147947   0.376   1.758   2.764  0.6394  0.2587 -0.0270
 8844TIP3    H247948   0.394   1.645   2.863  0.6115 -1.3693 -1.8375
 8845TIP3   OH247949   3.749   2.515   5.046 -0.1370  0.0050  1.0633
 8845TIP3    H147950   3.808   2.589   5.052 -0.7211  0.4692  1.1463
 8845TIP3    H247951   3.683   2.530   5.115 -0.9185  0.0121  0.3313
 8846TIP3   OH247952   1.481   6.116  14.180 -0.0397  0.3532  0.0004
 8846TIP3    H147953   1.517   6.204  14.178  1.1319 -0.0875  0.5051
 8846TIP3    H247954   1.540   6.067  14.239 -0.3524 -0.8777 -0.6676
 8847TIP3   OH247955   2.495   2.982  16.796 -0.3655 -0.3715  0.1168
 8847TIP3    H147956   2.572   2.936  16.829 -0.4194  0.0178  0.8098
 8847TIP3    H247957   2.426   2.915  16.791 -0.5940 -0.2839  1.6173
 8848TIP3   OH247958   4.876   4.329   1.616  0.3616  0.0292  0.0439
 8848TIP3    H147959   4.964   4.307   1.588  0.2280  0.5112 -0.7783
 8848TIP3    H247960   4.883   4.419   1.650  0.3120 -0.1706  0.6014
 8849TIP3   OH247961   4.693   6.490  10.961  0.3980 -0.5587  0.0849
 8849TIP3    H147962   4.763   6.486  10.895  1.9895  0.1623  1.6473
 8849TIP3    H247963   4.738   6.478  11.045 -1.5250 -1.2032  1.1039
 8850TIP3   OH247964   3.748   0.545  16.738 -0.3647  0.4015  0.3235
 8850TIP3    H147965   3.750   0.639  16.756 -2.0379  1.0786 -2.3864
 8850TIP3    H247966   3.839   0.517  16.741  0.0764  1.8816  2.0590
 8851TIP3   OH247967   1.675   0.916   1.077 -0.3766  0.2468 -1.0596
 8851TIP3    H147968   1.699   1.001   1.041  0.6485  0.0629 -0.8302
 8851TIP3    H247969   1.756   0.881   1.114 -1.2581  0.1625  0.9065
 8852TIP3   OH247970   0.602   1.171   4.221  0.1289 -0.2883 -0.4980
 8852TIP3    H147971   0.569   1.148   4.308  0.1557 -0.3163 -0.4949
 8852TIP3    H247972   0.677   1.113   4.208  1.8598  1.5705  0.5938
 8853TIP3   OH247973   5.526   3.845   5.150 -0.0825  0.6023  0.4232
 8853TIP3    H147974   5.440   3.856   5.189 -0.1675 -0.0381  0.4266
 8853TIP3    H247975   5.583   3.822   5.223  0.0111  0.6239  0.3580
 8854TIP3   OH247976   1.347   2.632   5.857 -0.0494  0.1434 -0.4146
 8854TIP3    H147977   1.295   2.645   5.936 -0.8981 -0.3257 -0.8794
 8854TIP3    H247978   1.315   2.549   5.821  0.3383  0.3394 -1.2352
 8855TIP3   OH247979   6.324   3.518   4.568 -0.6063  1.0331  0.0425
 8855TIP3    H147980   6.275   3.599   4.576  0.4586  1.7507 -0.5043
 8855TIP3    H247981   6.340   3.508   4.474  0.6091  1.0324  0.2319
 8856TIP3   OH247982   4.724   0.989  13.328 -0.0185 -0.1378  0.1817
 8856TIP3    H147983   4.773   1.038  13.394 -1.2494  0.5065  0.6343
 8856TIP3    H247984   4.712   0.902  13.366  0.7881 -0.3178  0.0467
 8857TIP3   OH247985   3.872   0.924  13.388  0.1934  0.0434 -0.3618
 8857TIP3    H147986   3.807   0.890  13.326 -1.2977  1.6050  0.2861
 8857TIP3    H247987   3.951   0.937  13.335 -0.5119 -0.3075 -1.5389
 8858TIP3   OH247988   4.292   2.382  11.888  0.3707  0.4385 -0.6068
 8858TIP3    H147989   4.266   2.387  11.980  2.1322  2.1093 -0.1270
 8858TIP3    H247990   4.342   2.300  11.881 -1.1967 -0.5636 -0.5292
 8859TIP3   OH247991   5.881   3.895   1.994 -0.1969 -0.3545 -0.0280
 8859TIP3    H147992   5.929   3.975   1.971  0.7058 -0.5982  0.9019
 8859TIP3    H247993   5.912   3.829   1.932  0.2429 -0.3637  0.1972
 8860TIP3   OH247994   3.809   0.366  15.320 -0.5151 -0.8911 -0.1421
 8860TIP3    H147995   3.815   0.275  15.349  1.5235 -0.8346 -0.2257
 8860TIP3    H247996   3.888   0.379  15.267 -1.6463  0.4401 -1.5802
 8861TIP3   OH247997   3.781   4.732  14.521 -0.7955 -0.1668 -0.7037
 8861TIP3    H147998   3.829   4.709  14.600 -0.4702 -0.8765 -1.0983
 8861TIP3    H247999   3.711   4.790  14.551  0.5714  1.2670 -0.1708
 8862TIP3   OH248000   5.904   1.922  14.095  0.2404  0.2909  0.6085
 8862TIP3    H148001   5.927   1.975  14.019 -0.2380  0.3127  0.4779
 8862TIP3    H248002   5.858   1.982  14.153 -1.1933 -0.2124  0.0205
 8863TIP3   OH248003   5.362   4.542  11.877 -0.0433 -0.0243 -0.2915
 8863TIP3    H148004   5.442   4.495  11.901 -0.2780 -0.2536  0.0527
 8863TIP3    H248005   5.313   4.549  11.959 -0.3258  0.2166 -0.4776
 8864TIP3   OH248006   6.410   5.840  12.549 -0.0701  0.0507  0.4684
 8864TIP3    H148007   6.463   5.812  12.623  0.3506  1.9193  0.9205
 8864TIP3    H248008   6.382   5.758  12.507  2.5611 -1.0179  0.6230
 8865TIP3   OH248009   3.072   2.133   2.600 -0.1210  0.0466 -0.4924
 8865TIP3    H148010   3.030   2.069   2.543 -0.3428 -0.1363 -0.1281
 8865TIP3    H248011   3.022   2.213   2.588  0.2454  0.1974 -1.0597
 8866TIP3   OH248012   6.113   5.898   0.506 -0.0855  0.0340  0.4075
 8866TIP3    H148013   6.029   5.853   0.496 -1.6492  2.3652  1.7698
 8866TIP3    H248014   6.130   5.896   0.600  0.3373  1.2649  0.3811
 8867TIP3   OH248015   3.211   5.939  15.430  0.5558  0.2042 -0.1248
 8867TIP3    H148016   3.284   5.920  15.489  0.1837 -0.7781  0.0526
 8867TIP3    H248017   3.250   5.940  15.342  1.0028  1.0412  0.0779
 8868TIP3   OH248018   5.265   2.866   5.748 -0.5497  0.0868 -0.1391
 8868TIP3    H148019   5.223   2.786   5.780  1.6434 -0.0693  2.7284
 8868TIP3    H248020   5.299   2.909   5.826  1.3556  2.0609 -1.9048
 8869TIP3   OH248021   3.709   4.716   2.428  0.6646 -0.4094 -0.1948
 8869TIP3    H148022   3.757   4.681   2.503 -0.8220  1.9598  2.0452
 8869TIP3    H248023   3.718   4.811   2.436 -0.8275 -0.0380 -2.1533
 8870TIP3   OH248024   3.366   1.087  15.971  0.7401 -0.0720 -0.2608
 8870TIP3    H148025   3.322   1.019  16.021 -0.6539 -0.1714 -1.5601
 8870TIP3    H248026   3.396   1.043  15.891  2.0009  0.3175 -0.0286
 8871TIP3   OH248027   2.213   1.542   5.523  0.0022  0.1480 -0.0762
 8871TIP3    H148028   2.244   1.564   5.435  0.0267 -0.2607 -0.1734
 8871TIP3    H248029   2.175   1.455   5.513  0.0919  0.0616  0.3393
 8872TIP3   OH248030   0.452   1.738  13.991  0.1615  0.3490 -0.1492
 8872TIP3    H148031   0.509   1.800  13.946  1.0491 -0.0596  0.3749
 8872TIP3    H248032   0.403   1.695  13.921  0.5241  0.6869 -0.6178
 8873TIP3   OH248033   2.331   3.280  15.727  0.0435 -0.1793  0.3146
 8873TIP3    H148034   2.420   3.273  15.693  0.3082  0.9163  0.7468
 8873TIP3    H248035   2.295   3.359  15.687 -0.4553 -0.1671  0.7652
 8874TIP3   OH248036   2.588   1.539   0.291  0.1593 -0.0218  0.3785
 8874TIP3    H148037   2.625   1.625   0.267  0.9156 -0.6584 -0.8485
 8874TIP3    H248038   2.572   1.496   0.208 -1.8120 -0.4596  0.9330
 8875TIP3   OH248039   0.648   5.472  13.391 -0.6736 -0.4694 -0.0437
 8875TIP3    H148040   0.573   5.498  13.445  0.1565  2.3314 -0.0732
 8875TIP3    H248041   0.609   5.432  13.314 -1.9898 -1.8034  1.2477
 8876TIP3   OH248042   2.115   4.301  16.821 -0.8937 -0.0096  0.2297
 8876TIP3    H148043   2.058   4.337  16.753  0.8106 -0.1084 -1.3312
 8876TIP3    H248044   2.061   4.234  16.864 -2.0775  0.1448 -0.9245
 8877TIP3   OH248045   2.661   1.657  12.558  0.7823 -0.2278  0.2506
 8877TIP3    H148046   2.707   1.664  12.641  1.3938  1.1643 -0.1818
 8877TIP3    H248047   2.666   1.744  12.520 -1.1058 -0.3683 -0.4110
 8878TIP3   OH248048   2.923   3.893   0.957  0.5738 -1.1306  0.4739
 8878TIP3    H148049   2.842   3.872   0.912 -0.4075  0.2201  1.5314
 8878TIP3    H248050   2.967   3.809   0.969 -1.3045 -2.0639  1.0520
 8879TIP3   OH248051   2.334   6.281  12.348  0.2250 -0.2897 -0.1236
 8879TIP3    H148052   2.316   6.277  12.254 -0.9798  0.2389  0.0747
 8879TIP3    H248053   2.348   6.374  12.365 -0.7843 -0.2301  0.4287
 8880TIP3   OH248054   3.291   3.074  13.632  0.9627 -0.0550 -0.3027
 8880TIP3    H148055   3.267   3.003  13.574  1.1430  0.0808 -0.5437
 8880TIP3    H248056   3.240   3.149  13.601  1.4436  0.1509 -0.6113
 8881TIP3   OH248057   0.460   2.710  12.357  0.6181  0.3663 -0.4788
 8881TIP3    H148058   0.531   2.731  12.297  0.3719  1.9544 -0.2661
 8881TIP3    H248059   0.503   2.667  12.431  0.8612 -2.0847 -1.9486
 8882TIP3   OH248060   0.673   1.992   2.840 -0.4405 -0.2836  0.1846
 8882TIP3    H148061   0.753   1.942   2.824  0.7212  1.3463  0.6838
 8882TIP3    H248062   0.644   1.962   2.927 -0.8055 -1.3934 -0.2985
 8883TIP3   OH248063   3.941   1.425   6.261  0.0059  0.1283  0.0840
 8883TIP3    H148064   3.854   1.454   6.289 -0.1691 -0.1820 -0.1296
 8883TIP3    H248065   4.002   1.469   6.320 -0.2861  0.5071  0.1053
 8884TIP3   OH248066   1.726   2.927   2.996 -0.0275  0.2767 -0.0045
 8884TIP3    H148067   1.650   2.985   2.984 -1.8602 -1.9096  0.2584
 8884TIP3    H248068   1.700   2.869   3.067  1.4611 -1.2517 -0.6428
 8885TIP3   OH248069   5.277   6.727  17.321  0.5048 -0.3637  0.1380
 8885TIP3    H148070   5.257   6.819  17.337  0.3900 -0.0286 -1.6949
 8885TIP3    H248071   5.236   6.680  17.393 -2.2970  0.7593 -0.6165
 8886TIP3   OH248072   2.575   4.658  12.482 -0.5931 -0.2556 -0.1300
 8886TIP3    H148073   2.603   4.677  12.392  0.1946  0.8311  0.3145
 8886TIP3    H248074   2.488   4.619  12.473 -0.5877 -0.0155 -1.3543
 8887TIP3   OH248075   2.153   3.977  13.427  0.0530  0.1795  0.1657
 8887TIP3    H148076   2.089   4.046  13.446  0.1119 -0.0381  1.2274
 8887TIP3    H248077   2.105   3.915  13.371  0.3522  1.6129 -1.7438
 8888TIP3   OH248078   3.943   5.628   0.637 -0.4161  0.0898 -0.0770
 8888TIP3    H148079   4.008   5.655   0.573  0.7363 -0.1537  0.9561
 8888TIP3    H248080   3.860   5.659   0.601  0.4965  2.3710 -0.3764
 8889TIP3   OH248081   5.359   3.045  11.603  0.3453  0.3150  0.4376
 8889TIP3    H148082   5.408   3.056  11.523 -1.1611 -1.7790 -0.8881
 8889TIP3    H248083   5.380   2.956  11.633 -1.9848 -0.3915  0.1936
 8890TIP3   OH248084   5.646   5.563   0.139 -0.4922 -0.2206  0.2621
 8890TIP3    H148085   5.701   5.547   0.216  0.6136 -1.5648 -0.7603
 8890TIP3    H248086   5.704   5.547   0.064 -0.8017  3.3530 -0.9588
 8891TIP3   OH248087   0.635   4.602   5.614  0.2623  0.5044 -0.1538
 8891TIP3    H148088   0.610   4.662   5.543 -0.1445  1.6714  0.9433
 8891TIP3    H248089   0.552   4.582   5.658  0.8406  2.3395  1.9252
 8892TIP3   OH248090   2.211   6.739  15.780 -0.4758 -0.1036  0.4826
 8892TIP3    H148091   2.215   6.835  15.785 -2.7332  0.1822 -1.3224
 8892TIP3    H248092   2.223   6.720  15.687 -1.2207 -1.4778  0.6448
 8893TIP3   OH248093   3.128   5.758   3.332  0.1016 -0.6018  0.3063
 8893TIP3    H148094   3.138   5.694   3.403 -0.4974 -1.5746 -0.4683
 8893TIP3    H248095   3.192   5.731   3.266 -0.4609 -0.6864 -0.2168
 8894TIP3   OH248096   1.532   2.544   2.351  1.0234  0.6390 -0.3625
 8894TIP3    H148097   1.576   2.603   2.412  1.9531  0.1823 -0.5645
 8894TIP3    H248098   1.595   2.532   2.280  1.0213 -0.8972 -0.1318
 8895TIP3   OH248099   5.157   1.414   5.957  0.6035 -0.0388 -0.0133
 8895TIP3    H148100   5.235   1.422   6.011  0.2111  3.6792  0.2702
 8895TIP3    H248101   5.093   1.369   6.012  1.5766 -0.3608  0.8794
 8896TIP3   OH248102   5.414   0.108   3.995  0.0973 -0.0650  0.1176
 8896TIP3    H148103   5.459   0.189   4.016 -1.0859  0.3174  1.2520
 8896TIP3    H248104   5.347   0.099   4.062 -0.5180 -1.4123 -0.6374
 8897TIP3   OH248105   3.682   0.415  15.079 -0.4982 -0.3975  0.2057
 8897TIP3    H148106   3.698   0.396  15.172 -1.5218 -2.3142  0.0470
 8897TIP3    H248107   3.726   0.499  15.064  0.4775 -0.4838  2.1842
 8898TIP3   OH248108   3.088   5.999   2.346 -0.1301  0.3247  0.2485
 8898TIP3    H148109   3.014   5.973   2.291  0.7606 -0.7685 -0.4989
 8898TIP3    H248110   3.101   5.926   2.405 -1.5094  1.7768  2.4780
 8899TIP3   OH248111   1.359   0.489   5.885  0.2962  0.5399  0.6580
 8899TIP3    H148112   1.399   0.558   5.937 -3.2193  3.2699  0.1522
 8899TIP3    H248113   1.303   0.442   5.948  0.3383  0.1713  0.4187
 8900TIP3   OH248114   6.562   3.820   3.470 -0.1768  0.3196  0.8121
 8900TIP3    H148115   6.466   3.814   3.470 -0.1047 -1.1114  0.6465
 8900TIP3    H248116   6.592   3.729   3.462  1.1716  0.8773 -1.6159
 8901TIP3   OH248117   1.704   3.677  13.658 -0.1500  0.1435  0.3162
 8901TIP3    H148118   1.772   3.612  13.641  0.5662  0.3990  1.9726
 8901TIP3    H248119   1.745   3.738  13.719 -1.8069  0.4300  1.1906
 8902TIP3   OH248120   4.903   6.617  11.516 -0.4278 -0.0201  0.1345
 8902TIP3    H148121   4.937   6.581  11.434 -3.7608  0.0851 -1.4459
 8902TIP3    H248122   4.925   6.551  11.582  2.1634 -0.1874 -0.7764
 8903TIP3   OH248123   3.717   0.313  15.639 -0.6301 -0.2872  0.1299
 8903TIP3    H148124   3.755   0.349  15.558 -1.9115  0.0588 -0.3425
 8903TIP3    H248125   3.636   0.271  15.610 -0.5850 -1.0755  1.1028
 8904TIP3   OH248126   4.884   2.536  16.983  0.1842  0.0278  0.2481
 8904TIP3    H148127   4.859   2.445  16.967  0.3478  0.1261 -0.6088
 8904TIP3    H248128   4.978   2.539  16.966  0.1251  0.4181 -0.0326
 8905TIP3   OH248129   3.600   6.025   6.535  0.0128 -0.2645  0.3222
 8905TIP3    H148130   3.525   6.060   6.583 -0.3174 -1.7348  0.9370
 8905TIP3    H248131   3.608   6.081   6.458 -0.5049  1.0911  1.2230
 8906TIP3   OH248132   3.130   1.836  14.315  0.2286  0.1835 -0.7693
 8906TIP3    H148133   3.111   1.776  14.243  0.0948  0.1271 -0.6864
 8906TIP3    H248134   3.051   1.835  14.369  1.5577 -2.5396  1.3844
 8907TIP3   OH248135   3.221   2.429  13.830 -0.5170 -0.0156  0.1102
 8907TIP3    H148136   3.276   2.476  13.892  0.1177 -0.5789 -0.0187
 8907TIP3    H248137   3.133   2.465  13.844 -0.2162  0.5097  0.6882
 8908TIP3   OH248138   5.867   5.698  14.845  0.1005  0.4039  0.7970
 8908TIP3    H148139   5.876   5.608  14.814 -0.6340  0.6370 -0.1801
 8908TIP3    H248140   5.948   5.741  14.817 -0.8108  0.7802 -1.5838
 8909TIP3   OH248141   4.856   1.613   0.133  0.4272 -0.2662  0.0950
 8909TIP3    H148142   4.927   1.655   0.181  0.7943 -1.0954  0.3061
 8909TIP3    H248143   4.893   1.596   0.046 -0.2981  1.4018 -0.5739
 8910TIP3   OH248144   2.882   3.216  13.036  0.4819  0.0650 -0.1299
 8910TIP3    H148145   2.911   3.143  13.090 -1.5619  0.2007  1.2750
 8910TIP3    H248146   2.875   3.180  12.948  1.5015 -0.8349  0.1273
 8911TIP3   OH248147   2.762   4.502   1.227 -0.1643  0.1396 -0.0641
 8911TIP3    H148148   2.777   4.431   1.164 -0.7703  1.0043 -1.2065
 8911TIP3    H248149   2.849   4.528   1.255  0.0979 -0.5206 -0.2381
 8912TIP3   OH248150   6.218   0.514   2.016  0.3157 -0.0340 -0.0129
 8912TIP3    H148151   6.140   0.485   2.063 -0.1463  0.0587 -0.6982
 8912TIP3    H248152   6.184   0.569   1.945  1.1152  1.3000  0.6181
 8913TIP3   OH248153   2.825   4.025   2.723 -0.1527 -0.2156  0.5513
 8913TIP3    H148154   2.832   4.095   2.788  1.8152 -0.1297  0.3068
 8913TIP3    H248155   2.831   3.944   2.774  0.6976 -0.1587  0.5438
 8914TIP3   OH248156   3.156   4.210  11.676  0.3399 -0.1846 -0.0228
 8914TIP3    H148157   3.211   4.227  11.600  0.8167 -1.9855 -0.1468
 8914TIP3    H248158   3.078   4.167  11.640 -0.1214  0.3161  0.3658
 8915TIP3   OH248159   1.038   5.968  15.318  0.0270  0.2915  0.0074
 8915TIP3    H148160   1.086   5.899  15.273 -0.1857  0.1743 -0.0452
 8915TIP3    H248161   0.980   6.004  15.250  1.0031  1.3471 -0.2775
 8916TIP3   OH248162   1.353   0.783   2.683 -0.1262 -0.3257  0.1374
 8916TIP3    H148163   1.300   0.743   2.752  0.4188 -1.7507 -0.2321
 8916TIP3    H248164   1.290   0.802   2.613 -0.7174  1.3392  1.0677
 8917TIP3   OH248165   2.270   0.625  11.605  0.0801 -0.2072  0.8537
 8917TIP3    H148166   2.219   0.573  11.543  2.0645  0.2668 -1.3316
 8917TIP3    H248167   2.360   0.622  11.571  0.9954  1.3303  2.8981
 8918TIP3   OH248168   2.272   6.379   5.199 -0.1422 -0.4676  0.0964
 8918TIP3    H148169   2.189   6.333   5.213  0.2382 -0.7682  1.4909
 8918TIP3    H248170   2.255   6.468   5.231 -0.2250 -0.2128 -0.6170
 8919TIP3   OH248171   2.253   2.536   0.042  0.0367 -0.6451  0.8831
 8919TIP3    H148172   2.299   2.563  -0.037  0.6741 -0.6125  1.2620
 8919TIP3    H248173   2.252   2.615   0.097 -3.9777  0.6829 -0.6668
 8920TIP3   OH248174   4.851   4.251   3.540  0.0444  0.4415  0.3671
 8920TIP3    H148175   4.797   4.326   3.514  1.1023  0.5351 -1.7378
 8920TIP3    H248176   4.931   4.291   3.573  1.0043  0.3002 -1.6542
 8921TIP3   OH248177   4.979   1.332   4.507  0.2627 -0.2331  0.0840
 8921TIP3    H148178   5.040   1.315   4.579  0.2845  0.9080  0.3554
 8921TIP3    H248179   5.030   1.380   4.443  0.2848 -1.3959 -0.7968
 8922TIP3   OH248180   5.582   2.270   0.981  0.2572 -0.1616 -0.4562
 8922TIP3    H148181   5.550   2.194   0.932 -0.5179  0.2566 -0.6135
 8922TIP3    H248182   5.506   2.327   0.990  0.9561  0.8684 -0.8417
 8923TIP3   OH248183   0.178   3.920   5.012 -0.4322 -0.1124  0.6619
 8923TIP3    H148184   0.237   3.878   5.074 -0.8933  0.0738  1.2411
 8923TIP3    H248185   0.231   3.989   4.972 -0.1630 -0.1543  0.9398
 8924TIP3   OH248186   4.377   2.415   3.311  0.0798 -0.5184 -0.5936
 8924TIP3    H148187   4.335   2.432   3.227  0.9698  0.5613 -0.8437
 8924TIP3    H248188   4.369   2.497   3.359  2.8195  0.1447 -1.0783
 8925TIP3   OH248189   5.439   2.631   4.603  0.0931 -0.0485  0.0147
 8925TIP3    H148190   5.483   2.547   4.594 -0.2591 -0.1724 -0.5917
 8925TIP3    H248191   5.479   2.671   4.680 -0.5177 -1.2484  0.9966
 8926TIP3   OH248192   2.527   5.055  15.352 -0.2439 -0.2730  0.3187
 8926TIP3    H148193   2.579   5.004  15.413  0.7075  1.1623  0.7677
 8926TIP3    H248194   2.589   5.083  15.284 -0.9479 -0.5358 -0.4479
 8927TIP3   OH248195   4.947   5.469  11.979 -0.4618 -0.1684  0.3032
 8927TIP3    H148196   4.966   5.393  12.034  0.1880  0.4527  0.9748
 8927TIP3    H248197   4.861   5.498  12.009 -1.0180 -1.0182 -0.4215
 8928TIP3   OH248198   6.038   2.419   3.633  0.0312 -0.2507  0.1930
 8928TIP3    H148199   6.043   2.349   3.697  1.6416  1.3175  1.9105
 8928TIP3    H248200   6.121   2.466   3.641 -1.0037  1.9271 -0.7585
 8929TIP3   OH248201   6.324   5.883  16.007  0.3646  0.1842  0.2186
 8929TIP3    H148202   6.255   5.850  15.948  0.9374  0.8349 -0.8534
 8929TIP3    H248203   6.309   5.837  16.089  0.1478 -1.5390 -0.7280
 8930TIP3   OH248204   5.475   1.175   4.097 -0.1648  0.0571 -0.1426
 8930TIP3    H148205   5.542   1.242   4.108 -0.4944  0.9460 -2.8534
 8930TIP3    H248206   5.521   1.100   4.059 -0.6847  0.8721 -2.5621
 8931TIP3   OH248207   1.930   6.340  13.513  0.2338 -0.4257  1.1837
 8931TIP3    H148208   1.904   6.288  13.438 -0.4400 -1.5417  2.1604
 8931TIP3    H248209   2.010   6.298  13.545 -0.5953 -1.2290  2.2869
 8932TIP3   OH248210   2.358   2.594   2.001  0.2319 -0.0961 -0.2667
 8932TIP3    H148211   2.330   2.523   1.943  0.2712  0.1964 -0.6504
 8932TIP3    H248212   2.327   2.568   2.088  0.6350 -0.7968 -0.3269
 8933TIP3   OH248213   2.358   4.730  11.035 -0.2393  0.8100  0.6574
 8933TIP3    H148214   2.406   4.649  11.052  0.7609  1.6255  1.8285
 8933TIP3    H248215   2.270   4.700  11.012  0.4322 -0.6538 -0.1825
 8934TIP3   OH248216   0.857   1.964  15.762 -0.5054 -0.1120  0.4780
 8934TIP3    H148217   0.774   1.921  15.740  0.2816 -0.7340 -1.4777
 8934TIP3    H248218   0.912   1.893  15.795  0.6976 -0.7022 -2.4836
 8935TIP3   OH248219   0.088   5.115  14.564 -0.4101 -0.0194  0.6310
 8935TIP3    H148220   0.056   5.116  14.654  0.4766 -0.0569  0.9585
 8935TIP3    H248221   0.180   5.142  14.571 -0.6520  1.1818 -0.3933
 8936TIP3   OH248222   4.740   4.139   6.784  0.0364  0.2925  0.6254
 8936TIP3    H148223   4.730   4.234   6.796  2.3397  0.4727  1.7891
 8936TIP3    H248224   4.807   4.132   6.716  1.4248 -0.4119  2.0079
 8937TIP3   OH248225   6.324   4.922   4.722 -0.2466  0.3257 -0.3374
 8937TIP3    H148226   6.359   4.835   4.742  0.9021  0.6304 -0.9270
 8937TIP3    H248227   6.333   4.930   4.627 -2.0539  0.3934 -0.5408
 8938TIP3   OH248228   1.397   3.408   4.766  0.3596 -0.3771  0.0295
 8938TIP3    H148229   1.475   3.457   4.741  0.7901 -0.1656  1.6313
 8938TIP3    H248230   1.331   3.432   4.701  1.3956  0.0543 -0.8941
 8939TIP3   OH248231   3.095   4.214  13.250 -0.3441 -0.2151 -0.0367
 8939TIP3    H148232   3.168   4.275  13.258 -0.1753 -0.5431  1.1591
 8939TIP3    H248233   3.019   4.270  13.233 -0.0746  0.2721  0.3300
 8940TIP3   OH248234   6.324   1.981   2.665 -0.4783 -0.1143  0.0616
 8940TIP3    H148235   6.403   1.976   2.719 -0.4291 -1.5338 -0.0945
 8940TIP3    H248236   6.262   2.030   2.719  0.0315 -0.2662  0.8132
 8941TIP3   OH248237   3.966   5.822  15.855  0.0287  0.1399  0.1298
 8941TIP3    H148238   3.989   5.888  15.790 -0.3006  0.4851  0.3588
 8941TIP3    H248239   4.040   5.761  15.854  0.6417  0.8521  0.3529
 8942TIP3   OH248240   3.362   5.217  13.074  0.1680 -0.0003 -0.1217
 8942TIP3    H148241   3.335   5.124  13.074  1.7611 -0.4885  0.4699
 8942TIP3    H248242   3.450   5.216  13.110 -0.1386  1.8692  0.7908
 8943TIP3   OH248243   2.927   0.135   5.162 -0.0943  0.0880 -0.7102
 8943TIP3    H148244   2.852   0.076   5.172 -1.9988  2.2440 -1.5696
 8943TIP3    H248245   3.001   0.076   5.146 -1.3709 -2.1750  1.1136
 8944TIP3   OH248246   3.900   5.668   1.436 -0.0733 -0.0699 -0.1579
 8944TIP3    H148247   3.810   5.659   1.404  0.1819  0.3890 -1.0488
 8944TIP3    H248248   3.898   5.746   1.491 -0.1037  0.2825 -0.6515
 8945TIP3   OH248249   5.637   5.810  12.836 -0.0201  0.2456 -0.5217
 8945TIP3    H148250   5.597   5.847  12.915 -1.1154 -2.1029  0.1192
 8945TIP3    H248251   5.707   5.754  12.868 -2.0368 -2.7253 -0.8549
 8946TIP3   OH248252   1.309   2.633   4.606 -0.6351 -0.6403 -0.4238
 8946TIP3    H148253   1.305   2.707   4.666 -0.2392 -1.2339  0.3528
 8946TIP3    H248254   1.284   2.557   4.659  0.6682 -1.3230 -0.7320
 8947TIP3   OH248255   6.734   0.581  14.666 -0.1193 -0.2480  0.5439
 8947TIP3    H148256   6.779   0.662  14.690 -0.1992 -0.7608  2.7099
 8947TIP3    H248257   6.685   0.602  14.587 -0.0846  1.7928  1.0194
 8948TIP3   OH248258   4.538   1.225  11.955  0.2726 -0.2908 -0.4972
 8948TIP3    H148259   4.485   1.152  11.987 -0.5325  0.9957  1.3037
 8948TIP3    H248260   4.619   1.220  12.007 -0.4373  0.9623  0.7983
 8949TIP3   OH248261   3.912   2.361   3.901  0.9195  0.1494  0.2365
 8949TIP3    H148262   3.948   2.380   3.988 -0.6847  0.4631  0.8586
 8949TIP3    H248263   3.861   2.439   3.878 -3.4220 -1.9708  1.5901
 8950TIP3   OH248264   2.583   3.564   1.984  0.2283 -0.4382  0.3731
 8950TIP3    H148265   2.596   3.515   2.065 -1.3311 -0.5181  0.5989
 8950TIP3    H248266   2.667   3.556   1.938  0.7537 -1.3781  1.4313
 8951TIP3   OH248267   1.758   3.816   3.828  0.4605 -0.1879 -0.3621
 8951TIP3    H148268   1.753   3.910   3.809  0.1445 -0.2151 -0.4165
 8951TIP3    H248269   1.667   3.786   3.824  0.5323 -0.4480 -0.1014
 8952TIP3   OH248270   4.230   4.109  11.146  0.3054 -0.3232  0.6532
 8952TIP3    H148271   4.311   4.142  11.107  0.5017  0.3752  1.6133
 8952TIP3    H248272   4.174   4.186  11.153 -0.7769 -0.9371 -0.7302
 8953TIP3   OH248273   6.588   2.021  11.676 -0.0007 -0.5980 -0.0533
 8953TIP3    H148274   6.563   2.013  11.768 -1.8622 -1.3151 -0.5753
 8953TIP3    H248275   6.516   2.070  11.636  1.9604  1.9679 -0.7102
 8954TIP3   OH248276   0.679   6.741  13.909 -0.6461 -0.2727 -0.0532
 8954TIP3    H148277   0.652   6.652  13.883 -1.1761  0.0468 -0.6303
 8954TIP3    H248278   0.602   6.794  13.894 -0.6578  0.1148  1.2913
 8955TIP3   OH248279   2.588   5.220  12.547 -0.2185 -0.1882 -0.4071
 8955TIP3    H148280   2.645   5.208  12.622  0.2227  1.3398 -0.4689
 8955TIP3    H248281   2.633   5.174  12.475 -0.2996 -1.0519  0.0794
 8956TIP3   OH248282   4.235   1.670   1.390 -0.3214 -0.0957 -0.1000
 8956TIP3    H148283   4.201   1.594   1.343  0.9375 -2.3341  2.3222
 8956TIP3    H248284   4.329   1.654   1.397 -0.1841  1.1130  1.4308
 8957TIP3   OH248285   4.734   3.639  11.603  0.0679 -0.2259 -0.1321
 8957TIP3    H148286   4.707   3.727  11.628  1.8724  0.3595 -0.0898
 8957TIP3    H248287   4.751   3.595  11.686 -0.2266 -0.4194 -0.1723
 8958TIP3   OH248288   1.193   5.176   0.851 -0.4030 -0.7657  0.3407
 8958TIP3    H148289   1.148   5.261   0.849 -0.9900 -1.0736  0.2568
 8958TIP3    H248290   1.248   5.181   0.929  0.4384  0.1183 -0.2703
 8959TIP3   OH248291   2.418   2.669   7.057  0.0294  0.3151 -0.2467
 8959TIP3    H148292   2.470   2.598   7.021  1.0475  0.8383  0.1364
 8959TIP3    H248293   2.463   2.749   7.029 -1.2958  0.8427 -0.9812
 8960TIP3   OH248294   0.853   5.096   5.311 -0.0316 -0.2391  0.0623
 8960TIP3    H148295   0.903   5.040   5.251 -0.8457  0.2079 -1.0854
 8960TIP3    H248296   0.901   5.179   5.312 -0.1418 -0.1698 -0.1740
 8961TIP3   OH248297   0.720   5.350  12.571 -0.2378  0.5596 -0.3279
 8961TIP3    H148298   0.675   5.424  12.532  0.8654  1.7499  0.5583
 8961TIP3    H248299   0.664   5.322  12.643  0.1133  1.6154  0.3709
 8962TIP3   OH248300   4.654   5.710  14.439  0.1918 -0.0812 -0.6918
 8962TIP3    H148301   4.584   5.772  14.420  0.4451 -0.0293 -1.4985
 8962TIP3    H248302   4.690   5.739  14.523 -0.9662 -0.3143 -0.0928
 8963TIP3   OH248303   5.921   6.657   4.355  0.1900 -0.1180  0.3588
 8963TIP3    H148304   5.971   6.585   4.394  0.8912  0.0771 -0.1661
 8963TIP3    H248305   5.831   6.623   4.348  0.4506 -0.8253  0.3905
 8964TIP3   OH248306   0.021   3.811   4.083 -0.0027 -0.6681 -0.0821
 8964TIP3    H148307   0.048   3.748   4.016  1.9378  0.5715 -0.5514
 8964TIP3    H248308  -0.037   3.871   4.036 -0.7079 -1.2590  0.0145
 8965TIP3   OH248309   2.597   2.298   4.104 -0.2596  0.3741  0.5367
 8965TIP3    H148310   2.652   2.227   4.070  0.6485  0.1865  2.2600
 8965TIP3    H248311   2.660   2.365   4.131 -1.1006  1.9000 -1.0634
 8966TIP3   OH248312   4.416   4.351  11.283 -0.0758 -0.2474 -0.1228
 8966TIP3    H148313   4.453   4.421  11.337 -0.8190 -0.5514  0.8103
 8966TIP3    H248314   4.361   4.397  11.219 -0.5686  0.0262  0.4908
 8967TIP3   OH248315   5.742   1.983   5.061 -0.2839  0.3790 -0.0166
 8967TIP3    H148316   5.777   1.893   5.061  0.2015  0.5600  1.1587
 8967TIP3    H248317   5.699   1.991   4.976 -0.6221 -1.0823 -0.0078
 8968TIP3   OH248318   3.779   6.009  17.278 -0.4181 -0.5371 -0.0982
 8968TIP3    H148319   3.850   6.068  17.256  0.9560 -1.4618  1.6311
 8968TIP3    H248320   3.719   6.062  17.331  0.2595 -0.4032  0.5429
 8969TIP3   OH248321   3.181   1.379  14.320  0.3748 -0.0019  0.1902
 8969TIP3    H148322   3.220   1.338  14.397  2.0767  0.7691 -0.2088
 8969TIP3    H248323   3.188   1.312  14.251 -1.0680 -0.6592  0.6561
 8970TIP3   OH248324   2.171   1.208  11.455  0.3007 -0.0219 -0.2103
 8970TIP3    H148325   2.206   1.286  11.498 -1.8708 -0.0380  1.8031
 8970TIP3    H248326   2.127   1.241  11.377  1.5298  0.4106 -0.7466
 8971TIP3   OH248327   0.306   0.774  16.855  0.2489  0.0508  0.5621
 8971TIP3    H148328   0.285   0.710  16.923  1.8452  0.1676  1.2002
 8971TIP3    H248329   0.359   0.726  16.792 -0.2590  0.2389 -0.0156
 8972TIP3   OH248330   4.324   4.136  17.079 -0.3221 -0.6465 -0.2730
 8972TIP3    H148331   4.299   4.228  17.067  0.2217 -0.4570  0.0468
 8972TIP3    H248332   4.240   4.090  17.091 -0.9208 -0.6984 -3.5704
 8973TIP3   OH248333   2.833   6.439   5.438 -0.3578  0.1129  0.3901
 8973TIP3    H148334   2.790   6.490   5.506  0.6596 -0.7154  1.7003
 8973TIP3    H248335   2.913   6.406   5.479  0.6662  0.1888 -1.4330
 8974TIP3   OH248336   6.076   1.833  14.616  0.0359  0.0664  0.3108
 8974TIP3    H148337   6.053   1.912  14.664  0.3999 -0.3931  1.2747
 8974TIP3    H248338   5.993   1.796  14.587 -0.1443  0.6902  0.0360
 8975TIP3   OH248339   3.517   5.813   0.771  0.1951  0.3176 -0.5944
 8975TIP3    H148340   3.498   5.798   0.864 -1.6342 -0.6586 -1.0759
 8975TIP3    H248341   3.486   5.901   0.754  1.3054  0.8227 -0.1230
 8976TIP3   OH248342   5.371   4.242   4.415  0.3823 -0.3869  0.0488
 8976TIP3    H148343   5.372   4.255   4.510  0.1042  2.0937 -0.2066
 8976TIP3    H248344   5.278   4.236   4.393  0.3725  0.3468 -0.1621
 8977TIP3   OH248345   6.236   5.197   4.816  0.1048  0.0222  0.0253
 8977TIP3    H148346   6.251   5.105   4.794 -3.7063 -0.2291 -2.3519
 8977TIP3    H248347   6.213   5.195   4.909 -0.3197 -1.5371 -0.0770
 8978TIP3   OH248348   6.362   4.438  11.264 -0.1695 -0.2061 -0.2485
 8978TIP3    H148349   6.450   4.402  11.280 -0.3043 -0.5312 -0.2390
 8978TIP3    H248350   6.362   4.521  11.312  0.0076 -0.3762  0.0523
 8979TIP3   OH248351   3.534   0.691   4.569 -0.2342  0.2505  0.1065
 8979TIP3    H148352   3.467   0.731   4.624  0.2385  1.5231 -0.2229
 8979TIP3    H248353   3.486   0.663   4.491 -1.2261 -2.9909  1.6884
 8980TIP3   OH248354   1.992   3.327   4.533  0.0860 -0.5369  0.3431
 8980TIP3    H148355   2.023   3.241   4.561 -0.7332 -0.8884  0.2118
 8980TIP3    H248356   1.982   3.319   4.438  1.9646  0.3562  0.0349
 8981TIP3   OH248357   6.450   4.199   1.384 -0.2297  0.2920 -0.5534
 8981TIP3    H148358   6.538   4.224   1.356 -0.1583 -0.3549 -0.9172
 8981TIP3    H248359   6.455   4.105   1.402 -0.6007  0.4421  0.4057
 8982TIP3   OH248360   5.374   5.007   2.696  0.0067  0.3103 -0.1639
 8982TIP3    H148361   5.310   5.058   2.746 -1.1796 -0.7755 -0.5223
 8982TIP3    H248362   5.365   5.037   2.606  0.0979  0.2363 -0.1985
 8983TIP3   OH248363   6.696   5.050   3.425 -0.2748  0.3126 -0.6003
 8983TIP3    H148364   6.677   5.099   3.506 -1.2141  1.1820 -1.3240
 8983TIP3    H248365   6.792   5.050   3.420 -0.2071  0.5450  0.3321
 8984TIP3   OH248366   3.549   4.461  13.944 -0.5927  0.3352  0.1208
 8984TIP3    H148367   3.513   4.375  13.963 -0.9504  0.2639 -0.8468
 8984TIP3    H248368   3.473   4.516  13.925 -0.2337  0.0147 -2.6080
 8985TIP3   OH248369   4.593   4.051  14.082  0.1843 -0.0124  0.2277
 8985TIP3    H148370   4.556   3.973  14.040  2.4821 -0.8585 -0.3670
 8985TIP3    H248371   4.517   4.097  14.119 -1.6337 -0.7750 -2.2833
 8986TIP3   OH248372   1.537   2.648   4.461 -1.2159 -0.4148 -0.4189
 8986TIP3    H148373   1.538   2.737   4.427  1.2054 -0.0854  0.3619
 8986TIP3    H248374   1.466   2.647   4.525  1.1504  2.2424  2.5806
 8987TIP3   OH248375   3.978   2.737  14.350  0.5560  0.0204 -0.3978
 8987TIP3    H148376   3.992   2.658  14.297 -0.4858 -0.1473 -0.4455
 8987TIP3    H248377   4.050   2.795  14.326  1.4498 -0.9803 -0.2314
 8988TIP3   OH248378   5.094   4.370  11.394 -0.1172  0.4245  0.0260
 8988TIP3    H148379   5.187   4.349  11.403 -0.4388 -1.1248  0.0242
 8988TIP3    H248380   5.082   4.448  11.448  0.9323 -0.1185  1.0889
 8989TIP3   OH248381   2.590   2.971  17.090  0.9798  0.3564  0.0006
 8989TIP3    H148382   2.505   2.928  17.105  0.7445 -0.4040 -2.9837
 8989TIP3    H248383   2.635   2.914  17.029  2.0542  2.6763 -1.5062
 8990TIP3   OH248384   3.732   4.462   4.863 -0.5837 -0.0442  0.3720
 8990TIP3    H148385   3.742   4.470   4.957  0.3314 -0.3007  0.3066
 8990TIP3    H248386   3.723   4.367   4.848  0.2802 -0.1002  0.1266
 8991TIP3   OH248387   4.323   5.985  15.705 -0.3774 -0.3609 -0.3520
 8991TIP3    H148388   4.346   6.037  15.782 -0.1938 -2.1957  0.8908
 8991TIP3    H248389   4.229   5.968  15.715  0.1656 -3.0173  1.1021
 8992TIP3   OH248390   3.003   1.256  12.482 -0.3468 -0.1937  0.1095
 8992TIP3    H148391   3.015   1.252  12.577  0.2503  0.1234  0.0533
 8992TIP3    H248392   2.910   1.238  12.468 -0.3367 -0.7315  0.7171
 8993TIP3   OH248393   1.563   3.216  14.470  0.2257 -0.3673 -0.0540
 8993TIP3    H148394   1.588   3.259  14.388 -1.0318  0.3711 -0.0763
 8993TIP3    H248395   1.472   3.242  14.484  0.5405 -0.1207  1.8083
 8994TIP3   OH248396   3.583   4.442   3.771 -0.3853 -0.6649  0.5462
 8994TIP3    H148397   3.678   4.454   3.776  0.0473 -3.4330  0.2607
 8994TIP3    H248398   3.549   4.488   3.849  1.0746  0.8392  0.3606
 8995TIP3   OH248399   3.467   0.113   4.169  0.2674 -0.5822  0.4294
 8995TIP3    H148400   3.395   0.109   4.232 -1.7303 -0.8248 -1.7446
 8995TIP3    H248401   3.502   0.202   4.179 -1.7428  0.2966  0.1043
 8996TIP3   OH248402   2.402   6.572   2.613 -0.4745 -0.1572  0.2284
 8996TIP3    H148403   2.351   6.608   2.686 -0.9890 -0.6376  0.1119
 8996TIP3    H248404   2.460   6.508   2.654  1.1641  1.4767  0.5805
 8997TIP3   OH248405   4.336   4.164   4.831  0.1193 -0.4379 -0.0652
 8997TIP3    H148406   4.426   4.134   4.826  0.5975  0.2163  2.9778
 8997TIP3    H248407   4.285   4.085   4.847  0.1048 -0.7792 -1.5877
 8998TIP3   OH248408   5.174   2.592  16.895 -0.6296  0.2592  0.5687
 8998TIP3    H148409   5.218   2.676  16.901 -0.7626  0.6426 -2.3859
 8998TIP3    H248410   5.245   2.528  16.887 -0.5343  0.4734 -0.4284
 8999TIP3   OH248411   2.280   3.630  11.965  0.4778  0.2153  0.2888
 8999TIP3    H148412   2.275   3.598  11.875 -1.5912  1.1485  0.0064
 8999TIP3    H248413   2.350   3.579  12.005 -0.3033 -2.1068 -1.1158
 9000TIP3   OH248414   0.956   3.057   2.742  0.5063  0.0860 -0.3573
 9000TIP3    H148415   1.043   3.049   2.782  0.1129 -0.5835  0.4091
 9000TIP3    H248416   0.932   2.967   2.720 -0.7165  0.0269  1.0593
 9001TIP3   OH248417   5.232   6.157   3.603 -0.2733  0.3918 -0.2981
 9001TIP3    H148418   5.289   6.166   3.526  1.3267  1.6026  0.9783
 9001TIP3    H248419   5.221   6.062   3.613  0.4257  0.1798 -1.3420
 9002TIP3   OH248420   0.948   3.682  11.579  0.1903 -0.3247 -0.4097
 9002TIP3    H148421   0.914   3.768  11.604  0.3721  0.1225 -1.6141
 9002TIP3    H248422   0.874   3.639  11.535  0.3700 -0.4071 -0.6348
 9003TIP3   OH248423   5.070   6.213   3.202 -1.0129  0.2029  0.1309
 9003TIP3    H148424   5.053   6.123   3.229  0.4427  0.2828  1.5078
 9003TIP3    H248425   5.147   6.239   3.254 -2.3672  2.7866  1.0131
 9004TIP3   OH248426   0.128   4.792   5.640  0.4242 -0.0647 -0.4366
 9004TIP3    H148427   0.092   4.828   5.721  1.4748 -1.9701  0.9540
 9004TIP3    H248428   0.201   4.737   5.668 -0.0144 -1.8892 -2.5788
 9005TIP3   OH248429   2.944   4.415  14.955 -0.4733 -0.5543 -0.3706
 9005TIP3    H148430   3.012   4.379  14.898 -0.8394  0.5465 -1.5588
 9005TIP3    H248431   2.868   4.358  14.940 -0.5011 -0.4030 -0.8317
 9006TIP3   OH248432   3.489   1.243   1.260 -0.1734 -0.5662  0.1992
 9006TIP3    H148433   3.417   1.181   1.269 -0.7831  0.2450  1.2402
 9006TIP3    H248434   3.567   1.188   1.251 -0.7631 -1.4714  0.4785
 9007TIP3   OH248435   2.920   5.123  16.691  0.4662  0.3280  0.0652
 9007TIP3    H148436   2.850   5.188  16.696  0.4845  0.4029 -0.5458
 9007TIP3    H248437   2.874   5.040  16.676  0.4318  0.1655  1.0186
 9008TIP3   OH248438   0.891   4.236   4.134  0.3599 -0.0311  0.2555
 9008TIP3    H148439   0.919   4.254   4.044  0.4392 -0.5271  0.1762
 9008TIP3    H248440   0.799   4.264   4.136  0.2613 -0.3109 -0.0762
 9009TIP3   OH248441   4.276   6.015  14.188  0.3750 -0.3246  0.3326
 9009TIP3    H148442   4.351   6.070  14.208 -0.0762  0.0107  1.1587
 9009TIP3    H248443   4.281   5.943  14.252  0.9809 -1.2823 -0.7548
 9010TIP3   OH248444   4.909   2.267  13.692  0.2766  0.0509  0.0670
 9010TIP3    H148445   4.988   2.321  13.697 -0.0895  0.5515  0.6916
 9010TIP3    H248446   4.940   2.179  13.671  0.8881  0.4931 -0.9135
 9011TIP3   OH248447   2.096   6.179   1.268  0.0288 -0.1634  0.2129
 9011TIP3    H148448   2.072   6.138   1.185 -1.3243 -0.1551  0.5676
 9011TIP3    H248449   2.143   6.110   1.316 -1.2269 -0.9572  0.3504
 9012TIP3   OH248450   5.916   3.054  12.074  0.2325 -0.4158  0.2015
 9012TIP3    H148451   5.824   3.030  12.070  0.1434 -0.2567  1.2209
 9012TIP3    H248452   5.962   2.971  12.088 -0.0780 -0.1251  3.7343
 9013TIP3   OH248453   0.891   0.250   3.245  0.4021 -0.0591 -0.6739
 9013TIP3    H148454   0.922   0.211   3.327  2.8730 -0.0976 -1.5317
 9013TIP3    H248455   0.914   0.342   3.253 -0.3803  0.1638 -0.8948
 9014TIP3   OH248456   2.638   1.756   5.707  0.2021  0.0411 -0.5705
 9014TIP3    H148457   2.725   1.722   5.688  0.9085  1.3665  0.1394
 9014TIP3    H248458   2.623   1.821   5.638 -0.6970 -0.9352 -1.3202
 9015TIP3   OH248459   6.295   5.652   3.943  0.5686 -0.2568 -0.4536
 9015TIP3    H148460   6.237   5.634   3.869 -0.1377  1.2806 -0.3064
 9015TIP3    H248461   6.272   5.740   3.972  2.9530  0.4111 -0.3510
 9016TIP3   OH248462   2.600   5.661   2.860 -0.4096 -0.1302 -0.4160
 9016TIP3    H148463   2.650   5.580   2.867 -1.5086 -0.7924  0.0156
 9016TIP3    H248464   2.530   5.652   2.924 -0.4329  1.2602 -0.2007
 9017TIP3   OH248465   0.948   2.773  13.410 -0.5583  0.1652 -0.0369
 9017TIP3    H148466   1.033   2.780  13.454  0.6528 -0.3046 -2.1767
 9017TIP3    H248467   0.888   2.742  13.478  1.4761 -1.6643  1.0290
 9018TIP3   OH248468   2.731   0.707   1.649  0.0832 -0.0915 -0.2936
 9018TIP3    H148469   2.716   0.776   1.713 -2.0364 -1.4336  0.7466
 9018TIP3    H248470   2.739   0.627   1.701  1.3544 -0.8367 -1.5490
 9019TIP3   OH248471   4.842   2.321   3.861  0.3980 -0.4172 -0.1731
 9019TIP3    H148472   4.763   2.316   3.915 -0.1198  0.4662 -0.8339
 9019TIP3    H248473   4.840   2.241   3.808 -1.0596  0.4583 -1.5203
 9020TIP3   OH248474   6.477   3.981  10.522  0.5593 -0.4969  0.2227
 9020TIP3    H148475   6.549   3.927  10.555 -0.2754 -2.4816 -1.0714
 9020TIP3    H248476   6.440   3.931  10.450 -0.8712  1.4089 -0.4434
 9021TIP3   OH248477   0.374   0.639  14.049 -0.0663  0.0662 -0.2837
 9021TIP3    H148478   0.287   0.603  14.028 -0.6775 -0.4441  2.7110
 9021TIP3    H248479   0.362   0.734  14.043 -0.5229 -0.0192 -0.9143
 9022TIP3   OH248480   3.139   2.293  12.184 -0.3364 -0.1882  0.0857
 9022TIP3    H148481   3.187   2.374  12.169  1.0055 -0.7624  1.0394
 9022TIP3    H248482   3.077   2.314  12.255 -2.0662  0.7429 -1.6148
 9023TIP3   OH248483   1.231   5.773  12.322 -0.0081 -0.3882  0.0909
 9023TIP3    H148484   1.281   5.778  12.403 -0.5537  0.3023  0.4000
 9023TIP3    H248485   1.151   5.726  12.346 -0.0509 -0.4257 -0.1186
 9024TIP3   OH248486   2.379   1.117  14.682  0.1250  0.1106 -0.0235
 9024TIP3    H148487   2.286   1.130  14.705  0.3040  1.4713  0.0293
 9024TIP3    H248488   2.381   1.032  14.639 -1.5353  0.9929 -2.0535
 9025TIP3   OH248489   1.954   5.592   3.613 -0.7244 -0.0146  0.0070
 9025TIP3    H148490   1.906   5.545   3.544  0.6087 -0.1979 -0.8309
 9025TIP3    H248491   1.944   5.537   3.690 -1.8316 -0.0569 -0.1531
 9026TIP3   OH248492   4.652   4.175  12.490  0.5765 -0.2189 -0.3510
 9026TIP3    H148493   4.573   4.136  12.529  0.8686 -0.8955 -0.4275
 9026TIP3    H248494   4.619   4.252  12.442  0.0742 -0.0204  0.2973
 9027TIP3   OH248495   5.004   5.895  12.574  0.2111  0.2884 -0.1110
 9027TIP3    H148496   4.930   5.844  12.605  0.6299 -0.9310 -1.0545
 9027TIP3    H248497   5.037   5.940  12.653 -1.2702  0.5669  0.3831
 9028TIP3   OH248498   4.450   2.037  10.840 -0.4893 -0.1204  0.0745
 9028TIP3    H148499   4.374   2.091  10.862  1.9863  4.0636 -0.7120
 9028TIP3    H248500   4.478   2.069  10.754  2.7266 -0.7629  0.7695
 9029TIP3   OH248501   3.040   2.131  16.846  0.3115  0.1955  0.2425
 9029TIP3    H148502   2.954   2.121  16.806 -0.1996  0.5055  1.2333
 9029TIP3    H248503   3.032   2.087  16.931  1.6509 -1.2774 -0.3418
 9030TIP3   OH248504   3.569   3.515  15.462 -0.4591 -0.8134  0.0089
 9030TIP3    H148505   3.596   3.458  15.390  1.0090 -1.7971  1.2841
 9030TIP3    H248506   3.606   3.601  15.439  0.9064 -1.3556  0.0452
 9031TIP3   OH248507   6.557   5.664  11.946  0.1430  0.1374  0.0149
 9031TIP3    H148508   6.563   5.620  12.031 -1.0714  1.8773  1.0736
 9031TIP3    H248509   6.631   5.726  11.947  0.9075 -0.7357 -0.7900
 9032TIP3   OH248510   6.052   3.641   1.413  0.1139 -0.4562  0.5588
 9032TIP3    H148511   5.981   3.704   1.401  0.6316  0.3009  1.3104
 9032TIP3    H248512   6.038   3.605   1.501  0.9331  0.0738  0.9190
 9033TIP3   OH248513   1.863   2.483  13.394  0.4893  0.1103  0.4185
 9033TIP3    H148514   1.897   2.554  13.340  1.2096 -0.4993  0.0523
 9033TIP3    H248515   1.777   2.462  13.356  1.3259 -0.8494 -1.0151
 9034TIP3   OH248516   6.258   4.641   0.079 -0.0303 -0.6600 -0.3009
 9034TIP3    H148517   6.204   4.600   0.147  1.2423 -0.1097  1.1254
 9034TIP3    H248518   6.322   4.573   0.055  0.4875 -0.3688  0.2127
 9035TIP3   OH248519   4.562   5.738  11.678 -0.2424 -0.0893 -0.5790
 9035TIP3    H148520   4.467   5.723  11.678 -0.3970  0.8100 -0.3090
 9035TIP3    H248521   4.576   5.799  11.605  0.1463 -0.2996 -0.6825
 9036TIP3   OH248522   3.605   2.541   2.369  0.4182  0.2463 -0.5646
 9036TIP3    H148523   3.598   2.454   2.409  1.9373  0.4279  0.1955
 9036TIP3    H248524   3.586   2.527   2.277 -1.4631 -0.5019 -0.1011
 9037TIP3   OH248525   0.082   2.160  11.825  0.2332  0.2850 -0.3316
 9037TIP3    H148526   0.037   2.243  11.807 -0.9246 -0.1370  0.4696
 9037TIP3    H248527   0.030   2.094  11.780  0.9117 -0.0610 -0.6203
 9038TIP3   OH248528   5.428   6.744  11.115  0.2924  0.4266 -0.2294
 9038TIP3    H148529   5.333   6.737  11.117  0.3875 -1.1563  0.3346
 9038TIP3    H248530   5.448   6.773  11.027 -0.7417  1.5665 -0.1140
 9039TIP3   OH248531   3.227   6.517  13.490 -0.2935  0.0535 -0.1575
 9039TIP3    H148532   3.239   6.467  13.409  0.1166 -1.3519  0.7599
 9039TIP3    H248533   3.293   6.483  13.550 -0.3560  1.3343  0.6725
 9040TIP3   OH248534   5.057   3.671   3.690  0.4654  0.0210  0.0871
 9040TIP3    H148535   5.081   3.732   3.760 -1.8348  2.5628 -1.1289
 9040TIP3    H248536   4.994   3.720   3.637  0.1164 -2.7303 -2.2643
 9041TIP3   OH248537   5.641   0.853  13.857  0.4913  0.2461 -0.2716
 9041TIP3    H148538   5.573   0.822  13.797  0.5791 -0.9108  0.2028
 9041TIP3    H248539   5.622   0.808  13.940  1.3594  0.5403  0.0957
 9042TIP3   OH248540   1.404   5.950   3.079 -0.1837  0.2621 -0.2145
 9042TIP3    H148541   1.485   5.983   3.040  1.3849  0.9986  3.3001
 9042TIP3    H248542   1.372   5.885   3.016  3.2272 -0.2044 -1.6937
 9043TIP3   OH248543   6.461   3.164  11.104 -0.0963  0.0973 -0.1062
 9043TIP3    H148544   6.438   3.255  11.121  2.5377  1.0870 -1.2362
 9043TIP3    H248545   6.406   3.138  11.031 -1.9022  0.2494  1.1465
 9044TIP3   OH248546   4.443   3.214   6.781  0.4103  0.1086 -0.1575
 9044TIP3    H148547   4.397   3.247   6.859 -1.0181 -1.5389 -0.2373
 9044TIP3    H248548   4.534   3.240   6.794  0.1733  0.0478  1.9672
 9045TIP3   OH248549   0.746   6.593   5.431 -0.8009 -0.0362  0.6920
 9045TIP3    H148550   0.822   6.559   5.479 -0.7489 -0.4656  0.3086
 9045TIP3    H248551   0.671   6.557   5.477 -0.7837  0.5002  1.1562
 9046TIP3   OH248552   0.168   5.459   0.438  0.1002 -0.2350  0.1674
 9046TIP3    H148553   0.201   5.540   0.475 -0.8621 -0.0516  0.6514
 9046TIP3    H248554   0.074   5.473   0.428  0.0503 -0.9779 -0.5566
 9047TIP3   OH248555   1.077   2.508  16.490 -0.4328 -0.1135 -0.4409
 9047TIP3    H148556   1.163   2.526  16.452  0.4206 -0.4710  1.2240
 9047TIP3    H248557   1.016   2.520  16.417  1.0264 -0.0116 -1.7088
 9048TIP3   OH248558   3.171   4.711  14.355  0.0870 -0.3258 -0.3058
 9048TIP3    H148559   3.094   4.688  14.302  0.3889  0.1784 -0.9731
 9048TIP3    H248560   3.238   4.649  14.327 -0.1800 -1.0273  0.5631
 9049TIP3   OH248561   4.405   4.022  12.282 -0.1953  0.0397 -0.5471
 9049TIP3    H148562   4.323   3.972  12.287  0.0772 -0.3591  0.1350
 9049TIP3    H248563   4.428   4.021  12.189 -0.9076  0.0650 -0.7291
 9050TIP3   OH248564   0.020   6.524  11.988 -0.3856 -0.0720 -0.0117
 9050TIP3    H148565   0.022   6.491  12.077 -0.3377  0.9884  0.4015
 9050TIP3    H248566  -0.070   6.552  11.974  0.0970  1.9729  0.5870
 9051TIP3   OH248567   1.755   4.185  15.349 -0.1521  0.4738 -0.6082
 9051TIP3    H148568   1.679   4.242  15.344 -1.3423 -1.0309 -0.4917
 9051TIP3    H248569   1.777   4.166  15.258  0.0686  0.8777 -0.6413
 9052TIP3   OH248570   6.758   2.091  15.571 -0.0560 -0.2817 -0.2906
 9052TIP3    H148571   6.806   2.091  15.488 -0.0934  2.1555 -0.3737
 9052TIP3    H248572   6.693   2.021  15.560  0.9775 -1.0878 -1.6706
 9053TIP3   OH248573   0.654   1.413   4.018  0.1204 -0.0153  0.1983
 9053TIP3    H148574   0.584   1.383   4.076  1.5152 -0.6887  1.5990
 9053TIP3    H248575   0.697   1.484   4.066  0.1036  0.7273 -0.8545
 9054TIP3   OH248576   0.141   3.774   2.024  0.3616 -0.2533 -0.0001
 9054TIP3    H148577   0.196   3.838   1.980  0.6801 -0.6029 -0.1137
 9054TIP3    H248578   0.090   3.825   2.086  1.3415 -0.0204  0.6327
 9055TIP3   OH248579   2.953   0.088  15.100 -0.0496 -0.1688 -0.4742
 9055TIP3    H148580   2.937   0.180  15.119  1.8123  0.3011 -0.9466
 9055TIP3    H248581   2.947   0.081  15.005  0.5887 -0.3586 -0.5057
 9056TIP3   OH248582   2.645   0.519   0.411 -0.1112  0.7021 -0.8497
 9056TIP3    H148583   2.712   0.566   0.461  2.1228 -2.4401 -0.5419
 9056TIP3    H248584   2.563   0.537   0.456  1.3722  0.3497  2.2483
 9057TIP3   OH248585   1.440   4.728  14.746 -0.1790 -0.4653  0.2215
 9057TIP3    H148586   1.409   4.819  14.753  2.1146  0.2552  2.5089
 9057TIP3    H248587   1.443   4.711  14.652 -4.1507  0.4662 -0.2458
 9058TIP3   OH248588   1.097   3.723   5.422 -0.6306 -0.2689 -0.3401
 9058TIP3    H148589   1.067   3.635   5.445 -0.9575 -0.3997 -1.2318
 9058TIP3    H248590   1.192   3.718   5.431 -0.4802 -1.2144 -1.9347
 9059TIP3   OH248591   4.154   4.374   2.208  0.3479 -0.4815  0.2113
 9059TIP3    H148592   4.137   4.345   2.118 -0.6290  1.4205 -0.2592
 9059TIP3    H248593   4.106   4.311   2.262 -1.5937  0.0545 -0.7665
 9060TIP3   OH248594   3.919   4.115   5.409  0.1546  0.3922 -0.4326
 9060TIP3    H148595   3.890   4.102   5.499  0.3206  1.4078 -0.2142
 9060TIP3    H248596   3.878   4.198   5.383  1.1540  0.7669 -0.8428
 9061TIP3   OH248597   1.828   0.295   3.333  0.0823  0.1474  0.3425
 9061TIP3    H148598   1.765   0.226   3.315 -3.3612  2.0504  3.5430
 9061TIP3    H248599   1.834   0.297   3.429  2.4478  2.3065  0.2590
 9062TIP3   OH248600   4.997   0.124   4.599 -0.2355  0.3262  0.2120
 9062TIP3    H148601   4.966   0.134   4.689 -0.5469  1.7989 -0.0309
 9062TIP3    H248602   4.978   0.033   4.576 -1.5136  0.3387  1.1366
 9063TIP3   OH248603   5.829   2.615   5.773 -0.4644  0.6458  0.7318
 9063TIP3    H148604   5.745   2.661   5.769  0.2301  2.1253  1.9053
 9063TIP3    H248605   5.885   2.672   5.827  0.8691 -0.9733  1.1379
 9064TIP3   OH248606   3.185   4.258   0.324  0.1198  0.3815 -0.7258
 9064TIP3    H148607   3.114   4.231   0.382  0.3674  0.7429 -0.2454
 9064TIP3    H248608   3.200   4.350   0.346  0.3523  0.4665 -1.2246
 9065TIP3   OH248609   4.671   2.543  15.732 -0.5003  0.5716  0.1742
 9065TIP3    H148610   4.622   2.575  15.808 -1.5986 -0.6638  0.0280
 9065TIP3    H248611   4.604   2.526  15.666  0.1203 -1.0150 -0.0961
 9066TIP3   OH248612   4.672   1.661   1.368  0.4010 -0.6565 -0.1850
 9066TIP3    H148613   4.609   1.661   1.296  0.4325  1.2214 -0.2772
 9066TIP3    H248614   4.619   1.657   1.447  0.1972  0.0798 -0.2778
 9067TIP3   OH248615   2.327   6.344  12.995  0.0849  0.3020 -0.3153
 9067TIP3    H148616   2.320   6.414  12.929 -0.9211  1.4577  0.9590
 9067TIP3    H248617   2.354   6.389  13.074  0.4355 -0.9374  0.2875
 9068TIP3   OH248618   1.888   0.351  11.512  0.0504  0.2900  0.2113
 9068TIP3    H148619   1.897   0.444  11.491  0.9841  0.1154 -0.1979
 9068TIP3    H248620   1.926   0.306  11.437 -1.0591 -0.4545  0.0629
 9069TIP3   OH248621   1.377   0.430  13.117  0.5719 -0.8148 -0.2031
 9069TIP3    H148622   1.385   0.485  13.195  0.3652 -1.0023 -0.0478
 9069TIP3    H248623   1.423   0.479  13.048  1.8124 -1.2120  0.3176
 9070TIP3   OH248624   5.821   4.097  16.446  0.4570 -0.4657 -0.4486
 9070TIP3    H148625   5.772   4.178  16.432 -0.7282 -1.1171 -0.2339
 9070TIP3    H248626   5.891   4.120  16.507  0.1984  0.4098 -0.4765
 9071TIP3   OH248627   2.639   4.299   2.319  0.2715  0.0205  0.3953
 9071TIP3    H148628   2.655   4.235   2.388  0.9890  0.5106  0.7004
 9071TIP3    H248629   2.726   4.314   2.281  0.1261  0.8759  0.3920
 9072TIP3   OH248630   4.548   2.184   1.851 -0.5287 -0.2329  0.3323
 9072TIP3    H148631   4.454   2.180   1.835 -0.4250 -0.5757 -0.2399
 9072TIP3    H248632   4.586   2.206   1.766 -0.0985  0.0167  0.5846
 9073TIP3   OH248633   5.379   6.583  14.356 -0.0670 -0.3207 -0.4038
 9073TIP3    H148634   5.444   6.518  14.383  0.5968  0.5439  0.1113
 9073TIP3    H248635   5.315   6.533  14.304 -0.6627 -1.7869  1.6257
 9074TIP3   OH248636   3.997   6.176  17.250 -0.8008 -0.7491  0.1230
 9074TIP3    H148637   4.041   6.243  17.198 -1.1647 -0.0601  0.6844
 9074TIP3    H248638   4.034   6.093  17.219 -2.1066 -0.4988 -2.2848
 9075TIP3   OH248639   0.188   3.031   0.485  0.0261  0.2189  0.2568
 9075TIP3    H148640   0.197   3.014   0.391 -0.0300 -1.2407  0.4892
 9075TIP3    H248641   0.150   2.951   0.520 -3.3139  1.9741  1.0430
 9076TIP3   OH248642   1.268   4.818  16.256 -0.6542 -0.6750  0.3104
 9076TIP3    H148643   1.309   4.736  16.282  2.3546 -0.0196 -1.8615
 9076TIP3    H248644   1.198   4.791  16.196 -1.5223 -1.6893  1.7019
 9077TIP3   OH248645   5.006   1.967  12.819  0.1075  0.1969  0.1045
 9077TIP3    H148646   4.971   2.044  12.773  0.9268  1.1836  1.0642
 9077TIP3    H248647   4.985   1.893  12.762 -0.5552  1.1499 -0.9341
 9078TIP3   OH248648   0.225   6.101  11.505 -0.1552  0.1109  0.0936
 9078TIP3    H148649   0.319   6.092  11.519 -0.3698 -1.4663  0.7028
 9078TIP3    H248650   0.204   6.034  11.439 -0.6235  1.5082 -1.2562
 9079TIP3   OH248651   1.730   1.545  14.534 -0.1339 -1.1907 -0.0570
 9079TIP3    H148652   1.736   1.450  14.538 -0.9544 -1.2977 -0.8844
 9079TIP3    H248653   1.638   1.564  14.553  0.2827 -0.4578  1.3799
 9080TIP3   OH248654   2.725   0.669   1.391 -0.2157 -0.3520  0.1873
 9080TIP3    H148655   2.772   0.750   1.369 -1.4513  0.0527 -1.1185
 9080TIP3    H248656   2.719   0.669   1.486 -1.4318  1.8363  0.1557
 9081TIP3   OH248657   0.224   0.314  14.389  0.3030 -0.0082  0.1472
 9081TIP3    H148658   0.271   0.246  14.436 -0.1370 -0.5123 -0.1290
 9081TIP3    H248659   0.134   0.307  14.421 -1.0892 -3.1568 -3.6021
 9082TIP3   OH248660   4.744   1.846  12.521  0.2519  0.1150 -0.4030
 9082TIP3    H148661   4.794   1.900  12.459  0.3370  0.2547 -0.2117
 9082TIP3    H248662   4.806   1.827  12.591 -0.5600  2.0478  0.9019
 9083TIP3   OH248663   4.905   3.483  16.797  0.0729  0.5408  0.3930
 9083TIP3    H148664   4.892   3.574  16.820  0.4749  0.7070  0.0018
 9083TIP3    H248665   4.879   3.433  16.874 -0.2842  0.9805  0.5528
 9084TIP3   OH248666   1.963   1.210  15.734  0.1829  0.3611  0.3068
 9084TIP3    H148667   1.889   1.262  15.702  0.0394  0.3182  0.5682
 9084TIP3    H248668   2.037   1.271  15.732 -0.5263  1.5553  3.3929
 9085TIP3   OH248669   0.871   1.831  13.129  0.2696 -0.2151 -0.0400
 9085TIP3    H148670   0.921   1.891  13.184 -1.4748  0.4508  0.8923
 9085TIP3    H248671   0.840   1.763  13.189 -0.6897 -0.1167 -0.4088
 9086TIP3   OH248672   0.535   5.753  15.570  0.2373  0.0233 -0.5737
 9086TIP3    H148673   0.597   5.782  15.504 -1.8828  3.3453 -1.3364
 9086TIP3    H248674   0.476   5.694  15.523 -0.9540  1.9649 -1.6109
 9087TIP3   OH248675   5.127   0.246   4.140  0.3624 -0.7928  0.6111
 9087TIP3    H148676   5.083   0.161   4.149  0.5818 -0.8143  1.6257
 9087TIP3    H248677   5.167   0.261   4.226  0.2660  0.3734  0.4696
 9088TIP3   OH248678   4.154   5.186   4.317 -0.2799 -0.4270 -0.1202
 9088TIP3    H148679   4.151   5.269   4.270 -2.5059 -1.0121 -1.1537
 9088TIP3    H248680   4.225   5.197   4.380  0.6789  1.5748 -1.4300
 9089TIP3   OH248681   6.098   1.386  17.075 -0.3441  0.6071  0.5275
 9089TIP3    H148682   6.091   1.468  17.027 -1.4328 -0.1838 -0.7179
 9089TIP3    H248683   6.185   1.389  17.116 -0.1632  2.1273  0.0750
 9090TIP3   OH248684   4.496   0.138  13.525  0.5861 -0.2896  0.1566
 9090TIP3    H148685   4.470   0.165  13.437 -0.0403  0.2978  0.5116
 9090TIP3    H248686   4.415   0.136  13.575  0.8922 -0.9348  0.6433
 9091TIP3   OH248687   3.277   0.380  14.491 -0.4013  0.2339 -0.2210
 9091TIP3    H148688   3.270   0.345  14.402  0.9047 -0.4413 -0.0841
 9091TIP3    H248689   3.351   0.333  14.529 -0.7038  0.7893  1.1061
 9092TIP3   OH248690   0.711   1.840  14.285  0.2704 -0.0250  0.3213
 9092TIP3    H148691   0.787   1.793  14.249  2.2176  2.4876  0.9121
 9092TIP3    H248692   0.738   1.866  14.372 -1.3091  0.9532  0.5559
 9093TIP3   OH248693   5.021   0.380  13.970 -0.1386 -0.3460 -0.1310
 9093TIP3    H148694   4.956   0.337  13.915 -0.4084  0.0787 -0.1510
 9093TIP3    H248695   4.978   0.460  14.000  0.4081 -0.0122 -0.2187
 9094TIP3   OH248696   1.080   5.885   4.443  0.9672 -0.5398  0.6649
 9094TIP3    H148697   1.154   5.850   4.492  1.6811  0.6976  0.5310
 9094TIP3    H248698   1.075   5.831   4.364  1.6375 -0.7291  0.7499
 9095TIP3   OH248699   2.793   6.136  15.572  0.0180 -0.5140  0.0907
 9095TIP3    H148700   2.885   6.157  15.563  0.7026 -2.0792  2.4353
 9095TIP3    H248701   2.749   6.221  15.580  1.1767  0.2524 -1.3240
 9096TIP3   OH248702   5.561   5.175  10.973 -0.3151  0.0501  0.0345
 9096TIP3    H148703   5.608   5.218  11.044 -0.2216 -1.1473  0.7331
 9096TIP3    H248704   5.576   5.230  10.896  0.5706  0.7398  0.6884
 9097TIP3   OH248705   6.649   0.528   1.091  0.3952  0.1971 -0.4802
 9097TIP3    H148706   6.722   0.590   1.092  2.3184 -1.9224 -0.5762
 9097TIP3    H248707   6.620   0.526   1.000 -0.2364  1.4979 -0.3305
 9098TIP3   OH248708   4.110   4.534  10.475 -0.6502 -0.7475 -1.0442
 9098TIP3    H148709   4.175   4.503  10.413 -0.3601  0.5086 -1.3970
 9098TIP3    H248710   4.156   4.598  10.528 -2.1115  1.9727 -2.8366
 9099TIP3   OH248711   2.147   0.661   6.048  0.4289  0.4017  0.3173
 9099TIP3    H148712   2.186   0.609   6.118  0.4163 -1.0661 -0.6985
 9099TIP3    H248713   2.053   0.652   6.061  0.3869  2.3641  1.6524
 9100TIP3   OH248714   6.236   0.085   1.699 -0.2441  0.4558  0.3829
 9100TIP3    H148715   6.286   0.131   1.633 -0.6464  0.1703 -0.1272
 9100TIP3    H248716   6.266   0.122   1.782  0.5494  0.5370  0.0692
 9101TIP3   OH248717   3.017   5.623  15.972 -0.3941 -0.6719 -0.3894
 9101TIP3    H148718   3.051   5.534  15.986 -1.1204 -0.5650  2.8955
 9101TIP3    H248719   2.923   5.610  15.959 -0.4356 -0.3806 -0.3727
 9102TIP3   OH248720   5.877   6.049  16.990  0.8183 -0.0041  0.4367
 9102TIP3    H148721   5.934   6.017  17.059  0.5410 -0.6147  0.3988
 9102TIP3    H248722   5.789   6.021  17.016  0.7164 -0.2972 -0.1845
 9103TIP3   OH248723   0.130   6.008   2.310  0.3967 -0.0954  0.2094
 9103TIP3    H148724   0.112   6.098   2.337 -0.1292  0.4753 -1.8630
 9103TIP3    H248725   0.075   5.994   2.233  0.6231 -2.1358  0.3577
 9104TIP3   OH248726   6.732   4.843  13.730  0.4110 -0.6978 -0.0410
 9104TIP3    H148727   6.675   4.863  13.656 -1.6994 -1.2254  1.3451
 9104TIP3    H248728   6.740   4.747  13.729  0.8077 -0.6673  0.1101
 9105TIP3   OH248729   4.322   5.031   0.982  0.3674  0.0731  0.0613
 9105TIP3    H148730   4.293   5.001   1.068  0.7917 -0.8090 -0.0980
 9105TIP3    H248731   4.417   5.033   0.987  0.4921 -1.5997 -0.8962
 9106TIP3   OH248732   0.849   3.594  17.064 -0.1458 -0.1808 -0.1381
 9106TIP3    H148733   0.805   3.544  16.995  1.6599  1.2096 -2.4406
 9106TIP3    H248734   0.927   3.543  17.085 -0.6023 -0.5155  0.8159
 9107TIP3   OH248735   5.860   5.420   4.179 -0.6104  0.0492  0.0077
 9107TIP3    H148736   5.810   5.501   4.185 -1.9768 -0.8634  1.7097
 9107TIP3    H248737   5.906   5.413   4.263  1.1049  0.0171 -0.8765
 9108TIP3   OH248738   5.226   0.078   5.575 -0.0366  0.2557  0.0571
 9108TIP3    H148739   5.212   0.172   5.585 -0.5005  0.0123  2.6364
 9108TIP3    H248740   5.238   0.047   5.665  0.8381 -2.0489 -0.7890
 9109TIP3   OH248741   6.604   3.806  15.715  0.1959 -0.3455  0.1942
 9109TIP3    H148742   6.655   3.764  15.784  1.9429  0.8884 -0.2468
 9109TIP3    H248743   6.611   3.747  15.640 -0.6745 -1.1023  0.6978
 9110TIP3   OH248744   6.056   3.206   3.065 -0.0478  0.1278 -0.6208
 9110TIP3    H148745   5.986   3.175   3.007 -0.3199 -1.8103  0.6380
 9110TIP3    H248746   6.016   3.279   3.113 -0.3888  0.5996 -1.5944
 9111TIP3   OH248747   2.937   6.051   1.956 -0.2233  0.0934  1.0629
 9111TIP3    H148748   2.996   6.091   1.892  0.4768 -0.0413  1.6128
 9111TIP3    H248749   2.963   5.959   1.960 -2.4708 -0.7282 -0.9220
 9112TIP3   OH248750   6.040   2.095  14.705 -0.1376 -0.4145  0.3257
 9112TIP3    H148751   5.969   2.080  14.642 -0.6627 -1.8185  1.2139
 9112TIP3    H248752   5.999   2.086  14.791  1.0182 -0.7324  0.8663
 9113TIP3   OH248753   2.329   2.594   2.293 -0.5316  0.3753  0.0702
 9113TIP3    H148754   2.346   2.688   2.294  1.2181  0.1214 -1.2702
 9113TIP3    H248755   2.380   2.559   2.366  1.7279  0.1024 -1.5400
 9114TIP3   OH248756   5.749   4.981  12.057  0.1893 -0.3283 -0.1636
 9114TIP3    H148757   5.806   5.048  12.018 -0.5687  0.7014  0.4913
 9114TIP3    H248758   5.730   5.013  12.145  2.4150 -2.9253  1.4464
 9115TIP3   OH248759   0.566   4.527   5.983  0.4277 -0.0635 -0.0438
 9115TIP3    H148760   0.530   4.571   6.060 -0.4694 -3.4037  1.6500
 9115TIP3    H248761   0.519   4.566   5.909 -2.3702 -0.0714  1.5692
 9116TIP3   OH248762   4.467   3.068   6.075  0.1273  0.0309  0.3595
 9116TIP3    H148763   4.551   3.094   6.036 -0.0966  1.4582  0.7969
 9116TIP3    H248764   4.487   3.051   6.167  0.0089  0.0080  0.3813
 9117TIP3   OH248765   1.535   4.674  11.179  0.2740 -0.0034 -0.2619
 9117TIP3    H148766   1.591   4.702  11.107 -0.7278 -0.9351 -1.4496
 9117TIP3    H248767   1.494   4.755  11.210  0.9908  0.4529 -0.4755
 9118TIP3   OH248768   1.582   1.126   6.528 -0.8398  0.4649 -0.1431
 9118TIP3    H148769   1.594   1.043   6.482 -1.6462 -0.1527  0.7045
 9118TIP3    H248770   1.520   1.105   6.598 -0.4916  1.6208  0.5381
 9119TIP3   OH248771   4.080   0.860   2.738 -0.2196 -0.7941 -0.5929
 9119TIP3    H148772   4.028   0.940   2.742 -0.7201 -1.1530  0.9865
 9119TIP3    H248773   4.105   0.851   2.646  0.8262  1.7897 -0.6477
 9120TIP3   OH248774   4.337   4.721  12.485 -0.2673 -0.5692 -0.2041
 9120TIP3    H148775   4.309   4.748  12.572 -0.9927 -0.3567 -0.4967
 9120TIP3    H248776   4.404   4.655  12.500  3.1156  2.6797  0.6106
 9121TIP3   OH248777   1.443   5.404  15.530  0.1948 -0.2964  0.2856
 9121TIP3    H148778   1.379   5.333  15.524  0.8337 -0.9702  1.1728
 9121TIP3    H248779   1.411   5.470  15.469 -0.4712 -1.3049 -0.4952
 9122TIP3   OH248780   6.431   2.954  11.661  0.4624  0.0511  0.9137
 9122TIP3    H148781   6.508   2.979  11.712  0.4225  1.9407  0.1266
 9122TIP3    H248782   6.466   2.911  11.583  0.7519  0.9962  0.5078
 9123TIP3   OH248783   2.388   1.492   2.995  0.2744  0.6457 -0.3017
 9123TIP3    H148784   2.346   1.414   3.033  2.3802 -1.0817 -1.3050
 9123TIP3    H248785   2.404   1.549   3.070  0.4304 -0.7573  0.7788
 9124TIP3   OH248786   2.908   0.085  15.419  0.0014 -0.5262  0.0990
 9124TIP3    H148787   2.935   0.155  15.360 -1.2579  0.4844  0.6865
 9124TIP3    H248788   2.844   0.034  15.368 -0.9789  0.2623  0.5148
 9125TIP3   OH248789   4.790   0.162  14.586  0.0912 -0.0297 -0.1154
 9125TIP3    H148790   4.884   0.169  14.575  0.0901 -0.4673 -0.4460
 9125TIP3    H248791   4.755   0.246  14.555  0.3436 -0.0106 -0.3469
 9126TIP3   OH248792   4.891   5.502   0.808 -0.1070  0.1239  0.1204
 9126TIP3    H148793   4.813   5.499   0.862  0.5593  0.7277  1.1508
 9126TIP3    H248794   4.883   5.427   0.749 -1.6110  0.3720 -0.0159
 9127TIP3   OH248795   3.100   3.375   3.130  0.0369  0.2694 -0.1887
 9127TIP3    H148796   3.092   3.316   3.205 -1.7680  1.1323  0.3484
 9127TIP3    H248797   3.136   3.320   3.060  2.1681 -0.4611  1.3755
 9128TIP3   OH248798   3.955   6.289   0.802  0.0638  0.0003  0.5529
 9128TIP3    H148799   3.903   6.266   0.880 -0.4594 -0.7530 -0.0066
 9128TIP3    H248800   3.980   6.381   0.817 -0.8913  0.1839  1.1382
 9129TIP3   OH248801   2.411   5.417   3.628  0.4520  0.1999 -0.1008
 9129TIP3    H148802   2.376   5.382   3.546  1.8959 -1.7998  0.0674
 9129TIP3    H248803   2.346   5.394   3.694  0.5066 -0.5071 -0.2906
 9130TIP3   OH248804   6.753   0.985   3.650  0.3958 -0.3594  0.0961
 9130TIP3    H148805   6.685   1.015   3.711 -0.8522 -1.3205 -0.7538
 9130TIP3    H248806   6.800   0.918   3.699  2.5406  2.0753  1.6406
 9131TIP3   OH248807   2.314   0.085   4.651 -0.3770 -0.2153  0.1033
 9131TIP3    H148808   2.379   0.138   4.605 -0.0466 -0.8416 -0.1593
 9131TIP3    H248809   2.319   0.114   4.742 -0.1190  0.1195 -0.0158
 9132TIP3   OH248810   4.949   0.173  14.281 -0.0437  0.4714 -0.3287
 9132TIP3    H148811   5.005   0.250  14.281 -0.8947  1.1111  0.4608
 9132TIP3    H248812   5.010   0.099  14.280  0.8953  1.1247  1.9921
 9133TIP3   OH248813   0.005   6.249   5.664 -0.0398  0.4093  0.0727
 9133TIP3    H148814  -0.000   6.242   5.760  0.3859  0.4265  0.1013
 9133TIP3    H248815   0.044   6.336   5.649 -2.2551  1.4176 -0.1839
 9134TIP3   OH248816   5.006   5.345   0.323 -0.2437  0.5353 -0.4680
 9134TIP3    H148817   5.045   5.262   0.296  0.3449  0.5068  0.4138
 9134TIP3    H248818   5.080   5.405   0.332 -0.5412  0.8498 -0.0606
 9135TIP3   OH248819   4.532   2.697   6.076 -0.9749  0.0891 -0.3671
 9135TIP3    H148820   4.562   2.758   6.008 -0.2137 -0.1372 -0.2408
 9135TIP3    H248821   4.566   2.733   6.158 -0.6281 -0.4258 -0.2754
 9136TIP3   OH248822   5.146   2.579  15.650  0.0813  0.1905  1.0291
 9136TIP3    H148823   5.198   2.579  15.570  0.1944  0.3551  1.1037
 9136TIP3    H248824   5.111   2.490  15.655  1.5020 -0.3499  1.7288
 9137TIP3   OH248825   4.469   0.277   4.597 -0.2671  0.2609 -0.4040
 9137TIP3    H148826   4.548   0.255   4.647 -1.5254  1.0314  2.1318
 9137TIP3    H248827   4.495   0.351   4.543  0.7806  0.4718  0.3553
 9138TIP3   OH248828   4.266   1.713   1.059  0.4788  0.1071 -0.1855
 9138TIP3    H148829   4.177   1.687   1.035  0.6156 -0.5793  0.0147
 9138TIP3    H248830   4.255   1.787   1.118  0.0135 -0.4248  0.3988
 9139TIP3   OH248831   5.964   1.788   6.179 -0.3181 -0.2553  0.6707
 9139TIP3    H148832   5.902   1.853   6.213  0.6307  1.4279 -0.6322
 9139TIP3    H248833   5.931   1.766   6.092 -0.4777 -1.3477  0.9964
 9140TIP3   OH248834   0.967   0.532   1.040  0.3204 -0.0309  0.1410
 9140TIP3    H148835   0.937   0.448   1.004 -1.1837  1.4236 -2.2650
 9140TIP3    H248836   0.891   0.565   1.089  1.0623 -0.2281  1.4684
 9141TIP3   OH248837   5.014   6.516  13.579 -0.1029  0.4301 -0.1783
 9141TIP3    H148838   5.083   6.458  13.610  1.4662  0.6637 -2.8982
 9141TIP3    H248839   4.995   6.485  13.490 -3.7105  0.2576  0.5211
 9142TIP3   OH248840   5.813   5.160   4.203 -0.3878  0.4055 -0.2247
 9142TIP3    H148841   5.812   5.255   4.196 -1.5425  0.5464  1.4553
 9142TIP3    H248842   5.811   5.142   4.297 -1.8979 -1.2718 -0.5275
 9143TIP3   OH248843   5.169   0.985   0.996 -0.6353  0.3036 -0.0274
 9143TIP3    H148844   5.124   0.917   0.947  0.6845 -0.6207 -0.0149
 9143TIP3    H248845   5.255   0.948   1.016  0.4751  2.2719 -0.7603
 9144TIP3   OH248846   2.874   1.271   2.269 -0.3646  0.4857 -0.0978
 9144TIP3    H148847   2.802   1.278   2.331  0.7147  3.5259  0.9755
 9144TIP3    H248848   2.948   1.241   2.321 -0.3700 -0.8423 -0.8115
 9145TIP3   OH248849   3.528   5.140   1.889  0.4979  0.1362 -0.6607
 9145TIP3    H148850   3.573   5.147   1.974 -0.7358  0.2554  0.0039
 9145TIP3    H248851   3.496   5.049   1.887  1.4420 -0.1936 -1.4932
 9146TIP3   OH248852   1.835   2.974   0.017 -0.1222 -0.1592 -0.5938
 9146TIP3    H148853   1.896   2.977   0.090  0.3518 -1.5347 -0.8942
 9146TIP3    H248854   1.860   3.047  -0.040 -0.3856  0.8111  0.5050
 9147TIP3   OH248855   3.887   0.471  14.792  0.8348  0.3848  0.4779
 9147TIP3    H148856   3.852   0.427  14.869 -0.0633 -0.3119 -0.3122
 9147TIP3    H248857   3.836   0.552  14.785  0.0023 -0.1742 -0.1205
 9148TIP3   OH248858   4.974   3.263  16.973 -0.2822 -0.3398 -0.1847
 9148TIP3    H148859   5.056   3.269  16.925  0.3358 -0.1923  0.8649
 9148TIP3    H248860   4.983   3.186  17.029 -0.3348  0.4178  0.8854
 9149TIP3   OH248861   1.730   3.457   5.910  0.1494 -0.2623  0.7968
 9149TIP3    H148862   1.668   3.527   5.930  0.7016  0.3177  0.5195
 9149TIP3    H248863   1.779   3.444   5.991  0.5451  0.1987  0.6411
 9150TIP3   OH248864   4.831   3.756  12.974  0.2866  0.1627  0.0700
 9150TIP3    H148865   4.884   3.678  12.955 -0.2939 -0.1044 -0.4882
 9150TIP3    H248866   4.823   3.756  13.070 -2.4459 -2.3918  0.0152
 9151TIP3   OH248867   5.256   0.173   0.780  0.1108 -0.2536  0.1924
 9151TIP3    H148868   5.348   0.193   0.767 -0.3600  1.8136 -0.3020
 9151TIP3    H248869   5.251   0.132   0.866  1.5811 -1.2874 -0.1862
 9152TIP3   OH248870   5.605   5.788  15.213  0.2515  0.0021 -0.0565
 9152TIP3    H148871   5.691   5.771  15.174  0.6635 -2.8985  1.7516
 9152TIP3    H248872   5.620   5.862  15.271 -0.0402  3.4480 -3.9282
 9153TIP3   OH248873   1.088   1.436   2.526  0.0377  0.0854  0.1676
 9153TIP3    H148874   1.132   1.380   2.589  1.8895  2.0966  0.7838
 9153TIP3    H248875   1.119   1.405   2.441 -0.3809 -0.9231  0.3623
 9154TIP3   OH248876   0.089   2.956  10.492  0.1944  0.2615  0.1610
 9154TIP3    H148877   0.145   2.891  10.536  1.2756  0.2414 -1.1933
 9154TIP3    H248878   0.004   2.945  10.534  1.3851  0.9990  3.0421
 9155TIP3   OH248879   2.418   0.488   3.771 -0.1300 -0.7448  0.4295
 9155TIP3    H148880   2.481   0.443   3.714 -0.6751 -0.5094 -0.3627
 9155TIP3    H248881   2.394   0.422   3.837  0.6518 -0.9534  0.5178
 9156TIP3   OH248882   0.180   6.400   6.122  0.3454  0.0434 -0.5172
 9156TIP3    H148883   0.239   6.341   6.170  0.5100 -0.1544 -0.9515
 9156TIP3    H248884   0.124   6.438   6.189 -1.6363 -2.6886 -0.4440
 9157TIP3   OH248885   0.128   1.775  11.674  0.3395 -0.3110 -0.4413
 9157TIP3    H148886   0.186   1.849  11.658 -0.6789  1.1599  2.0603
 9157TIP3    H248887   0.049   1.796  11.624  0.3711 -0.1013 -0.4072
 9158TIP3   OH248888   1.966   3.198   3.984 -0.5841  0.0279  0.1018
 9158TIP3    H148889   2.039   3.204   4.045 -0.9648 -0.3252  0.6001
 9158TIP3    H248890   1.943   3.105   3.983  0.9976 -0.4389 -2.4543
 9159TIP3   OH248891   3.597   2.324  14.846  0.1214 -0.1392  0.4561
 9159TIP3    H148892   3.658   2.301  14.916  0.1804 -1.3975  0.0166
 9159TIP3    H248893   3.513   2.338  14.891 -0.4169 -3.2219  0.6271
 9160TIP3   OH248894   2.540   2.851   1.238  0.4336  0.1479 -0.3763
 9160TIP3    H148895   2.596   2.886   1.168  0.5937 -1.0265 -0.8561
 9160TIP3    H248896   2.597   2.793   1.288  0.3602  1.0928  0.8620
 9161TIP3   OH248897   0.243   2.596   3.326  0.0569  0.4618 -0.6299
 9161TIP3    H148898   0.309   2.578   3.393  1.3307  1.4821 -1.5667
 9161TIP3    H248899   0.193   2.670   3.361  0.0726  0.3548 -0.3791
 9162TIP3   OH248900   4.512   4.023  12.722 -0.0330  0.1665  0.5023
 9162TIP3    H148901   4.604   4.016  12.747 -0.4450 -1.2915  1.7980
 9162TIP3    H248902   4.483   3.933  12.711 -1.0025  0.6391 -1.1888
 9163TIP3   OH248903   3.091   4.130  14.368 -0.1724  0.1257 -0.3170
 9163TIP3    H148904   3.098   4.037  14.344 -1.9127 -0.3192  0.7086
 9163TIP3    H248905   2.997   4.148  14.366 -0.0402  1.2834  1.5361
 9164TIP3   OH248906   0.241   5.916   5.588  0.1461  0.5012  0.3768
 9164TIP3    H148907   0.321   5.941   5.635  0.1510  0.5482  0.3427
 9164TIP3    H248908   0.178   5.897   5.658 -0.4979  2.5750  0.4228
 9165TIP3   OH248909   4.220   1.324   3.867  0.2128 -0.1055 -0.0780
 9165TIP3    H148910   4.270   1.243   3.863  1.0548  0.4408 -1.1266
 9165TIP3    H248911   4.135   1.298   3.901  0.3801 -1.4820 -0.6433
 9166TIP3   OH248912   6.533   1.670   2.805 -0.2087 -0.0633 -0.0871
 9166TIP3    H148913   6.461   1.707   2.857 -0.7835 -0.5856 -0.4952
 9166TIP3    H248914   6.562   1.593   2.855  0.1606  0.2214  0.1430
 9167TIP3   OH248915   5.285   2.164   0.676  0.0949  0.0383 -0.3946
 9167TIP3    H148916   5.287   2.123   0.590  2.1277  0.0924 -0.4117
 9167TIP3    H248917   5.194   2.193   0.686 -0.1623  0.1724 -2.5732
 9168TIP3   OH248918   3.760   2.841   3.318 -0.3190  0.0189  0.3436
 9168TIP3    H148919   3.835   2.784   3.299  0.7612  1.7574 -0.9325
 9168TIP3    H248920   3.684   2.791   3.289  0.2358 -1.9791  2.0910
 9169TIP3   OH248921   4.783   6.201  15.829 -0.6546  0.0712 -0.2417
 9169TIP3    H148922   4.734   6.122  15.852  0.4762 -0.6479 -0.1944
 9169TIP3    H248923   4.825   6.179  15.746  1.8518 -0.4604  1.0556
 9170TIP3   OH248924   6.556   5.556  12.193  0.6884 -0.0006 -0.3061
 9170TIP3    H148925   6.489   5.614  12.229  1.4706 -0.0148  1.2146
 9170TIP3    H248926   6.543   5.473  12.239  0.5865 -0.5752 -1.3387
 9171TIP3   OH248927   1.261   3.771  12.650  0.5661  1.0070 -0.4079
 9171TIP3    H148928   1.315   3.777  12.571  1.4140 -1.3507 -0.0864
 9171TIP3    H248929   1.275   3.682  12.682  0.3099  1.8900  2.4565
 9172TIP3   OH248930   6.720   4.176   1.101 -0.6288 -0.1587  0.5115
 9172TIP3    H148931   6.786   4.160   1.034 -0.8840 -1.7864  0.6122
 9172TIP3    H248932   6.637   4.178   1.053 -0.7634 -0.8327  0.7069
 9173TIP3   OH248933   2.450   6.369  13.252 -0.2765  0.4243  0.0650
 9173TIP3    H148934   2.451   6.277  13.225 -0.6446 -0.0483  1.5734
 9173TIP3    H248935   2.542   6.393  13.259 -0.1797  0.2065 -0.4578
 9174TIP3   OH248936   3.251   2.133   4.016  0.6107 -0.6899  0.1274
 9174TIP3    H148937   3.284   2.188   3.945 -2.4550  2.3287  0.7827
 9174TIP3    H248938   3.202   2.064   3.972  1.1389 -0.5594 -0.6880
 9175TIP3   OH248939   3.804   3.785  16.850  0.0659 -0.3121 -0.1179
 9175TIP3    H148940   3.858   3.748  16.780 -0.8367 -1.3848 -0.2671
 9175TIP3    H248941   3.852   3.764  16.931  0.3702 -0.3710 -0.3124
 9176TIP3   OH248942   2.656   5.451  13.759 -0.1616 -0.0173 -0.1965
 9176TIP3    H148943   2.629   5.369  13.799 -1.1125  1.2402  1.9385
 9176TIP3    H248944   2.591   5.466  13.690 -1.9315  0.3649  1.4363
 9177TIP3   OH248945   4.534   2.150  13.503  0.1610 -0.1324  0.2618
 9177TIP3    H148946   4.595   2.079  13.487 -2.2110 -2.4546  0.9061
 9177TIP3    H248947   4.487   2.124  13.582 -1.0425  2.0169  0.3433
 9178TIP3   OH248948   2.607   2.090   3.240 -0.1779  0.6504 -0.2722
 9178TIP3    H148949   2.518   2.114   3.217 -0.4647 -1.3357 -1.5091
 9178TIP3    H248950   2.660   2.167   3.221 -1.4858  1.5029 -0.5016
 9179TIP3   OH248951   2.560   6.271   6.165 -0.6572 -0.7888 -0.2632
 9179TIP3    H148952   2.649   6.305   6.160 -0.3650 -1.4462  0.3796
 9179TIP3    H248953   2.523   6.289   6.079  0.1585 -0.7021 -0.6046
 9180TIP3   OH248954   2.776   4.185  14.164 -0.1531  0.4864  0.0191
 9180TIP3    H148955   2.772   4.245  14.238 -0.9172 -0.3463  0.6804
 9180TIP3    H248956   2.794   4.100  14.203  1.3834  0.3332 -0.9436
 9181TIP3   OH248957   0.524   1.745   0.847  0.1699 -0.2534 -0.0444
 9181TIP3    H148958   0.513   1.824   0.795 -1.2919  0.2300  0.9239
 9181TIP3    H248959   0.458   1.684   0.813 -1.0509  0.1990  1.4279
 9182TIP3   OH248960   0.312   4.058  12.311 -0.3581  0.2756 -0.5214
 9182TIP3    H148961   0.251   4.122  12.348 -0.3680 -0.1786  0.2709
 9182TIP3    H248962   0.396   4.103  12.311 -0.1804  0.0104  0.8896
 9183TIP3   OH248963   3.431   5.912   2.914 -0.2618 -0.3792  0.0238
 9183TIP3    H148964   3.386   5.932   2.996 -0.8278  0.4038 -0.4679
 9183TIP3    H248965   3.411   5.820   2.898 -1.0337 -0.2500  0.2248
 9184TIP3   OH248966   2.704   4.887   3.857  0.6009 -0.1455 -0.4007
 9184TIP3    H148967   2.733   4.797   3.873  1.1351  0.3766  1.9651
 9184TIP3    H248968   2.670   4.916   3.941  1.7278  2.3286 -0.7146
 9185TIP3   OH248969   1.607   4.951  15.138 -0.2486 -0.7370 -0.0409
 9185TIP3    H148970   1.543   4.889  15.103 -0.4554 -0.5012 -0.0855
 9185TIP3    H248971   1.687   4.935  15.087  0.2040 -2.0809  1.0320
 9186TIP3   OH248972   3.434   1.118  16.773  0.6059 -0.0157 -0.4636
 9186TIP3    H148973   3.432   1.077  16.687  2.9814  2.4333 -1.8334
 9186TIP3    H248974   3.390   1.202  16.760  0.7321  0.2595  0.7887
 9187TIP3   OH248975   2.731   2.608   0.888  0.1647  0.5779 -0.0635
 9187TIP3    H148976   2.648   2.647   0.918 -0.8512 -1.0433 -0.6564
 9187TIP3    H248977   2.727   2.615   0.793 -0.6436 -2.0362 -0.2812
 9188TIP3   OH248978   5.964   6.381  14.098  0.4781 -0.7352 -0.0964
 9188TIP3    H148979   5.931   6.387  14.187  1.8145  0.7828  0.3464
 9188TIP3    H248980   6.059   6.382  14.108  0.6608  0.4960 -1.5782
 9189TIP3   OH248981   1.887   4.899  15.393  0.3737  0.3677  0.2641
 9189TIP3    H148982   1.944   4.840  15.342  0.1495 -0.0389  0.4741
 9189TIP3    H248983   1.948   4.959  15.436  0.7142 -0.5525  1.1158
 9190TIP3   OH248984   3.808   1.159   0.191  0.0442  0.0358  0.0194
 9190TIP3    H148985   3.861   1.199   0.260 -0.4043  0.1824  0.2811
 9190TIP3    H248986   3.776   1.077   0.230 -0.3218  0.1861  0.0323
 9191TIP3   OH248987   2.405   5.544   1.784  0.1366  0.1691 -0.0702
 9191TIP3    H148988   2.388   5.621   1.837 -0.7544 -1.2843  1.8959
 9191TIP3    H248989   2.319   5.516   1.753  0.2792 -0.6854  0.2535
 9192TIP3   OH248990   6.156   2.220   0.713  0.7751  0.3635 -0.0337
 9192TIP3    H148991   6.171   2.286   0.781 -0.9156  0.6194  0.1181
 9192TIP3    H248992   6.138   2.140   0.761 -0.7716  0.6204 -0.1335
 9193TIP3   OH248993   4.172   2.720  15.229 -0.3333 -0.2237 -0.4586
 9193TIP3    H148994   4.224   2.798  15.246 -1.0807  0.2633 -0.3618
 9193TIP3    H248995   4.234   2.648  15.239  0.3246  0.3404 -0.3668
 9194TIP3   OH248996   0.843   3.575   3.440 -0.2137  0.7610  0.5093
 9194TIP3    H148997   0.793   3.509   3.487 -2.3960  1.4050 -0.7718
 9194TIP3    H248998   0.932   3.567   3.474 -0.9273 -1.2098  2.0680
 9195TIP3   OH248999   4.822   0.344   6.438  0.7846  0.4265 -0.4159
 9195TIP3    H149000   4.754   0.385   6.385  0.0833 -0.7196 -0.4184
 9195TIP3    H249001   4.799   0.367   6.528  0.5523  0.2726 -0.4366
 9196TIP3   OH249002   0.164   2.860   2.105 -0.1470 -0.1709  0.4044
 9196TIP3    H149003   0.214   2.936   2.136 -0.1895 -0.2760  0.7281
 9196TIP3    H249004   0.228   2.807   2.058 -0.0811 -0.0181  0.3182
 9197TIP3   OH249005   3.291   1.718  11.863  0.7342  0.3595  0.1175
 9197TIP3    H149006   3.279   1.709  11.769  1.6580  0.2992 -0.0083
 9197TIP3    H249007   3.257   1.637  11.900 -0.1749  0.6291 -0.1049
 9198TIP3   OH249008   4.929   4.866  11.592  0.2714 -0.2116 -0.1226
 9198TIP3    H149009   4.947   4.957  11.567 -0.6212  0.1098  0.3588
 9198TIP3    H249010   4.987   4.814  11.536  1.0489  0.6650 -0.1658
 9199TIP3   OH249011   5.274   6.594  17.090 -0.1519  0.0898 -0.1409
 9199TIP3    H149012   5.277   6.499  17.103 -0.3061  0.1173  0.1097
 9199TIP3    H249013   5.268   6.630  17.178 -0.5879  0.3085 -0.2536
 9200TIP3   OH249014   0.475   0.340  13.885  0.3076  0.1289 -0.6398
 9200TIP3    H149015   0.462   0.246  13.869 -2.0619  0.4698 -1.1228
 9200TIP3    H249016   0.463   0.350  13.980  0.5829 -0.0458 -0.5844
 9201TIP3   OH249017   2.677   0.905  17.192 -0.1614 -0.2664  0.4624
 9201TIP3    H149018   2.661   0.928  17.101 -0.1687 -0.9314  0.2916
 9201TIP3    H249019   2.592   0.880  17.227 -0.4916  1.6721  1.1615
 9202TIP3   OH249020   1.851   2.363   2.338 -0.4914  0.3298 -0.2007
 9202TIP3    H149021   1.814   2.296   2.396 -2.7069  1.2353 -0.4451
 9202TIP3    H249022   1.915   2.409   2.391 -0.0787 -0.9796  0.4621
 9203TIP3   OH249023   4.230   1.390  12.054 -0.0966  0.1222  0.1263
 9203TIP3    H149024   4.233   1.389  12.150  0.2996 -1.3534  0.1296
 9203TIP3    H249025   4.320   1.407  12.027 -0.2884  0.9686  0.0078
 9204TIP3   OH249026   4.106   2.938  13.403  0.0055 -0.1328 -0.3836
 9204TIP3    H149027   4.047   2.902  13.337  2.4263 -0.4726 -2.5421
 9204TIP3    H249028   4.170   2.989  13.353  0.8286  1.2808  1.9278
 9205TIP3   OH249029   2.953   4.572  15.803  0.0277 -0.2558 -0.9342
 9205TIP3    H149030   2.992   4.575  15.890  0.7217  0.5171 -1.2589
 9205TIP3    H249031   3.023   4.599  15.744 -0.8923  0.8683 -1.5569
 9206TIP3   OH249032   6.757   0.812  16.402 -0.2981 -0.2956 -0.5642
 9206TIP3    H149033   6.834   0.772  16.444 -2.0560 -1.4430  1.7536
 9206TIP3    H249034   6.789   0.895  16.368  2.2994 -1.3663 -1.0093
 9207TIP3   OH249035   1.233   3.474  12.991  0.4969  0.1372  0.1186
 9207TIP3    H149036   1.269   3.509  13.072 -0.8273 -0.4346  0.9782
 9207TIP3    H249037   1.154   3.427  13.017  0.4895 -0.7709 -1.3975
 9208TIP3   OH249038   5.190   1.255   4.705  0.8189 -0.0897 -0.6773
 9208TIP3    H149039   5.159   1.282   4.792 -0.4944  3.0810 -1.9645
 9208TIP3    H249040   5.263   1.197   4.723  0.3414  0.0966  2.5469
 9209TIP3   OH249041   0.799   1.092   1.488  0.8357 -0.4770 -0.6771
 9209TIP3    H149042   0.746   1.130   1.557  0.5346  0.2372 -1.2955
 9209TIP3    H249043   0.818   1.003   1.519  0.6399 -0.1973  0.2763
 9210TIP3   OH249044   3.726   6.472   5.972 -0.3698 -0.3245 -0.1079
 9210TIP3    H149045   3.700   6.541   6.033 -0.0165  0.3089 -0.6683
 9210TIP3    H249046   3.647   6.418   5.963  0.0494 -1.4940  2.2635
 9211TIP3   OH249047   3.798   5.595  11.434 -0.3345  0.3771 -0.0640
 9211TIP3    H149048   3.852   5.638  11.368 -0.6765  0.2862 -0.4085
 9211TIP3    H249049   3.778   5.509  11.396  0.5372 -0.1940  0.7149
 9212TIP3   OH249050   3.525   6.191  14.121 -0.2941  0.0538  0.3502
 9212TIP3    H149051   3.617   6.192  14.148  0.2060  1.6112 -1.2209
 9212TIP3    H249052   3.477   6.161  14.199  1.5787 -1.6265  0.9449
 9213TIP3   OH249053   6.037   2.119  13.597 -0.2018  0.4963 -0.2991
 9213TIP3    H149054   6.119   2.169  13.595  0.4749 -0.5267  0.7985
 9213TIP3    H249055   6.050   2.049  13.533 -0.7544  1.0985 -1.0926
 9214TIP3   OH249056   4.889   2.121   5.632  0.6675 -0.9232 -0.3325
 9214TIP3    H149057   4.982   2.123   5.610  0.9888 -0.2817  1.0111
 9214TIP3    H249058   4.886   2.137   5.726 -0.8482 -0.2303 -0.4745
 9215TIP3   OH249059   4.628   6.390  14.893  0.1785 -0.1200 -0.1603
 9215TIP3    H149060   4.674   6.337  14.959 -1.2891  2.2443  2.9618
 9215TIP3    H249061   4.536   6.387  14.919 -0.3067  1.8051 -1.4552
 9216TIP3   OH249062   6.155   5.248   1.917  0.0106  0.1593  0.4057
 9216TIP3    H149063   6.166   5.204   1.833 -2.4440  3.0140 -1.6062
 9216TIP3    H249064   6.235   5.298   1.929 -0.0755  0.6252 -0.8540
 9217TIP3   OH249065   4.110   3.423   1.784  0.1253  0.2896 -0.2299
 9217TIP3    H149066   4.160   3.363   1.839  0.0990 -0.1909 -0.7243
 9217TIP3    H249067   4.021   3.391   1.787 -0.0199  0.7062  0.0433
 9218TIP3   OH249068   4.919   2.614   5.228 -0.3866  0.5553  0.0141
 9218TIP3    H149069   4.984   2.627   5.159 -0.5720 -0.3605 -0.3487
 9218TIP3    H249070   4.962   2.647   5.307  0.2197  0.6945 -0.3655
 9219TIP3   OH249071   2.992   5.773   3.000 -0.6475 -0.4037  0.0614
 9219TIP3    H149072   2.937   5.710   3.047 -0.1278 -0.2829  0.8597
 9219TIP3    H249073   2.992   5.851   3.056 -0.7424  0.0668 -0.5904
 9220TIP3   OH249074   3.518   1.275  15.104 -0.3578  0.1476  0.3168
 9220TIP3    H149075   3.467   1.343  15.147  0.2582  1.5263 -1.0044
 9220TIP3    H249076   3.604   1.279  15.146  0.5515  2.1519 -1.5019
 9221TIP3   OH249077   3.937   3.592   6.904  0.0640  0.5690  0.7755
 9221TIP3    H149078   4.007   3.544   6.860 -0.2720 -0.0211  0.8678
 9221TIP3    H249079   3.900   3.528   6.965  0.5061  1.3549  1.9042
 9222TIP3   OH249080   0.167   5.061   5.293 -0.4124 -0.3604  0.3723
 9222TIP3    H149081   0.172   5.145   5.339 -0.5676 -0.3858  0.4358
 9222TIP3    H249082   0.239   5.009   5.331  0.9891  0.4433 -1.1026
 9223TIP3   OH249083   6.050   0.268  15.988  0.0978  0.2384 -0.2741
 9223TIP3    H149084   6.137   0.240  15.959 -0.6304 -1.3014 -1.1074
 9223TIP3    H249085   6.061   0.287  16.081  0.9673 -1.8115  0.0997
 9224TIP3   OH249086   1.396   4.718  13.856 -0.7985 -0.2003  0.5590
 9224TIP3    H149087   1.419   4.658  13.785  0.4593 -0.3110  1.0459
 9224TIP3    H249088   1.344   4.664  13.916  0.5304 -0.9140  1.1175
 9225TIP3   OH249089   0.764   1.657   3.463  0.3213  0.0691  0.3035
 9225TIP3    H149090   0.816   1.583   3.493 -0.4993 -0.4647  0.4318
 9225TIP3    H249091   0.720   1.689   3.542 -0.8310 -0.5323 -0.0626
 9226TIP3   OH249092   5.353   0.212   6.757 -0.3395 -0.0064 -0.5148
 9226TIP3    H149093   5.396   0.297   6.764  0.4964 -0.3962 -0.8487
 9226TIP3    H249094   5.259   0.232   6.765 -0.2500  1.1114 -1.8895
 9227TIP3   OH249095   2.548   4.986   4.062  0.2279  0.6776 -0.1626
 9227TIP3    H149096   2.504   5.028   4.136 -1.2052 -0.2622 -0.4460
 9227TIP3    H249097   2.497   4.906   4.046  1.7341 -0.1817 -0.8622
 9228TIP3   OH249098   6.377   6.078   1.081 -0.4500 -0.2832 -0.3143
 9228TIP3    H149099   6.464   6.117   1.084 -0.1732 -0.7932 -1.2764
 9228TIP3    H249100   6.318   6.151   1.060 -0.0175 -0.2617 -1.4773
 9229TIP3   OH249101   5.805   4.850   4.345  0.1008 -0.5223 -0.1682
 9229TIP3    H149102   5.765   4.935   4.362  0.5707 -0.0993 -1.1030
 9229TIP3    H249103   5.899   4.866   4.350  0.3057 -1.8965  3.9472
 9230TIP3   OH249104   5.924   5.795   0.154  0.0702  0.3319  0.6210
 9230TIP3    H149105   5.914   5.785   0.248 -1.4990 -1.3049  0.3371
 9230TIP3    H249106   5.948   5.708   0.123 -1.7635  0.2298 -0.7078
 9231TIP3   OH249107   0.583   6.622  14.224  0.0644  0.0967 -0.8676
 9231TIP3    H149108   0.638   6.545  14.218  0.6033  0.0708  2.5234
 9231TIP3    H249109   0.497   6.588  14.251 -0.6723  0.4503 -2.6381
 9232TIP3   OH249110   4.587   6.431  12.949 -0.1791 -0.6641  0.1532
 9232TIP3    H149111   4.545   6.414  12.865  0.8533  0.9910 -0.7404
 9232TIP3    H249112   4.515   6.425  13.013 -1.2228 -0.7200 -0.9895
 9233TIP3   OH249113   2.896   3.169  11.190  0.3256  0.4357 -0.0651
 9233TIP3    H149114   2.988   3.166  11.166  0.5932 -0.3544  0.9909
 9233TIP3    H249115   2.893   3.135  11.280 -0.8590  1.4104  0.3041
 9234TIP3   OH249116   1.910   3.088  14.563  0.4473 -0.3231  0.1253
 9234TIP3    H149117   1.879   3.097  14.653 -0.3460 -1.0352 -0.0678
 9234TIP3    H249118   1.832   3.067  14.512  0.6548  1.3253 -0.9581
 9235TIP3   OH249119   1.393   2.394   1.138 -1.1767 -0.3514 -0.9342
 9235TIP3    H149120   1.442   2.313   1.124 -0.2334 -0.0531  0.4306
 9235TIP3    H249121   1.455   2.464   1.116 -1.1515  0.0177  0.2356
 9236TIP3   OH249122   6.296   5.999   4.941  0.1308 -0.4293 -0.3894
 9236TIP3    H149123   6.210   6.031   4.968 -0.5053 -0.3043 -2.3806
 9236TIP3    H249124   6.301   5.910   4.978 -0.5176 -0.1562  0.3853
 9237TIP3   OH249125   2.212   0.572  12.811 -0.1619 -0.5931  0.5740
 9237TIP3    H149126   2.117   0.565  12.808 -0.2137  0.2077  0.0349
 9237TIP3    H249127   2.243   0.482  12.813 -0.9426 -0.8585  1.3988
 9238TIP3   OH249128   0.463   2.396   2.404 -0.2723  0.2207  0.5460
 9238TIP3    H149129   0.390   2.335   2.419 -1.3297  0.6644 -2.1805
 9238TIP3    H249130   0.464   2.451   2.482 -1.7851 -0.8488  1.3896
 9239TIP3   OH249131   1.930   0.490  12.815 -0.2733  0.8896 -0.6914
 9239TIP3    H149132   1.882   0.414  12.782  2.5822  0.0083 -3.3206
 9239TIP3    H249133   1.964   0.462  12.899  0.5322 -0.7506 -1.5021
 9240TIP3   OH249134   0.829   0.558  15.466 -0.1946 -0.1829  0.6107
 9240TIP3    H149135   0.844   0.584  15.557  0.6149  0.0165  0.4248
 9240TIP3    H249136   0.853   0.636  15.415  1.4190 -0.9749  0.1030
 9241TIP3   OH249137   5.090   6.009   2.720 -0.4573  0.3756  0.1129
 9241TIP3    H149138   5.102   6.103   2.709 -0.4883  0.3643 -0.0118
 9241TIP3    H249139   5.014   5.987   2.666 -1.3949  0.5392  1.3190
 9242TIP3   OH249140   1.764   1.196   4.718 -0.8187 -0.2392  0.1832
 9242TIP3    H149141   1.753   1.291   4.720 -1.7434 -0.3482  1.6538
 9242TIP3    H249142   1.711   1.164   4.791 -0.3819 -1.8759 -0.1768
 9243TIP3   OH249143   5.275   0.998  15.883 -0.3184 -0.3007  0.2683
 9243TIP3    H149144   5.209   1.059  15.850 -0.8024 -1.1439 -0.3766
 9243TIP3    H249145   5.232   0.955  15.958  0.3017  0.6727  1.2137
 9244TIP3   OH249146   4.826   5.382   5.407  0.2163  0.1477 -0.3199
 9244TIP3    H149147   4.847   5.392   5.314  0.5902  1.1965 -0.1289
 9244TIP3    H249148   4.840   5.468   5.445  3.1564 -0.8890  1.3207
 9245TIP3   OH249149   1.604   2.698  16.173  0.0378 -0.2333  0.2053
 9245TIP3    H149150   1.652   2.748  16.239  0.2575 -2.3157  1.6945
 9245TIP3    H249151   1.624   2.743  16.090  0.3393  2.0177  1.4071
 9246TIP3   OH249152   1.488   2.815  15.100  0.1125 -0.1593 -0.7173
 9246TIP3    H149153   1.468   2.825  15.193  0.0156  0.7096 -0.8207
 9246TIP3    H249154   1.425   2.873  15.056 -0.2914 -1.0781 -1.3702
 9247TIP3   OH249155   1.347   6.344   5.630 -0.1656 -0.4667 -0.0492
 9247TIP3    H149156   1.369   6.374   5.718 -2.3967 -0.8543  0.7074
 9247TIP3    H249157   1.381   6.412   5.572  1.0635 -0.0519  1.1135
 9248TIP3   OH249158   1.509   3.759   1.284  0.3160  0.0304  0.5876
 9248TIP3    H149159   1.426   3.776   1.239 -0.0812 -0.6160  1.0538
 9248TIP3    H249160   1.545   3.682   1.241  1.5649  1.3108 -0.7776
 9249TIP3   OH249161   1.736   6.520   0.301 -1.2786  0.0007 -0.7916
 9249TIP3    H149162   1.736   6.448   0.237  3.5016 -1.4258  0.4534
 9249TIP3    H249163   1.694   6.483   0.378 -0.4436 -0.8883 -0.7442
 9250TIP3   OH249164   4.573   1.053  12.890  0.1637 -0.6786  0.3714
 9250TIP3    H149165   4.578   1.070  12.984 -1.5792  1.3804  0.1703
 9250TIP3    H249166   4.480   1.034  12.874 -0.0665  1.3941 -1.2200
 9251TIP3   OH249167   0.817   2.754   1.056 -0.5030 -0.2613  0.1669
 9251TIP3    H149168   0.871   2.710   1.122 -1.7686  1.7154  2.7263
 9251TIP3    H249169   0.739   2.698   1.048  1.1113 -2.3918 -2.5144
 9252TIP3   OH249170   1.458   5.564  12.197  0.9473  0.0834  0.1824
 9252TIP3    H149171   1.412   5.591  12.117 -2.5344  1.2305  2.3550
 9252TIP3    H249172   1.449   5.468  12.197 -0.7532  0.2038  0.0671
 9253TIP3   OH249173   5.750   4.044  16.851  0.5877 -0.4566  0.0384
 9253TIP3    H149174   5.680   4.009  16.796  0.4099 -0.5459  0.3152
 9253TIP3    H249175   5.726   4.136  16.864  0.0499 -0.6939  0.8400
 9254TIP3   OH249176   4.907   4.066   3.321  0.8267 -0.2599 -0.2461
 9254TIP3    H149177   4.948   3.999   3.265  0.8427 -0.9492  0.5699
 9254TIP3    H249178   4.936   4.044   3.409  1.7805  1.5193 -0.0709
 9255TIP3   OH249179   3.414   0.794   1.915 -0.2050  0.0388 -0.6385
 9255TIP3    H149180   3.467   0.870   1.936 -1.3173  0.9756 -1.1057
 9255TIP3    H249181   3.426   0.735   1.990  3.5996 -1.0689 -1.8850
 9256TIP3   OH249182   5.836   1.815   4.457 -0.1785  0.1844  0.0555
 9256TIP3    H149183   5.868   1.905   4.449  0.6766 -0.1920 -1.1554
 9256TIP3    H249184   5.911   1.766   4.490 -0.4820 -0.1720  0.2187
 9257TIP3   OH249185   0.782   2.695  11.287  0.4093  0.8512  0.6049
 9257TIP3    H149186   0.725   2.759  11.329  0.0849  1.9003 -1.3328
 9257TIP3    H249187   0.744   2.681  11.200  2.1328  0.2939 -0.1098
 9258TIP3   OH249188   3.058   5.331   5.853 -0.2047 -0.2050  0.2756
 9258TIP3    H149189   3.038   5.422   5.876 -1.5982 -0.0431 -1.4133
 9258TIP3    H249190   3.128   5.338   5.788 -0.9609 -0.2574 -0.5646
 9259TIP3   OH249191   2.374   3.543  13.881 -0.0504  0.3545 -0.5501
 9259TIP3    H149192   2.373   3.601  13.957 -2.5992  1.4268 -1.2790
 9259TIP3    H249193   2.372   3.455  13.918  0.6398  0.7995  0.5969
 9260TIP3   OH249194   2.936   4.014  15.057 -0.1629 -0.8114  0.1488
 9260TIP3    H149195   2.937   3.921  15.079  1.6734 -0.9701 -0.4019
 9260TIP3    H249196   2.857   4.049  15.099 -0.6820 -2.5364  0.6569
 9261TIP3   OH249197   6.096   4.862   3.904  0.2515 -0.5129  0.3457
 9261TIP3    H149198   6.078   4.868   3.998  0.5476  2.6446  0.2986
 9261TIP3    H249199   6.185   4.827   3.899  0.4778 -0.1162  1.2739
 9262TIP3   OH249200   2.586   2.203   1.427  0.4896 -0.1596  0.0804
 9262TIP3    H149201   2.643   2.241   1.494  0.0853  1.4280 -0.4288
 9262TIP3    H249202   2.613   2.246   1.346  0.8339 -1.8986 -0.7738
 9263TIP3   OH249203   5.245   1.519   0.745 -0.0751  0.8330 -0.0297
 9263TIP3    H149204   5.219   1.610   0.735  0.0748  1.0580  1.4642
 9263TIP3    H249205   5.321   1.521   0.803  0.2532 -0.2078 -0.3902
 9264TIP3   OH249206   3.008   1.842  13.858  0.2398 -0.2127  0.0369
 9264TIP3    H149207   2.991   1.923  13.907  0.3568 -0.2012  0.0603
 9264TIP3    H249208   3.096   1.815  13.887 -0.3626 -1.1233  1.1234
 9265TIP3   OH249209   1.707   6.012  12.194  1.1484  0.0366 -0.0466
 9265TIP3    H149210   1.743   5.924  12.205  1.2697  0.1456  0.4532
 9265TIP3    H249211   1.615   5.998  12.171  1.0179 -0.2107  0.6188
 9266TIP3   OH249212   0.701   2.646   3.554  0.6663 -0.0384 -0.2997
 9266TIP3    H149213   0.771   2.662   3.618  1.4961  0.9214 -1.3887
 9266TIP3    H249214   0.728   2.567   3.508 -0.2586 -1.1085  0.9138
 9267TIP3   OH249215   1.171   2.563   2.986 -0.6998  0.3362  0.2146
 9267TIP3    H149216   1.185   2.594   2.897 -0.7361  2.6396  0.9583
 9267TIP3    H249217   1.076   2.558   2.995 -0.6947 -0.0009  0.1122
 9268TIP3   OH249218   4.518   3.184   3.045  0.6067  0.9484  0.8145
 9268TIP3    H149219   4.565   3.259   3.009  1.8224 -1.2157 -2.6071
 9268TIP3    H249220   4.586   3.125   3.077 -0.3115  1.0688  3.1836
 9269TIP3   OH249221   5.161   0.595   4.909 -0.0609  0.4068  0.3072
 9269TIP3    H149222   5.069   0.617   4.895  0.1485  1.5972  0.6213
 9269TIP3    H249223   5.160   0.520   4.969 -0.8238  0.4872  0.4037
 9270TIP3   OH249224   3.670   0.587   0.612  0.4038 -0.4577 -0.0515
 9270TIP3    H149225   3.705   0.547   0.692 -0.9359 -0.2326  0.6819
 9270TIP3    H249226   3.736   0.652   0.587  1.2904 -1.1839  0.3208
 9271TIP3   OH249227   5.179   2.452  11.344  0.2634 -0.2369  0.2407
 9271TIP3    H149228   5.195   2.418  11.256  1.0162 -1.9479  1.0032
 9271TIP3    H249229   5.122   2.387  11.385 -1.3558  1.2908  0.5616
 9272TIP3   OH249230   1.152   4.250  15.167 -0.2091  0.0780 -0.3852
 9272TIP3    H149231   1.224   4.302  15.202  0.9363 -0.7106 -1.4742
 9272TIP3    H249232   1.135   4.287  15.080 -0.6992 -0.1309 -0.3840
 9273TIP3   OH249233   6.628   5.268  13.556 -0.3295  0.0897  0.4032
 9273TIP3    H149234   6.645   5.211  13.481  2.0078  0.4794  0.5671
 9273TIP3    H249235   6.604   5.208  13.626 -3.5114 -0.2281 -0.7750
 9274TIP3   OH249236   5.263   0.371  11.515 -0.6353  0.2553 -0.4869
 9274TIP3    H149237   5.315   0.301  11.476  1.2235  1.0357  0.4731
 9274TIP3    H249238   5.254   0.346  11.607 -1.1816  0.5874 -0.4419
 9275TIP3   OH249239   3.359   4.512  16.003  0.2819 -0.4386  0.9067
 9275TIP3    H149240   3.375   4.605  15.984  1.1343 -0.6166  0.7372
 9275TIP3    H249241   3.365   4.469  15.918  1.7066 -0.9029  1.2296
 9276TIP3   OH249242   3.104   3.864  11.124 -0.2492 -0.2342 -0.0117
 9276TIP3    H149243   3.104   3.866  11.029  0.0536  0.0036 -0.0083
 9276TIP3    H249244   3.177   3.806  11.147 -0.7332 -0.8119  0.0669
 9277TIP3   OH249245   1.222   2.859  13.560  0.0631 -0.0550 -0.5512
 9277TIP3    H149246   1.280   2.783  13.560 -0.6707 -0.6289 -0.2630
 9277TIP3    H249247   1.236   2.901  13.645  1.9751  1.3452 -1.4767
 9278TIP3   OH249248   3.749   0.693   1.395  0.3309 -0.1353  0.8933
 9278TIP3    H149249   3.760   0.788   1.403  0.3889 -0.2595  2.6206
 9278TIP3    H249250   3.718   0.665   1.481 -0.2298 -1.6244  0.2386
 9279TIP3   OH249251   6.561   6.020  11.569 -0.2394  0.2225  0.7180
 9279TIP3    H149252   6.637   5.990  11.618 -0.7825 -0.5448  1.1049
 9279TIP3    H249253   6.488   5.967  11.601 -0.5243 -0.7288 -1.3072
 9280TIP3   OH249254   1.158   2.130   2.640 -0.0559 -0.2495  0.1226
 9280TIP3    H149255   1.119   2.206   2.597 -0.9797 -0.1856  1.0454
 9280TIP3    H249256   1.111   2.055   2.603 -0.2328 -0.2586  0.3669
 9281TIP3   OH249257   5.577   0.652  12.769  0.4741 -0.0928 -0.6496
 9281TIP3    H149258   5.658   0.612  12.739  0.1220  1.1110 -3.4837
 9281TIP3    H249259   5.510   0.618  12.709 -0.5714  1.2893 -0.3142
 9282TIP3   OH249260   3.858   0.138  15.932 -0.1633  0.0442  0.4231
 9282TIP3    H149261   3.772   0.176  15.947  0.4908  2.0758 -0.5570
 9282TIP3    H249262   3.902   0.200  15.874  1.7084 -1.3016  0.2897
 9283TIP3   OH249263   0.131   1.282  12.340  0.0789 -0.1573 -0.2829
 9283TIP3    H149264   0.133   1.378  12.330  1.2544  0.0795  1.7293
 9283TIP3    H249265   0.192   1.251  12.273  0.4142  0.5803 -0.3372
 9284TIP3   OH249266   2.299   6.697  14.586 -0.1986 -0.0513  0.4026
 9284TIP3    H149267   2.346   6.616  14.608 -2.2430 -1.1592  0.9286
 9284TIP3    H249268   2.368   6.761  14.571  1.4780 -1.6529  0.9047
 9285TIP3   OH249269   3.395   1.699   2.906 -0.3594 -1.0039 -0.0974
 9285TIP3    H149270   3.306   1.700   2.942  0.2245 -2.8270  1.5950
 9285TIP3    H249271   3.385   1.662   2.819 -1.3966  0.0853 -0.4710
 9286TIP3   OH249272   5.244   5.404  16.761  0.4366  0.7791 -0.2954
 9286TIP3    H149273   5.295   5.400  16.842  0.0009 -1.7454 -0.0566
 9286TIP3    H249274   5.154   5.422  16.791  0.6484  2.1936 -0.4546
 9287TIP3   OH249275   5.219   2.485   5.192  0.4927  0.0271 -0.4784
 9287TIP3    H149276   5.276   2.558   5.214 -0.0721  1.0408 -2.1283
 9287TIP3    H249277   5.239   2.466   5.100  0.7053 -2.0103 -0.0696
 9288TIP3   OH249278   1.220   1.931  13.248 -0.0691  0.0101  0.1020
 9288TIP3    H149279   1.159   1.983  13.301 -0.0590 -0.4418  0.5635
 9288TIP3    H249280   1.296   1.919  13.306  0.5752  0.7881 -0.5558
 9289TIP3   OH249281   0.489   5.266  16.338  0.1031 -0.2296  0.1415
 9289TIP3    H149282   0.444   5.206  16.279 -0.9350 -1.5487  2.1514
 9289TIP3    H249283   0.537   5.326  16.281 -1.2090 -1.1372 -1.9956
 9290TIP3   OH249284   3.452   2.277   0.969  0.1328  0.4515  0.2568
 9290TIP3    H149285   3.545   2.272   0.990  0.0507 -0.9321  0.3594
 9290TIP3    H249286   3.436   2.203   0.911 -0.8581  0.8293  0.0281
 9291TIP3   OH249287   0.272   1.203   2.532  0.1843 -0.0512 -0.0891
 9291TIP3    H149288   0.346   1.208   2.592  0.4529 -0.4332 -0.3818
 9291TIP3    H249289   0.261   1.109   2.516  0.8548  0.0869 -1.5413
 9292TIP3   OH249290   6.227   2.178  16.187  0.5093  0.5067  0.1827
 9292TIP3    H149291   6.230   2.271  16.211 -0.6012  0.6681 -0.2192
 9292TIP3    H249292   6.211   2.132  16.269  0.0543  0.7652  0.2441
 9293TIP3   OH249293   4.382   3.903   3.558 -0.3290  0.3292  0.5833
 9293TIP3    H149294   4.314   3.956   3.518  0.0416  0.3668 -0.0154
 9293TIP3    H249295   4.373   3.919   3.652  0.4143  2.2698  0.3725
 9294TIP3   OH249296   1.726   2.139  16.195  0.4372  0.4799 -0.3861
 9294TIP3    H149297   1.713   2.226  16.233  1.5553  0.8067 -0.7317
 9294TIP3    H249298   1.809   2.109  16.230 -0.2393 -0.7403  0.2299
 9295TIP3   OH249299   6.177   3.766  11.671  0.4463 -0.4392 -0.3955
 9295TIP3    H149300   6.242   3.711  11.627 -1.9719 -0.4245 -4.5986
 9295TIP3    H249301   6.210   3.855  11.659  0.4231 -0.5233 -1.1610
 9296TIP3   OH249302   0.552   5.351  15.827  0.2465  0.5848 -0.1223
 9296TIP3    H149303   0.643   5.336  15.854  0.4960  0.2777 -1.0958
 9296TIP3    H249304   0.553   5.436  15.784  0.3257  0.0479 -1.2070
 9297TIP3   OH249305   4.659   0.209  14.859 -0.0942 -0.1850  0.3426
 9297TIP3    H149306   4.663   0.124  14.904 -1.1608 -0.0980  0.6382
 9297TIP3    H249307   4.733   0.208  14.799  0.7295 -0.7505  1.3328
 9298TIP3   OH249308   0.664   2.246  14.884  0.2712  0.4921  0.3746
 9298TIP3    H149309   0.638   2.202  14.803  0.5491 -0.9249  1.0227
 9298TIP3    H249310   0.595   2.311  14.899 -0.7868 -0.4908 -0.0345
 9299TIP3   OH249311   6.715   0.426   5.115  0.1552  0.6860 -0.0446
 9299TIP3    H149312   6.630   0.446   5.154 -0.1674  0.5252 -0.6529
 9299TIP3    H249313   6.764   0.508   5.119  0.3344  0.5269  1.2040
 9300TIP3   OH249314   4.423   1.629  13.020 -0.2706  0.2378 -0.3544
 9300TIP3    H149315   4.504   1.607  13.068 -0.4474  0.4519  0.0479
 9300TIP3    H249316   4.431   1.723  13.001 -0.9246  0.5152  0.6729
 9301TIP3   OH249317   0.675   6.619   2.410  0.0477 -0.7547  0.0442
 9301TIP3    H149318   0.667   6.683   2.339  1.7000  0.8514  1.2053
 9301TIP3    H249319   0.585   6.601   2.437 -0.4752  1.5069  0.0156
 9302TIP3   OH249320   2.830   2.039   1.301 -0.4326 -1.1637  0.1197
 9302TIP3    H149321   2.738   2.014   1.302 -0.9277  0.5723  1.6211
 9302TIP3    H249322   2.868   1.994   1.377 -0.4680 -0.4549  0.5657
 9303TIP3   OH249323   5.377   2.516   0.815 -0.0393  0.2033  0.1330
 9303TIP3    H149324   5.363   2.607   0.789  0.2736  0.3233  0.3766
 9303TIP3    H249325   5.350   2.512   0.907 -3.9468 -0.8825 -0.8784
 9304TIP3   OH249326   2.800   1.155  13.698  0.0257 -0.1805  0.2898
 9304TIP3    H149327   2.706   1.151  13.680  0.2541  1.3470 -1.5013
 9304TIP3    H249328   2.819   1.248  13.706  1.4819 -0.4358  0.0898
 9305TIP3   OH249329   3.125   6.704   5.101  0.1850  0.1981 -0.1724
 9305TIP3    H149330   3.071   6.625   5.109  1.2196 -0.7188 -1.7522
 9305TIP3    H249331   3.152   6.724   5.191 -0.1950 -1.1806  0.2703
 9306TIP3   OH249332   2.605   6.105   0.459  0.0532  0.4434  0.2906
 9306TIP3    H149333   2.634   6.177   0.516 -1.5512  2.6739 -1.5542
 9306TIP3    H249334   2.661   6.113   0.381  1.3427 -1.7538  0.9232
 9307TIP3   OH249335   3.319   4.563  14.179 -0.4610  0.3294 -0.3969
 9307TIP3    H149336   3.384   4.495  14.195  0.3464  1.2080  0.1365
 9307TIP3    H249337   3.344   4.601  14.095 -0.4363  0.4984 -0.3138
 9308TIP3   OH249338   1.176   0.335   6.014  0.0228 -0.0613 -0.0059
 9308TIP3    H149339   1.102   0.376   6.059 -0.0295  0.2522 -0.3681
 9308TIP3    H249340   1.143   0.251   5.984 -0.1478  0.0208 -0.0498
 9309TIP3   OH249341   6.123   4.859   0.437 -0.2105  0.0818 -0.6946
 9309TIP3    H149342   6.190   4.856   0.369 -1.4071 -0.5832 -1.9007
 9309TIP3    H249343   6.092   4.769   0.444 -1.9622  0.5983 -1.2149
 9310TIP3   OH249344   3.573   3.922   0.021 -0.2471 -0.3872  0.0942
 9310TIP3    H149345   3.619   3.877   0.092 -0.8355 -1.3723 -0.1336
 9310TIP3    H249346   3.485   3.939   0.055 -0.1050  0.3891  0.0898
 9311TIP3   OH249347   0.893   4.228  12.616 -0.2543 -0.6438 -0.3802
 9311TIP3    H149348   0.890   4.256  12.708 -1.5620  0.2889 -0.6777
 9311TIP3    H249349   0.974   4.266  12.582 -0.2148 -0.2384  0.1533
 9312TIP3   OH249350   2.457   3.850  12.023 -0.4736  0.4689  0.4143
 9312TIP3    H149351   2.407   3.780  11.981 -0.0890 -0.3102  1.2315
 9312TIP3    H249352   2.413   3.930  11.995 -2.4266 -0.2025  1.3870
 9313TIP3   OH249353   5.336   4.045   0.929  1.0231  0.4495  0.0753
 9313TIP3    H149354   5.261   3.987   0.927 -0.5895  2.4113  0.2481
 9313TIP3    H249355   5.405   3.995   0.974 -0.2097 -1.3422  0.0377
 9314TIP3   OH249356   1.785   2.772  12.626 -0.3389  0.3963 -0.7049
 9314TIP3    H149357   1.715   2.708  12.635 -0.1941  0.3835  0.5458
 9314TIP3    H249358   1.827   2.751  12.543 -0.1749 -1.2512 -0.2352
 9315TIP3   OH249359   5.513   6.380   5.241 -0.4200 -0.4390 -0.1545
 9315TIP3    H149360   5.574   6.310   5.218  1.9291  2.0113 -1.9508
 9315TIP3    H249361   5.541   6.409   5.327  2.1154  1.6003 -1.5212
 9316TIP3   OH249362   4.171   4.893  13.712 -0.0280  0.0516 -0.0263
 9316TIP3    H149363   4.170   4.875  13.618  2.6412 -1.4814  0.1240
 9316TIP3    H249364   4.190   4.987  13.718 -2.2088  0.6125 -0.9379
 9317TIP3   OH249365   3.461   5.730  15.217  0.0076 -0.0027 -0.1335
 9317TIP3    H149366   3.430   5.646  15.184  0.8488 -0.0648 -0.7961
 9317TIP3    H249367   3.540   5.710  15.265 -0.6986  0.2147  1.1708
 9318TIP3   OH249368   6.746   2.660   1.308 -0.2287  0.2695 -0.2803
 9318TIP3    H149369   6.743   2.675   1.213  1.0373 -1.5139 -0.6401
 9318TIP3    H249370   6.741   2.748   1.345 -2.9505  0.9344 -1.8645
 9319TIP3   OH249371   1.138   1.960   3.706 -0.1439 -0.3597 -0.4343
 9319TIP3    H149372   1.092   1.896   3.761 -0.5344 -0.0417 -0.3869
 9319TIP3    H249373   1.068   2.011   3.666  0.1775  0.6171  0.2135
 9320TIP3   OH249374   0.862   5.814   2.142  0.1387 -0.3065 -0.9018
 9320TIP3    H149375   0.777   5.771   2.140 -0.5840  0.8892  1.4878
 9320TIP3    H249376   0.842   5.907   2.153  1.7541  0.0842 -1.0086
 9321TIP3   OH249377   1.377   4.177  11.484 -0.3378  0.0951 -0.0858
 9321TIP3    H149378   1.402   4.174  11.392 -0.1725  2.6433 -0.1997
 9321TIP3    H249379   1.300   4.234  11.486 -0.5931 -0.2585  1.3062
 9322TIP3   OH249380   0.089   0.911   0.782 -0.0735  0.1982 -0.7840
 9322TIP3    H149381   0.037   0.860   0.720 -4.0008  0.7052  1.7643
 9322TIP3    H249382   0.108   0.851   0.854  0.2313  0.8135 -0.3359
 9323TIP3   OH249383   6.203   1.471  17.387  0.2434 -0.2513  0.4785
 9323TIP3    H149384   6.251   1.492  17.307  2.4469  0.0405  1.7950
 9323TIP3    H249385   6.111   1.470  17.360  0.6493  2.6247 -1.4925
 9324TIP3   OH249386   6.208   4.931   5.202  0.3641  1.1445  0.2370
 9324TIP3    H149387   6.262   4.936   5.123  0.0693  0.2354 -0.0435
 9324TIP3    H249388   6.120   4.909   5.170  0.6766 -1.4861  0.8874
 9325TIP3   OH249389   2.891   0.022   4.448  0.1832  0.6480 -0.2945
 9325TIP3    H149390   2.980   0.005   4.419  0.1310  1.2968 -0.8577
 9325TIP3    H249391   2.837  -0.035   4.394  0.3198 -0.5052  0.7505
 9326TIP3   OH249392   4.686   2.725   5.305 -0.7194 -0.1479 -0.5429
 9326TIP3    H149393   4.649   2.657   5.361 -0.7507 -0.2361 -0.6694
 9326TIP3    H249394   4.765   2.685   5.269  1.1169  0.9824  1.9180
 9327TIP3   OH249395   3.250   2.082  16.653 -0.0303 -0.3103 -0.1356
 9327TIP3    H149396   3.187   2.123  16.712 -0.6495 -2.1363  0.5386
 9327TIP3    H249397   3.301   2.025  16.709  1.4392  0.2112 -0.8895
 9328TIP3   OH249398   1.694   1.953  13.522  0.1874 -0.6566 -0.3336
 9328TIP3    H149399   1.618   2.010  13.524  0.4822 -0.2726  0.0128
 9328TIP3    H249400   1.743   1.975  13.601 -0.0839 -1.9215  0.2081
 9329TIP3   OH249401   2.214   6.181   2.655 -0.3733 -0.1803 -0.0971
 9329TIP3    H149402   2.235   6.245   2.723 -1.3757 -0.7821  0.8128
 9329TIP3    H249403   2.299   6.150   2.624  0.1030 -0.4098  1.3871
 9330TIP3   OH249404   3.322   5.955   3.907  0.0177  0.9492 -0.5113
 9330TIP3    H149405   3.350   5.900   3.834  0.4712 -0.1611  0.4819
 9330TIP3    H249406   3.232   5.928   3.925  0.1057  0.8004 -0.2848
 9331TIP3   OH249407   2.235   0.228   5.677  0.5330  0.4546 -0.1562
 9331TIP3    H149408   2.224   0.164   5.607 -0.3119  1.4064 -0.9103
 9331TIP3    H249409   2.184   0.304   5.650  0.4882  0.9939  1.3144
 9332TIP3   OH249410   4.520   4.514  12.557 -0.1454 -0.2699  0.0093
 9332TIP3    H149411   4.593   4.556  12.603  0.5315 -1.0084 -0.3635
 9332TIP3    H249412   4.557   4.489  12.472 -1.3704  1.0961 -0.9759
 9333TIP3   OH249413   4.755   6.447   5.104 -0.0750 -0.4000  0.4105
 9333TIP3    H149414   4.805   6.527   5.093  1.3313 -0.7517  3.3292
 9333TIP3    H249415   4.663   6.475   5.098  0.3963  1.3224  0.7193
 9334TIP3   OH249416   3.438   3.428   4.777 -0.4494  0.7102 -0.2824
 9334TIP3    H149417   3.530   3.454   4.772 -0.6524  1.3285 -1.0275
 9334TIP3    H249418   3.429   3.358   4.712 -0.5817  0.9082 -0.4806
 9335TIP3   OH249419   6.374   1.687  14.195  0.3524  0.3187  0.1702
 9335TIP3    H149420   6.320   1.666  14.271  1.0526  1.0008  0.8710
 9335TIP3    H249421   6.464   1.685  14.228  0.5540  2.9041 -0.0672
 9336TIP3   OH249422   0.105   5.789  17.377 -0.2503 -0.2726 -0.2933
 9336TIP3    H149423   0.198   5.770  17.392 -0.2651 -1.1085 -1.1913
 9336TIP3    H249424   0.079   5.729  17.308 -0.7099  1.9716 -2.1802
 9337TIP3   OH249425   5.169   4.617   2.472 -0.7509  0.2470  0.2477
 9337TIP3    H149426   5.152   4.700   2.517 -2.8015  0.8038 -1.3963
 9337TIP3    H249427   5.094   4.562   2.494  0.0636 -0.8111  0.4561
 9338TIP3   OH249428   3.173   5.768   0.793  0.4950 -0.1389  0.8370
 9338TIP3    H149429   3.078   5.756   0.793  0.5800 -1.0581 -0.7847
 9338TIP3    H249430   3.197   5.763   0.885 -0.8647 -1.2949  1.1720
 9339TIP3   OH249431   4.865   6.669   4.993 -0.4060 -0.5035 -0.7512
 9339TIP3    H149432   4.866   6.636   4.903 -2.9658 -2.4794 -0.1690
 9339TIP3    H249433   4.786   6.723   4.998  0.0368  0.1054  0.1926
 9340TIP3   OH249434   3.306   3.311  15.298 -0.5860 -1.1658 -0.3760
 9340TIP3    H149435   3.334   3.385  15.245 -2.1277 -0.0213  0.3281
 9340TIP3    H249436   3.290   3.348  15.385 -1.4374 -2.3116 -0.0170
 9341TIP3   OH249437   0.420   5.545  12.836 -0.0211 -0.0788 -0.1874
 9341TIP3    H149438   0.443   5.632  12.804 -0.8130  0.2701  0.1553
 9341TIP3    H249439   0.429   5.550  12.931 -2.2592  0.3452  0.0542
 9342TIP3   OH249440   5.416   0.305  12.759  0.0112  0.3088  0.5367
 9342TIP3    H149441   5.431   0.236  12.694  0.4569  0.5180  0.4168
 9342TIP3    H249442   5.496   0.308  12.811  0.2362  1.1389  0.1637
 9343TIP3   OH249443   6.760   1.991  14.170 -0.0302 -0.1333 -0.0642
 9343TIP3    H149444   6.788   1.909  14.129  3.5295 -0.0321  1.7765
 9343TIP3    H249445   6.797   2.059  14.114  0.0134  0.1320  0.2871
 9344TIP3   OH249446   5.694   1.316  15.867  0.4426  0.1498 -0.1214
 9344TIP3    H149447   5.685   1.405  15.900  1.5812 -0.3049  1.5582
 9344TIP3    H249448   5.666   1.321  15.775 -0.3064  2.0392  0.1640
 9345TIP3   OH249449   6.577   1.246   5.866 -0.4394 -0.7443  0.0167
 9345TIP3    H149450   6.626   1.184   5.920  2.4088  0.7580 -0.6458
 9345TIP3    H249451   6.594   1.218   5.776  1.0253  0.9842 -0.2960
 9346TIP3   OH249452   2.502   3.005  12.642  0.0691 -0.4575 -0.1579
 9346TIP3    H149453   2.491   2.915  12.611  0.9709 -0.7787  0.4282
 9346TIP3    H249454   2.511   2.997  12.737  0.4918  0.2198 -0.1341
 9347TIP3   OH249455   2.551   4.978   0.550 -0.6950  0.5684  0.3044
 9347TIP3    H149456   2.507   4.915   0.607  0.3925 -1.1442 -0.6360
 9347TIP3    H249457   2.532   5.063   0.589 -3.6370 -0.1462  0.7081
 9348TIP3   OH249458   0.851   0.312  12.343  0.5986  0.1229  0.1480
 9348TIP3    H149459   0.936   0.269  12.335  0.2804 -0.2153 -2.1175
 9348TIP3    H249460   0.787   0.240  12.341  0.2088  0.4360  0.8341
 9349TIP3   OH249461   3.024   0.752  14.006  0.1785  0.2438  0.3365
 9349TIP3    H149462   3.104   0.718  14.046  0.6210  0.2266 -0.5468
 9349TIP3    H249463   3.003   0.829  14.058 -1.0315 -1.4769  2.5961
 9350TIP3   OH249464   4.234   1.390   2.132 -0.4149 -0.6705 -0.4921
 9350TIP3    H149465   4.241   1.472   2.180  1.1024 -0.1034 -1.6004
 9350TIP3    H249466   4.224   1.323   2.200 -0.3638  0.2990  0.4960
 9351TIP3   OH249467   1.016   3.599  14.242 -0.1058 -0.0278 -0.1621
 9351TIP3    H149468   1.060   3.582  14.326 -0.2408  1.3148  0.2093
 9351TIP3    H249469   0.927   3.564  14.254  0.6093 -2.1521 -0.6835
 9352TIP3   OH249470   0.587   3.532  15.333  0.7163  0.0947 -0.2975
 9352TIP3    H149471   0.568   3.457  15.390  0.9024 -0.2960 -0.7449
 9352TIP3    H249472   0.612   3.493  15.249  0.1306  0.6645 -0.7507
 9353TIP3   OH249473   0.947   3.983   2.574  0.4223 -0.4130  0.0729
 9353TIP3    H149474   0.864   3.942   2.551 -0.5177  1.1898  0.4701
 9353TIP3    H249475   1.014   3.920   2.545 -0.8818 -1.2521 -1.2306
 9354TIP3   OH249476   1.914   5.872   3.620 -0.1420 -0.4378  0.6545
 9354TIP3    H149477   1.930   5.785   3.584 -0.7778 -0.2661 -0.0621
 9354TIP3    H249478   1.943   5.866   3.711  0.8323 -1.0796  0.3222
 9355TIP3   OH249479   1.575   6.358   1.369  0.1382 -0.2609  0.5368
 9355TIP3    H149480   1.649   6.324   1.320 -1.0459 -2.2994  0.0176
 9355TIP3    H249481   1.509   6.289   1.363 -1.9669  1.6287  0.6040
 9356TIP3   OH249482   2.964   4.563  14.231 -0.0434  0.0815  0.0958
 9356TIP3    H149483   2.906   4.517  14.293 -1.3812 -0.8275 -1.7119
 9356TIP3    H249484   3.000   4.493  14.177  0.1239  0.9294 -0.9192
 9357TIP3   OH249485   6.589   1.186  17.142 -0.3979  0.4004 -0.2070
 9357TIP3    H149486   6.664   1.239  17.117  1.8779 -2.0732  0.8492
 9357TIP3    H249487   6.582   1.199  17.237 -2.1778  1.5735 -0.4638
 9358TIP3   OH249488   1.405   0.083   0.583  0.3323  0.3989 -0.4966
 9358TIP3    H149489   1.356   0.126   0.653 -1.2493  0.3858 -1.5437
 9358TIP3    H249490   1.484   0.136   0.572 -0.4277  1.6439 -0.1343
 9359TIP3   OH249491   1.458   0.240   5.157  0.0802 -0.4471  0.3397
 9359TIP3    H149492   1.544   0.224   5.195  0.8633  3.8543  0.8593
 9359TIP3    H249493   1.457   0.188   5.077  3.3956 -0.3208  0.0858
 9360TIP3   OH249494   2.950   5.588  14.285 -0.2905 -0.4286 -0.6766
 9360TIP3    H149495   2.906   5.576  14.369 -1.4739 -0.5432 -1.2926
 9360TIP3    H249496   2.886   5.634  14.230 -0.2171 -1.8444 -2.0447
 9361TIP3   OH249497   5.448   3.092  13.409  0.3607  0.1417  0.4674
 9361TIP3    H149498   5.460   3.180  13.373 -1.2356 -0.0412 -0.6640
 9361TIP3    H249499   5.361   3.066  13.377  1.8659 -2.9157 -1.5448
 9362TIP3   OH249500   2.910   2.745   0.175 -0.3426 -0.5248 -0.1145
 9362TIP3    H149501   2.884   2.758   0.084 -1.4832 -0.5926  0.1913
 9362TIP3    H249502   2.855   2.673   0.206  1.7023 -2.1544 -0.0513
 9363TIP3   OH249503   0.116   4.381   4.586 -0.4168 -0.2683 -0.6453
 9363TIP3    H149504   0.203   4.342   4.574 -0.2606  0.0483 -0.5611
 9363TIP3    H249505   0.124   4.430   4.668 -0.8541 -0.7267 -0.3267
 9364TIP3   OH249506   1.774   2.694   2.785  0.3514 -0.1018  0.1803
 9364TIP3    H149507   1.688   2.721   2.817  1.2115  3.0292  0.1984
 9364TIP3    H249508   1.761   2.676   2.692 -0.5243 -0.8678  0.4422
 9365TIP3   OH249509   3.576   0.007  17.081  0.4249 -0.0526  0.1889
 9365TIP3    H149510   3.605   0.017  16.990  0.4925  0.5799  0.2734
 9365TIP3    H249511   3.497   0.062  17.087  0.1027 -0.5293  0.3694
 9366TIP3   OH249512   4.653   0.176  13.986 -0.5486 -0.0589  0.0118
 9366TIP3    H149513   4.652   0.203  14.078 -1.0041 -0.5142  0.1465
 9366TIP3    H249514   4.570   0.129  13.974 -0.8320  0.6259 -0.8256
 9367TIP3   OH249515   2.010   1.879   2.687  0.2117  0.1435  0.4771
 9367TIP3    H149516   1.969   1.947   2.634 -0.9680  0.6496  1.9850
 9367TIP3    H249517   2.088   1.854   2.637  0.3566  2.1610 -0.4055
 9368TIP3   OH249518   6.090   0.036  14.118  1.0076  1.1753  0.2329
 9368TIP3    H149519   6.041   0.054  14.198 -1.2435 -0.2818 -0.7169
 9368TIP3    H249520   6.168  -0.012  14.148  0.2150  0.6823  1.5560
 9369TIP3   OH249521   0.091   6.143   4.674  0.2286 -0.0060  0.0647
 9369TIP3    H149522   0.059   6.215   4.619 -0.8743 -0.0469  0.6170
 9369TIP3    H249523   0.064   6.167   4.762 -0.1346 -1.0879  0.2574
 9370TIP3   OH249524   6.137   0.663   2.775  0.2698  0.7177  0.7530
 9370TIP3    H149525   6.073   0.604   2.815 -0.4712  0.7441 -0.3683
 9370TIP3    H249526   6.084   0.733   2.737  0.8200  0.0715 -1.3382
 9371TIP3   OH249527   0.375   4.936   5.444  0.1250 -0.1389  0.3181
 9371TIP3    H149528   0.450   4.995   5.432 -1.2197  1.6537  0.2969
 9371TIP3    H249529   0.388   4.898   5.531  0.9669  0.2679  0.3760
 9372TIP3   OH249530   0.113   4.373   0.877  0.1057 -0.9116  0.1698
 9372TIP3    H149531   0.075   4.461   0.882 -1.0535 -1.2745 -1.3675
 9372TIP3    H249532   0.059   4.327   0.812  0.6535 -2.7802  0.9557
 9373TIP3   OH249533   6.231   3.960  14.654 -0.2958  0.3129  0.2398
 9373TIP3    H149534   6.144   3.952  14.692 -0.5327 -0.2613 -0.3821
 9373TIP3    H249535   6.226   4.036  14.597 -1.1829 -1.1328 -1.7310
 9374TIP3   OH249536   5.528   1.646  14.336  0.1537 -0.2111 -0.4745
 9374TIP3    H149537   5.587   1.712  14.300 -3.8787  3.5731 -1.0508
 9374TIP3    H249538   5.491   1.601  14.260 -1.3494  1.0986 -0.5784
 9375TIP3   OH249539   0.874   4.381   2.987 -0.5376 -0.5529  0.4962
 9375TIP3    H149540   0.780   4.361   2.983 -0.3885 -1.2268  0.0508
 9375TIP3    H249541   0.905   4.332   3.063 -0.6342  0.0593  0.9290
 9376TIP3   OH249542   2.432   6.115   6.341  0.1729  0.1982  0.4767
 9376TIP3    H149543   2.466   6.171   6.272 -2.1634 -0.5347 -1.3973
 9376TIP3    H249544   2.485   6.035   6.334 -0.0405  0.1279 -0.4879
 9377TIP3   OH249545   4.178   5.897   0.092  0.3492 -0.4166  0.6557
 9377TIP3    H149546   4.224   5.880   0.174  1.1147  0.1250  0.3424
 9377TIP3    H249547   4.090   5.926   0.119  0.7887  0.3435  1.3042
 9378TIP3   OH249548   4.913   6.150  13.188  0.9250 -0.0827 -0.0735
 9378TIP3    H149549   4.879   6.165  13.099  0.6410  2.3901  0.3809
 9378TIP3    H249550   4.991   6.097  13.175  0.6408 -0.1476 -1.7476
 9379TIP3   OH249551   0.206   5.501  16.208 -0.0324  0.4541  0.3704
 9379TIP3    H149552   0.293   5.461  16.204 -0.4847 -0.4792 -1.9479
 9379TIP3    H249553   0.162   5.456  16.280  0.0184 -2.2198 -1.1364
 9380TIP3   OH249554   1.747   1.815  16.032 -0.4902 -0.0422 -0.6052
 9380TIP3    H149555   1.681   1.791  16.097  2.0064 -0.4654  1.9255
 9380TIP3    H249556   1.729   1.907  16.013 -0.4209  0.5189  1.8082
 9381TIP3   OH249557   6.048   1.899  15.792 -0.4637  0.1343  0.5994
 9381TIP3    H149558   6.083   1.934  15.711  0.4905 -1.6978  0.1663
 9381TIP3    H249559   6.104   1.935  15.861 -1.3235  1.7504  0.4923
 9382TIP3   OH249560   2.219   1.418   2.764 -0.3342 -0.7219  0.3190
 9382TIP3    H149561   2.274   1.472   2.822 -1.5795  0.1587  0.7285
 9382TIP3    H249562   2.195   1.342   2.817  0.6076 -1.1956  0.0812
 9383TIP3   OH249563   5.007   1.135   3.115 -0.6542  0.3632 -0.2604
 9383TIP3    H149564   4.948   1.061   3.130 -0.1251  0.2706  1.6708
 9383TIP3    H249565   4.949   1.209   3.097 -1.2494 -0.1866 -0.6459
 9384TIP3   OH249566   4.865   0.527   0.857 -0.1383  0.6555  0.4281
 9384TIP3    H149567   4.853   0.593   0.926 -0.7642  1.6358 -0.5686
 9384TIP3    H249568   4.953   0.493   0.871 -0.6655 -0.0495  2.4177
 9385TIP3   OH249569   4.029   4.069  14.904 -0.2779 -0.1457  0.2943
 9385TIP3    H149570   4.072   4.068  14.989 -0.0400  0.4471  0.1882
 9385TIP3    H249571   4.058   4.151  14.863 -2.8838  1.1858  0.9137
 9386TIP3   OH249572   2.298   0.138   3.439 -0.2106  0.0125 -0.1298
 9386TIP3    H149573   2.295   0.215   3.497 -1.3108 -0.7985  0.9393
 9386TIP3    H249574   2.263   0.170   3.356 -0.7113  0.6571  0.3158
 9387TIP3   OH249575   4.606   2.785   4.074  0.3012 -0.3914  0.0886
 9387TIP3    H149576   4.523   2.823   4.102 -0.8590 -0.6809 -2.6446
 9387TIP3    H249577   4.663   2.860   4.058  0.2498 -0.1450  0.9943
 9388TIP3   OH249578   4.637   1.383   5.223  0.3707  0.4315  0.0010
 9388TIP3    H149579   4.723   1.420   5.203  0.2138  0.5021 -0.5653
 9388TIP3    H249580   4.656   1.302   5.271  0.7926 -0.2111 -1.2056
 9389TIP3   OH249581   2.471   0.016  12.721 -0.1022 -0.1348 -0.3902
 9389TIP3    H149582   2.511   0.101  12.705 -2.7196  1.3157  0.2317
 9389TIP3    H249583   2.399   0.011  12.658  0.1067 -2.0061 -0.5475
 9390TIP3   OH249584   5.353   4.317  11.428 -0.3295 -0.4366  0.1969
 9390TIP3    H149585   5.374   4.301  11.336 -2.5722 -1.2683 -0.2274
 9390TIP3    H249586   5.358   4.230  11.468 -0.0271 -0.1809  0.7220
 9391TIP3   OH249587   2.202   2.394  12.064  1.1826  0.4184  0.1228
 9391TIP3    H149588   2.206   2.451  12.141 -0.5569  1.2410 -0.3318
 9391TIP3    H249589   2.184   2.307  12.099 -0.2967  0.9077  0.6530
 9392TIP3   OH249590   4.015   4.311   1.505  0.3086 -0.4922  0.5450
 9392TIP3    H149591   4.065   4.390   1.527 -0.2766 -0.3677  1.4889
 9392TIP3    H249592   3.949   4.342   1.442  1.1098 -0.5683 -0.3531
 9393TIP3   OH249593   4.892   1.725  12.729  0.3777 -0.4638 -0.4312
 9393TIP3    H149594   4.816   1.673  12.754  0.4097 -0.2128  0.1997
 9393TIP3    H249595   4.967   1.678  12.765  0.3703  0.2594  0.5800
 9394TIP3   OH249596   3.145   3.654   5.201  0.2884  0.3286 -0.1034
 9394TIP3    H149597   3.140   3.685   5.110  2.2697  2.6459  0.4578
 9394TIP3    H249598   3.235   3.674   5.228 -0.3465  0.0418  2.4840
 9395TIP3   OH249599   4.421   2.503   3.667  0.1541 -0.3695 -0.0401
 9395TIP3    H149600   4.476   2.520   3.743 -0.3967 -0.1969  0.3276
 9395TIP3    H249601   4.348   2.452   3.701  0.7803 -1.8202 -0.7700
 9396TIP3   OH249602   0.978   1.586   2.240  0.7977  0.4104  0.2499
 9396TIP3    H149603   0.962   1.504   2.194  0.8178  0.2246  0.5684
 9396TIP3    H249604   1.048   1.628   2.191  0.8053  0.2228  0.0988
 9397TIP3   OH249605   0.333   3.024  11.801  0.3553 -0.0729  0.0696
 9397TIP3    H149606   0.264   2.986  11.856  0.3748 -0.4278 -0.1461
 9397TIP3    H249607   0.396   3.060  11.863  0.1009  0.0294  0.2726
 9398TIP3   OH249608   6.396   2.860  10.915  0.1198 -0.6266 -0.3742
 9398TIP3    H149609   6.390   2.792  10.848  0.4860 -1.7926  0.7442
 9398TIP3    H249610   6.383   2.942  10.867  0.5641 -1.4117 -1.8978
 9399TIP3   OH249611   5.860   1.544  16.122 -0.3393 -0.7022 -0.3076
 9399TIP3    H149612   5.820   1.465  16.159  0.0714 -1.4687 -1.4747
 9399TIP3    H249613   5.904   1.514  16.043  0.4041  0.5850 -0.4016
 9400TIP3   OH249614   6.418   1.772  10.540  0.7365 -0.6190 -0.7206
 9400TIP3    H149615   6.513   1.785  10.539  0.9303 -1.2358  1.9836
 9400TIP3    H249616   6.391   1.799  10.628 -1.8724  0.9984 -1.8865
 9401TIP3   OH249617   2.927   4.277  13.967  0.3524  1.0735  0.3077
 9401TIP3    H149618   2.972   4.355  14.001  3.0107 -0.6779  1.1752
 9401TIP3    H249619   2.865   4.253  14.036  1.0373  1.2554  1.0056
 9402TIP3   OH249620   1.102   4.313  11.880 -0.5892 -0.5898 -0.7054
 9402TIP3    H149621   1.091   4.261  11.960 -1.3923 -0.0115 -0.4308
 9402TIP3    H249622   1.117   4.402  11.912  1.9316 -0.7880 -1.1334
 9403TIP3   OH249623   0.484   2.860  12.071  0.0975 -0.5500  0.0900
 9403TIP3    H149624   0.517   2.946  12.047  1.7035  0.2044  4.1732
 9403TIP3    H249625   0.398   2.876  12.109 -0.8092 -1.2108 -1.5717
 9404TIP3   OH249626   3.559   2.530  12.734  0.6101 -0.5076  0.2811
 9404TIP3    H149627   3.585   2.617  12.765  1.0263 -0.5495  0.0477
 9404TIP3    H249628   3.507   2.547  12.656  1.3994 -0.5049 -0.2515
 9405TIP3   OH249629   0.053   4.246   0.185  0.4713  0.2453 -0.1324
 9405TIP3    H149630   0.022   4.244   0.276 -1.4540 -0.5474 -0.7579
 9405TIP3    H249631   0.102   4.328   0.178  0.8267  0.2296  1.6627
 9406TIP3   OH249632   4.952   1.401   4.151 -0.4132  0.2367  0.7073
 9406TIP3    H149633   4.885   1.342   4.117  2.0519 -1.2542 -1.9556
 9406TIP3    H249634   5.033   1.350   4.150  1.0359  2.2077  2.9558
 9407TIP3   OH249635   5.803   6.209  14.532  0.2664  0.5187 -0.1059
 9407TIP3    H149636   5.830   6.150  14.462  2.6063 -0.2580  1.3299
 9407TIP3    H249637   5.745   6.157  14.587  2.2840 -0.5921  1.1288
 9408TIP3   OH249638   5.072   5.910  13.157 -0.2292 -0.1831 -0.0003
 9408TIP3    H149639   5.058   5.841  13.092 -0.0631 -0.0833 -0.1438
 9408TIP3    H249640   5.151   5.883  13.203  0.0147  0.0652 -0.2641
 9409TIP3   OH249641   0.258   2.964   3.663 -0.5637 -0.2675 -0.3815
 9409TIP3    H149642   0.288   2.892   3.608 -0.2659 -0.0606 -0.4929
 9409TIP3    H249643   0.218   2.921   3.738 -0.7346 -0.5494 -0.6334
 9410TIP3   OH249644   2.213   5.985  13.402 -0.0666  0.3246 -0.2609
 9410TIP3    H149645   2.163   5.954  13.327  0.2334 -0.8251  0.0027
 9410TIP3    H249646   2.241   5.906  13.447  1.2184  0.9640  0.1167
 9411TIP3   OH249647   3.866   4.931  12.647 -0.4772 -0.0383 -0.0901
 9411TIP3    H149648   3.878   4.843  12.614  0.5181  0.4094 -0.9814
 9411TIP3    H249649   3.929   4.940  12.717 -0.6287 -0.0576  0.0491
 9412TIP3   OH249650   0.963   6.717  11.449 -0.1689 -1.1379 -0.3076
 9412TIP3    H149651   0.907   6.665  11.507 -0.7509 -0.9975 -0.7411
 9412TIP3    H249652   0.925   6.706  11.362 -1.4574  1.4739 -0.1877
 9413TIP3   OH249653   3.875   3.890   2.268  0.9740  0.1408 -0.4231
 9413TIP3    H149654   3.845   3.904   2.178 -0.4542 -1.0042 -0.1475
 9413TIP3    H249655   3.926   3.810   2.264  1.6980  0.5887 -0.3665
 9414TIP3   OH249656   2.979   3.081   4.016 -0.1843 -0.4044 -0.0348
 9414TIP3    H149657   2.980   3.054   4.107 -1.5505 -0.0024  0.1160
 9414TIP3    H249658   3.003   3.174   4.018 -0.5906 -0.3003 -0.0532
 9415TIP3   OH249659   6.720   0.306  16.200  0.1432 -0.5095 -0.1105
 9415TIP3    H149660   6.666   0.354  16.137 -0.2778 -2.4744 -1.3335
 9415TIP3    H249661   6.804   0.351  16.199 -1.4036  2.8447  2.0801
 9416TIP3   OH249662   1.288   0.485   0.900 -0.5777 -0.4746  0.7355
 9416TIP3    H149663   1.223   0.416   0.896 -0.8964 -0.1672  0.5663
 9416TIP3    H249664   1.346   0.459   0.971 -0.1876 -1.3498  0.1142
 9417TIP3   OH249665   3.752   0.067  14.029  0.4698  0.4448  0.0065
 9417TIP3    H149666   3.745  -0.016  14.075  2.5246  0.6469  0.8240
 9417TIP3    H249667   3.831   0.058  13.975  1.0517  2.0173  0.5266
 9418TIP3   OH249668   3.259   1.031   3.215  0.0883  0.6863 -0.3835
 9418TIP3    H149669   3.276   0.947   3.173  1.0864  0.9893 -0.6117
 9418TIP3    H249670   3.169   1.025   3.245  0.0545 -0.3535 -0.6614
 9419TIP3   OH249671   2.032   5.304   2.854 -0.1570 -0.1171  0.2914
 9419TIP3    H149672   2.033   5.338   2.764  0.1735 -0.0667  0.3126
 9419TIP3    H249673   2.066   5.376   2.907 -1.6943  0.3732  0.6549
 9420TIP3   OH249674   2.215   4.104  14.028 -0.2052 -0.3679 -0.0675
 9420TIP3    H149675   2.140   4.158  14.003  0.0185  0.1611  0.3733
 9420TIP3    H249676   2.178   4.037  14.086 -0.5514 -0.9574 -0.9555
 9421TIP3   OH249677   0.981   5.031   1.321  0.6273 -0.1916 -0.1901
 9421TIP3    H149678   1.014   5.105   1.271  0.9672 -0.3608 -0.2157
 9421TIP3    H249679   0.894   5.014   1.284 -0.4341  1.6176  1.3063
 9422TIP3   OH249680   0.293   3.396  17.263 -0.7263 -0.3968 -0.0326
 9422TIP3    H149681   0.351   3.325  17.236 -1.9823 -1.2895 -0.5267
 9422TIP3    H249682   0.351   3.467  17.290  0.5745 -1.6109  0.4712
 9423TIP3   OH249683   6.472   6.157  11.840  0.6438 -0.0212  0.1159
 9423TIP3    H149684   6.431   6.096  11.779 -1.5976  2.0927 -0.6735
 9423TIP3    H249685   6.523   6.216  11.783  0.3489  0.6212  0.5063
 9424TIP3   OH249686   0.028   2.699   4.805  0.2082 -0.5427 -0.3321
 9424TIP3    H149687   0.108   2.721   4.758  0.3513  0.4846  0.3538
 9424TIP3    H249688   0.052   2.623   4.858  0.9721  0.2116  0.4400
 9425TIP3   OH249689   5.135   2.617   6.075 -0.1920 -0.4856  0.1630
 9425TIP3    H149690   5.191   2.661   6.140 -0.9521 -0.1629  0.6067
 9425TIP3    H249691   5.050   2.658   6.085 -0.4028 -0.6601 -0.8294
 9426TIP3   OH249692   0.400   0.916  17.217 -0.1656  0.0633 -0.1814
 9426TIP3    H149693   0.400   0.824  17.245  0.4130  0.2235  0.3740
 9426TIP3    H249694   0.332   0.957  17.271  0.3272  0.1817  0.3622
 9427TIP3   OH249695   2.980   5.484   4.509  0.0547 -0.2258  0.5156
 9427TIP3    H149696   3.065   5.474   4.467  0.6494 -0.8087  1.7909
 9427TIP3    H249697   2.922   5.425   4.460  0.3245  0.3072 -0.4704
 9428TIP3   OH249698   1.400   5.749  13.961 -0.5408  0.2099  0.5007
 9428TIP3    H149699   1.384   5.819  13.898  0.8478 -0.2473 -0.4049
 9428TIP3    H249700   1.473   5.781  14.014  0.0577 -0.5125  0.1269
 9429TIP3   OH249701   0.126   6.137  12.744 -0.3848  0.6430 -0.2130
 9429TIP3    H149702   0.089   6.189  12.672  0.9108 -0.2500 -1.5692
 9429TIP3    H249703   0.165   6.061  12.702 -0.8811 -0.6874  1.5955
 9430TIP3   OH249704   2.157   0.256   4.929 -0.2087 -0.0903  0.4380
 9430TIP3    H149705   2.193   0.326   4.875 -0.9218 -1.9756 -2.7747
 9430TIP3    H249706   2.233   0.213   4.967  0.6414 -0.6527 -1.7655
 9431TIP3   OH249707   0.065   3.677  13.024  0.4558 -0.2132 -0.8167
 9431TIP3    H149708   0.064   3.721  13.109 -0.1094  0.7295 -1.2921
 9431TIP3    H249709   0.063   3.748  12.960  2.5331 -0.8479 -1.6578
 9432TIP3   OH249710   6.749   5.030  13.944 -0.3015 -0.0713  0.6750
 9432TIP3    H149711   6.654   5.024  13.960 -0.7689  2.0376 -0.8754
 9432TIP3    H249712   6.764   4.971  13.870 -0.4861 -0.0199  0.5949
 9433TIP3   OH249713   1.523   0.813   0.099 -0.3484 -0.2005 -0.0169
 9433TIP3    H149714   1.467   0.856   0.034 -0.1124  1.2460  0.7009
 9433TIP3    H249715   1.507   0.720   0.085  0.2943 -0.0066 -2.6876
 9434TIP3   OH249716   5.046   0.628   5.294  0.3658  0.0431  0.7779
 9434TIP3    H149717   5.119   0.630   5.233 -1.3280  1.4694 -1.3372
 9434TIP3    H249718   5.068   0.694   5.359  1.0597  0.2622  0.3333
 9435TIP3   OH249719   3.222   5.371   5.613  0.1248  0.4209  0.2498
 9435TIP3    H149720   3.284   5.438   5.645  0.1365  0.4869  0.0882
 9435TIP3    H249721   3.278   5.298   5.587  0.0823  0.1621  0.8717
 9436TIP3   OH249722   1.656   1.832   4.351  0.4429 -0.2025  0.4462
 9436TIP3    H149723   1.700   1.788   4.424 -0.0889 -0.1048  0.8328
 9436TIP3    H249724   1.712   1.907   4.330  0.3324  0.0637  1.0982
 9437TIP3   OH249725   3.709   4.450   6.543  0.6970 -0.4202 -0.3157
 9437TIP3    H149726   3.650   4.377   6.526  0.5341 -0.5622  0.7561
 9437TIP3    H249727   3.759   4.423   6.621  1.5835  0.0504 -0.7075
 9438TIP3   OH249728   5.732   4.580   0.270  0.6081 -0.5663  0.4378
 9438TIP3    H149729   5.679   4.646   0.315 -0.2920 -0.6664 -0.4272
 9438TIP3    H249730   5.696   4.578   0.181  1.8130 -0.9408 -0.0599
 9439TIP3   OH249731   4.081   4.202   1.142  0.2272 -0.5614 -0.5952
 9439TIP3    H149732   4.128   4.274   1.184 -1.9510  1.4108 -1.2925
 9439TIP3    H249733   4.023   4.245   1.079 -1.8375 -2.8711 -0.4344
 9440TIP3   OH249734   3.160   0.475  11.734 -0.3941 -0.7814  0.6679
 9440TIP3    H149735   3.113   0.506  11.812 -1.0587  1.2695 -0.4721
 9440TIP3    H249736   3.097   0.484  11.663  0.8765 -0.5464 -0.4624
 9441TIP3   OH249737   4.407   0.801   3.266  0.4464 -0.0470 -0.1661
 9441TIP3    H149738   4.363   0.783   3.349 -0.8895  0.0044 -0.8287
 9441TIP3    H249739   4.353   0.869   3.225 -2.1737 -3.6412 -3.4344
 9442TIP3   OH249740   5.411   4.566   2.347 -0.2056 -0.3831 -0.1041
 9442TIP3    H149741   5.340   4.606   2.396  0.8039  1.0150  0.2860
 9442TIP3    H249742   5.369   4.527   2.270 -1.3110  1.0915 -0.2932
 9443TIP3   OH249743   6.127   3.603   2.988 -0.0574  0.4339 -0.0160
 9443TIP3    H149744   6.161   3.680   2.943  1.3089 -0.6755 -0.9717
 9443TIP3    H249745   6.037   3.626   3.010  0.0700  1.9971 -0.9686
 9444TIP3   OH249746   5.077   6.060  13.832  0.2973 -0.0149 -0.7473
 9444TIP3    H149747   5.008   6.059  13.899 -0.6969 -0.5433 -1.7316
 9444TIP3    H249748   5.121   5.976  13.842  1.9885  1.0006  1.0075
 9445TIP3   OH249749   3.464   2.843  14.721 -0.3030 -0.3842  0.2555
 9445TIP3    H149750   3.533   2.792  14.764 -0.1450 -0.4965 -0.1265
 9445TIP3    H249751   3.494   2.852  14.631  0.7393  2.2857  0.7931
 9446TIP3   OH249752   5.571   3.446   0.422 -0.3947 -0.2896  0.4460
 9446TIP3    H149753   5.607   3.367   0.462 -1.4527 -0.9810  0.1000
 9446TIP3    H249754   5.523   3.413   0.345 -0.3862  0.7525 -0.0207
 9447TIP3   OH249755   5.572   5.801  12.217 -0.0662 -0.5015  0.1886
 9447TIP3    H149756   5.604   5.845  12.295 -2.5807  1.4927  0.2012
 9447TIP3    H249757   5.651   5.783  12.166  1.4793 -0.3288  2.3616
 9448TIP3   OH249758   2.128   1.522  12.388 -0.3692 -0.2213  0.2211
 9448TIP3    H149759   2.107   1.567  12.306 -0.0854  1.4864  1.0499
 9448TIP3    H249760   2.178   1.445  12.360 -3.5020 -1.8477 -1.4627
 9449TIP3   OH249761   1.292   1.858   1.448  0.2379 -0.2208 -0.6324
 9449TIP3    H149762   1.282   1.951   1.426 -1.0808 -0.6191 -1.9272
 9449TIP3    H249763   1.291   1.855   1.543  0.1798  1.0890 -0.5733
 9450TIP3   OH249764   6.688   4.897  11.929  0.2312  0.2684  0.1032
 9450TIP3    H149765   6.642   4.882  11.846 -1.1692  1.8222  0.5529
 9450TIP3    H249766   6.679   4.814  11.976 -0.3620 -0.1081 -0.6342
 9451TIP3   OH249767   0.560   1.716   4.981 -0.5011 -0.3546 -0.1990
 9451TIP3    H149768   0.567   1.709   5.076  0.7129 -0.6513 -0.2928
 9451TIP3    H249769   0.588   1.630   4.949 -1.3580 -0.4163 -0.8173
 9452TIP3   OH249770   6.592   2.576  12.295 -0.4978  0.3798  0.5291
 9452TIP3    H149771   6.547   2.655  12.326 -2.0019 -0.8891  1.7720
 9452TIP3    H249772   6.651   2.553  12.366 -0.1416  0.3201  0.2134
 9453TIP3   OH249773   3.728   5.824   6.357  0.1883 -0.3393 -0.2027
 9453TIP3    H149774   3.803   5.821   6.417  1.4941  1.4261 -1.6643
 9453TIP3    H249775   3.686   5.908   6.375 -0.1189 -0.3316 -0.9328
 9454TIP3   OH249776   0.189   6.117  15.720 -0.3014 -0.2932  0.5699
 9454TIP3    H149777   0.186   6.043  15.781  0.6734  0.6440  1.8107
 9454TIP3    H249778   0.136   6.184  15.763 -1.2469 -0.2711 -0.5871
 9455TIP3   OH249779   3.674   5.394  16.383 -1.2076 -0.1290 -0.1674
 9455TIP3    H149780   3.634   5.380  16.298 -1.0026 -1.2568 -0.0919
 9455TIP3    H249781   3.737   5.323  16.392 -0.2144  0.7698  0.3356
 9456TIP3   OH249782   3.274   6.582   0.953  0.5607 -0.2397  0.0622
 9456TIP3    H149783   3.238   6.653   1.007 -0.0660 -0.8487  0.4611
 9456TIP3    H249784   3.350   6.550   1.002  0.9349  0.2459 -0.1919
 9457TIP3   OH249785   3.447   0.124  16.442 -0.1079 -0.4063  0.1235
 9457TIP3    H149786   3.442   0.163  16.355 -1.0015  0.7459  0.6602
 9457TIP3    H249787   3.377   0.058  16.443  0.8032 -1.4181 -0.4717
 9458TIP3   OH249788   0.332   0.555   4.928 -0.0557 -0.6792 -0.3934
 9458TIP3    H149789   0.319   0.490   4.997 -1.0356 -0.0993 -0.0129
 9458TIP3    H249790   0.329   0.505   4.847 -0.6047 -1.1407 -0.0943
 9459TIP3   OH249791   1.792   5.074   4.539  0.0307 -0.0641  0.4888
 9459TIP3    H149792   1.754   5.130   4.607  0.0936  1.7631 -0.8812
 9459TIP3    H249793   1.885   5.068   4.563 -0.0656  0.0263  0.8975
 9460TIP3   OH249794   5.673   2.494  12.669  0.5213  0.0241 -0.1765
 9460TIP3    H149795   5.702   2.419  12.617  2.3521  0.1011  0.6507
 9460TIP3    H249796   5.581   2.477  12.687  1.3690 -3.2057  1.9107
 9461TIP3   OH249797   4.611   1.901   0.508 -0.0005  0.2307  0.0033
 9461TIP3    H149798   4.602   1.841   0.434 -1.3437  0.3212  0.0815
 9461TIP3    H249799   4.546   1.969   0.493 -0.1640  0.3592  1.1674
 9462TIP3   OH249800   3.967   5.379  13.890 -0.5623  0.1773  0.1526
 9462TIP3    H149801   3.970   5.345  13.801  0.5115  0.2025  0.1645
 9462TIP3    H249802   3.988   5.304  13.945  0.1973  0.4764  0.2812
 9463TIP3   OH249803   1.159   4.804   0.116  0.1819 -0.0730 -0.9049
 9463TIP3    H149804   1.237   4.857   0.101  0.5259 -0.3547 -0.1688
 9463TIP3    H249805   1.188   4.735   0.176 -0.7906  0.2307 -0.0536
 9464TIP3   OH249806   5.550   5.967   2.008  0.1819 -0.1111 -0.3512
 9464TIP3    H149807   5.570   6.004   2.094 -2.2551  0.7459 -0.0821
 9464TIP3    H249808   5.461   5.934   2.015 -0.0316 -0.1838 -2.5039
 9465TIP3   OH249809   2.409   6.092  13.181 -0.4555  0.0218  0.3414
 9465TIP3    H149810   2.484   6.034  13.166  0.9397  1.4178  1.4443
 9465TIP3    H249811   2.380   6.071  13.270 -1.0271 -0.1472  0.1129
 9466TIP3   OH249812   4.567   4.843  14.179 -0.2074  0.4660 -0.0648
 9466TIP3    H149813   4.488   4.826  14.129 -1.0382  0.0948  1.3083
 9466TIP3    H249814   4.568   4.775  14.246  1.6385  0.0783 -0.4547
 9467TIP3   OH249815   2.227   3.625   2.778 -0.0865  0.0926 -0.3947
 9467TIP3    H149816   2.254   3.661   2.694 -0.9073  2.1054  0.1513
 9467TIP3    H249817   2.182   3.697   2.822 -0.1100 -1.0525  1.5741
 9468TIP3   OH249818   5.965   1.861  17.244  0.1197 -0.2226  0.4968
 9468TIP3    H149819   6.054   1.850  17.210  0.0062  0.0679  0.1126
 9468TIP3    H249820   5.979   1.887  17.336  0.4144 -2.0576  1.0187
 9469TIP3   OH249821   6.583   4.816  17.179 -0.2986 -0.3797  0.8765
 9469TIP3    H149822   6.530   4.817  17.258 -1.4729 -0.0357  0.1164
 9469TIP3    H249823   6.669   4.788  17.208 -0.7303 -0.3530  2.2534
 9470TIP3   OH249824   0.823   4.120  16.918  0.1664  0.2106  0.1413
 9470TIP3    H149825   0.761   4.049  16.937  1.0254 -0.4931  0.3482
 9470TIP3    H249826   0.874   4.088  16.843 -1.4562  1.8873 -1.8017
 9471TIP3   OH249827   1.496   3.155  15.062  0.1116 -0.4247 -0.1307
 9471TIP3    H149828   1.430   3.113  15.006  0.1818  0.3927 -0.8482
 9471TIP3    H249829   1.445   3.197  15.131 -0.2645  1.1084 -1.2650
 9472TIP3   OH249830   0.231   4.344  11.534  0.5705 -0.7892  0.4531
 9472TIP3    H149831   0.242   4.341  11.439  2.0364 -2.4971  0.6086
 9472TIP3    H249832   0.312   4.384  11.566  0.3831 -0.8593  1.0214
 9473TIP3   OH249833   5.236   1.805   2.378  0.0219  0.3217 -0.5624
 9473TIP3    H149834   5.312   1.755   2.346  0.2565  0.4390 -0.1963
 9473TIP3    H249835   5.274   1.873   2.433 -0.4548 -1.1919  1.7946
 9474TIP3   OH249836   6.562   2.630  13.323  0.2689 -0.0948 -0.1998
 9474TIP3    H149837   6.642   2.672  13.355 -0.9899  1.7201  0.7009
 9474TIP3    H249838   6.502   2.631  13.398 -0.7938 -0.9277 -1.0067
 9475TIP3   OH249839   6.671   3.575  16.490 -0.3096  0.0902  0.4432
 9475TIP3    H149840   6.732   3.617  16.429 -0.7022 -0.4775 -0.3523
 9475TIP3    H249841   6.709   3.591  16.577 -1.3281  3.5683  0.3721
 9476TIP3   OH249842   2.745   1.788  14.821  0.3000  0.2074  0.0566
 9476TIP3    H149843   2.782   1.871  14.792  3.2975 -0.9600  0.2144
 9476TIP3    H249844   2.705   1.751  14.743  1.7419  0.4305 -0.8276
 9477TIP3   OH249845   0.236   0.798   4.330 -0.0285  0.4363  0.1023
 9477TIP3    H149846   0.292   0.749   4.391  2.0234  1.6362 -0.7132
 9477TIP3    H249847   0.218   0.880   4.376 -0.0478  0.5758 -0.1544
 9478TIP3   OH249848   2.526   3.452  13.301  0.0381 -0.4007 -0.1100
 9478TIP3    H149849   2.431   3.449  13.287 -0.0867 -0.5952  0.7219
 9478TIP3    H249850   2.545   3.546  13.309 -0.0795 -0.3612 -0.2679
 9479TIP3   OH249851   4.404   5.189   2.395  0.0170  0.5278 -0.0300
 9479TIP3    H149852   4.360   5.154   2.473 -0.3553  0.7729 -0.1286
 9479TIP3    H249853   4.431   5.277   2.420  0.8681  0.2180  0.1845
 9480TIP3   OH249854   0.249   0.151   0.916  0.3475 -0.2125 -0.2923
 9480TIP3    H149855   0.299   0.230   0.938  1.2615 -1.1842  1.2652
 9480TIP3    H249856   0.159   0.172   0.942 -0.1026  1.4172 -2.7858
 9481TIP3   OH249857   3.517   4.245   5.186  0.1256  0.8676 -0.2676
 9481TIP3    H149858   3.532   4.151   5.183  0.4453  0.9444 -1.5814
 9481TIP3    H249859   3.484   4.267   5.099 -2.3452  1.6066  0.7511
 9482TIP3   OH249860   0.395   1.763  12.733  0.2998  0.2314  0.1988
 9482TIP3    H149861   0.488   1.774  12.709  0.5830  1.7485  1.7693
 9482TIP3    H249862   0.380   1.830  12.800 -2.0753  0.3233 -0.3483
 9483TIP3   OH249863   2.700   3.102   3.684 -0.7363  0.1950 -0.2653
 9483TIP3    H149864   2.683   3.174   3.745 -1.0622 -0.1398  0.0421
 9483TIP3    H249865   2.702   3.024   3.740  1.1365  0.1242 -0.3739
 9484TIP3   OH249866   3.687   3.184  11.267 -0.1716  0.2601 -0.5723
 9484TIP3    H149867   3.632   3.213  11.339 -0.1431 -0.3257 -0.3074
 9484TIP3    H249868   3.667   3.090  11.257 -0.5510  0.4388 -1.6570
 9485TIP3   OH249869   6.284   1.849  13.125 -0.1159 -0.5651  0.4882
 9485TIP3    H149870   6.281   1.776  13.063 -2.9378 -1.5094  1.5476
 9485TIP3    H249871   6.254   1.925  13.075  0.7565 -0.5874 -0.0808
 9486TIP3   OH249872   0.913   5.060  11.816  0.0123 -0.0219  0.8612
 9486TIP3    H149873   0.852   4.994  11.850  0.0486  0.6361  2.2688
 9486TIP3    H249874   0.877   5.083  11.730 -0.9902 -0.5932  1.1066
 9487TIP3   OH249875   1.052   2.244  16.217  0.5931 -0.5981  0.1204
 9487TIP3    H149876   1.024   2.169  16.269  1.1697 -0.0462  1.2512
 9487TIP3    H249877   0.973   2.299  16.210  0.3261 -1.0153 -0.2121
 9488TIP3   OH249878   3.781   1.182  17.231 -0.3024 -0.1652  0.2069
 9488TIP3    H149879   3.788   1.141  17.145 -0.9401 -1.6858  0.8464
 9488TIP3    H249880   3.859   1.153  17.278 -0.4506 -0.1307  0.4743
 9489TIP3   OH249881   0.338   1.375  14.165  0.0227  0.2004 -0.1593
 9489TIP3    H149882   0.366   1.340  14.250  1.5921  0.9643 -0.3249
 9489TIP3    H249883   0.406   1.437  14.141 -2.0058  2.4313 -0.5062
 9490TIP3   OH249884   3.639   4.656   5.847 -0.6652 -0.6243 -0.3884
 9490TIP3    H149885   3.644   4.752   5.857 -1.9573 -0.5376 -0.3976
 9490TIP3    H249886   3.638   4.623   5.937  0.3667 -0.6847 -0.3849
 9491TIP3   OH249887   0.234   2.421   2.720 -0.6759 -0.1572  0.0992
 9491TIP3    H149888   0.140   2.439   2.716 -0.6412 -0.1812 -0.9956
 9491TIP3    H249889   0.275   2.497   2.681 -0.3063 -0.6623 -0.5100
 9492TIP3   OH249890   1.062   5.381  13.538  0.1681 -0.3635 -0.2904
 9492TIP3    H149891   1.100   5.330  13.610  1.2746 -1.4373 -1.5705
 9492TIP3    H249892   1.058   5.470  13.571 -1.1947 -1.1193  1.7879
 9493TIP3   OH249893   4.427   3.932  10.969  0.4503 -0.1106  0.0121
 9493TIP3    H149894   4.444   4.026  10.957 -1.3043  0.1050 -1.0603
 9493TIP3    H249895   4.430   3.896  10.881  2.2234 -1.3123  0.5193
 9494TIP3   OH249896   4.167   4.858   1.164  0.1723 -0.6918 -0.3084
 9494TIP3    H149897   4.248   4.862   1.215  0.1302 -1.5855 -0.1591
 9494TIP3    H249898   4.123   4.779   1.195 -1.7485  0.8034  1.0584
 9495TIP3   OH249899   4.320   3.337   4.329  0.1472 -0.0854 -0.2264
 9495TIP3    H149900   4.391   3.388   4.368 -0.4898  0.4300  0.2816
 9495TIP3    H249901   4.307   3.377   4.243 -0.0695  0.3548  0.0044
 9496TIP3   OH249902   0.098   5.946  14.568 -0.2288  0.0036 -0.0040
 9496TIP3    H149903   0.122   5.982  14.653  0.1046 -0.0127 -0.0889
 9496TIP3    H249904   0.002   5.938  14.571 -0.4523  2.0720 -0.4526
 9497TIP3   OH249905   1.985   5.402  11.769  0.0048  0.1077 -0.1691
 9497TIP3    H149906   2.073   5.365  11.776  0.8963  1.6888 -1.9929
 9497TIP3    H249907   1.967   5.439  11.855  0.6133 -1.2370  0.5674
 9498TIP3   OH249908   3.402   5.047   1.395 -0.1572  0.4857 -0.3797
 9498TIP3    H149909   3.444   5.083   1.317 -0.1512 -0.3591 -0.7764
 9498TIP3    H249910   3.404   5.118   1.459  0.4147  0.9758 -0.9377
 9499TIP3   OH249911   1.893   3.682  14.216  0.1229 -0.0105 -0.1714
 9499TIP3    H149912   1.811   3.672  14.265  0.1307 -2.6785 -0.5404
 9499TIP3    H249913   1.961   3.650  14.277  0.5975  0.1477 -0.6123
 9500TIP3   OH249914   0.869   1.242   4.692 -0.4147 -0.4100  0.2799
 9500TIP3    H149915   0.893   1.236   4.599 -2.0961  0.0803 -0.2226
 9500TIP3    H249916   0.892   1.332   4.716  0.4369 -0.6743  0.4716
 9501TIP3   OH249917   3.822   1.811   4.965  0.2415 -0.6394 -0.3488
 9501TIP3    H149918   3.730   1.826   4.988  0.8483  0.0801  1.8057
 9501TIP3    H249919   3.834   1.716   4.975 -0.3761 -0.8255 -1.2158
 9502TIP3   OH249920   2.978   5.762  12.014  0.0808  0.1572  0.4801
 9502TIP3    H149921   2.948   5.821  12.083  3.4457  1.8289  0.7179
 9502TIP3    H249922   3.073   5.763  12.021  0.4345 -2.1209 -2.1976
 9503TIP3   OH249923   2.872   3.091   5.147  0.4665  0.1129 -0.2953
 9503TIP3    H149924   2.814   3.016   5.142 -0.0842  0.5134  0.0500
 9503TIP3    H249925   2.937   3.075   5.078 -0.3202 -0.1120 -1.0057
 9504TIP3   OH249926   3.052   5.849   3.969 -0.1945  0.2818  0.1774
 9504TIP3    H149927   3.008   5.807   4.043 -0.2113  0.1886  0.1136
 9504TIP3    H249928   3.033   5.793   3.894 -1.5015  1.1939 -0.2101
 9505TIP3   OH249929   6.153   6.471  16.122 -0.4664  0.2519 -0.1305
 9505TIP3    H149930   6.221   6.467  16.054  0.4944 -0.6746  0.8499
 9505TIP3    H249931   6.190   6.529  16.188  0.0782 -1.4254  1.1090
 9506TIP3   OH249932   0.295   2.016   4.453  0.1370 -0.3822 -0.3541
 9506TIP3    H149933   0.361   2.082   4.471 -1.3874  0.9525  0.5505
 9506TIP3    H249934   0.213   2.064   4.448 -1.1172 -2.2620  0.8957
 9507TIP3   OH249935   0.043   5.220   0.581  0.0333  0.1728 -0.1640
 9507TIP3    H149936   0.098   5.283   0.628  0.6294 -0.2965 -0.2215
 9507TIP3    H249937  -0.040   5.267   0.566  0.6533  1.1495 -0.7016
 9508TIP3   OH249938   4.116   1.734   0.672  0.6522 -0.6147  0.8321
 9508TIP3    H149939   4.106   1.828   0.652  0.1308 -0.7202  0.5854
 9508TIP3    H249940   4.111   1.730   0.768  1.1698 -0.3359  0.8759
 9509TIP3   OH249941   1.936   0.650  12.218  0.1240 -0.2786  0.0714
 9509TIP3    H149942   1.894   0.680  12.137  1.9940  1.1470 -0.4454
 9509TIP3    H249943   2.028   0.638  12.194  0.5796 -0.5379  1.8151
 9510TIP3   OH249944   2.760   2.878  13.409  0.3808 -0.7542 -0.1908
 9510TIP3    H149945   2.667   2.862  13.393 -0.5695  1.5955  2.3291
 9510TIP3    H249946   2.786   2.809  13.471 -0.4062  0.1008  1.1194
 9511TIP3   OH249947   0.015   2.699   4.504  0.0613 -0.4194  0.2342
 9511TIP3    H149948   0.042   2.791   4.500 -0.3429 -0.2942  0.3644
 9511TIP3    H249949  -0.027   2.690   4.589 -2.1125 -0.0992 -0.7340
 9512TIP3   OH249950   5.737   1.662   2.544  0.3491  0.1688 -0.0783
 9512TIP3    H149951   5.775   1.685   2.629  0.2470  0.3947 -0.0940
 9512TIP3    H249952   5.809   1.622   2.495  0.2823 -0.4324  0.2977
 9513TIP3   OH249953   0.322   3.272  15.992 -0.1631 -0.1484 -0.3378
 9513TIP3    H149954   0.376   3.313  15.924 -2.2255  4.2200  0.2791
 9513TIP3    H249955   0.368   3.293  16.074 -0.4296 -0.5357 -0.0900
 9514TIP3   OH249956   4.104   1.993   0.643  0.4523  0.0718 -0.1170
 9514TIP3    H149957   4.043   1.981   0.570 -0.7843 -0.7868  0.9993
 9514TIP3    H249958   4.114   2.088   0.651  0.3211  0.1812 -1.1683
 9515TIP3   OH249959   1.593   4.466   3.976  0.1456  0.2615 -0.3853
 9515TIP3    H149960   1.583   4.435   3.886  0.6860  0.8147 -0.6461
 9515TIP3    H249961   1.615   4.558   3.967  1.9265 -0.0591  0.2337
 9516TIP3   OH249962   2.897   0.567  12.641 -0.0775  0.0195  0.3015
 9516TIP3    H149963   2.890   0.481  12.598 -1.2284 -0.0365  0.5735
 9516TIP3    H249964   2.983   0.565  12.683  0.2286 -0.7049 -0.3215
 9517TIP3   OH249965   5.974   0.187  12.736 -0.0117  0.3962  0.1954
 9517TIP3    H149966   5.907   0.166  12.672  1.0445 -2.2211 -0.1951
 9517TIP3    H249967   6.037   0.241  12.689  0.0131 -0.2765 -0.5589
 9518TIP3   OH249968   5.419   4.299   2.811 -0.0083 -0.3479  0.0641
 9518TIP3    H149969   5.443   4.377   2.861  0.5801 -0.3836 -0.1604
 9518TIP3    H249970   5.398   4.333   2.723  1.1110 -0.5370 -0.2882
 9519TIP3   OH249971   5.396   5.323   3.226 -0.1629  0.0702  0.4126
 9519TIP3    H149972   5.476   5.310   3.275  1.4796  1.6616 -1.6434
 9519TIP3    H249973   5.406   5.269   3.148 -0.5347  1.1388 -0.4140
 9520TIP3   OH249974   0.568   3.535   0.231 -0.1675  0.3706  0.0140
 9520TIP3    H149975   0.614   3.579   0.302 -1.0415  1.5968 -0.1430
 9520TIP3    H249976   0.610   3.567   0.151  0.8162 -1.0069 -0.0487
 9521TIP3   OH249977   6.571   0.929  17.040 -0.0906 -0.1993 -0.4221
 9521TIP3    H149978   6.556   1.022  17.061 -0.5823 -1.0024  3.5583
 9521TIP3    H249979   6.665   0.923  17.024  0.7004  0.5319  3.1611
 9522TIP3   OH249980   3.519   3.743  16.609  0.7999 -0.3143 -0.0017
 9522TIP3    H149981   3.612   3.767  16.608  0.5625  0.8511  1.6264
 9522TIP3    H249982   3.473   3.826  16.623 -0.4202 -1.0119  0.2723
 9523TIP3   OH249983   2.901   4.723   2.530  0.2663 -0.4277  0.1382
 9523TIP3    H149984   2.950   4.795   2.489 -1.0446  0.8427  0.7125
 9523TIP3    H249985   2.815   4.726   2.488  0.5363 -2.4639 -0.6754
 9524TIP3   OH249986   3.835   6.646   3.629 -0.1139  0.1498 -0.1712
 9524TIP3    H149987   3.871   6.688   3.551 -0.5235  0.8868  0.0313
 9524TIP3    H249988   3.748   6.617   3.603 -0.7164  1.4409  0.3411
 9525TIP3   OH249989   5.271   1.409   6.340 -0.1716 -0.1510 -0.1554
 9525TIP3    H149990   5.175   1.413   6.345 -0.1896 -1.4175  1.0528
 9525TIP3    H249991   5.300   1.422   6.431  0.7191 -1.5884 -0.2120
 9526TIP3   OH249992   2.705   0.759  13.376  0.3523  0.1675 -0.9069
 9526TIP3    H149993   2.653   0.794  13.304  0.4550 -0.5984 -1.3658
 9526TIP3    H249994   2.784   0.813  13.378  0.9952 -0.6539 -2.2845
 9527TIP3   OH249995   4.423   5.867  14.406 -0.5337  0.0469  0.8550
 9527TIP3    H149996   4.454   5.930  14.472 -0.7636 -0.7650  1.7605
 9527TIP3    H249997   4.339   5.837  14.440 -0.2413 -1.0415  0.6425
 9528TIP3   OH249998   5.354   1.879   5.104  0.1135 -0.4044  0.0410
 9528TIP3    H149999   5.295   1.853   5.175  0.3339  0.7034  0.6608
 9528TIP3    H250000   5.297   1.923   5.041  0.0237 -0.7954 -0.1538
 9529TIP3   OH250001   6.693   4.606   0.045 -0.3957  0.1905  0.0890
 9529TIP3    H150002   6.684   4.602   0.140  1.1837  0.2825  0.2755
 9529TIP3    H250003   6.718   4.696   0.027 -0.3062  0.0801 -0.3588
 9530TIP3   OH250004   5.229   4.817   4.053  0.0082  0.1486 -0.4041
 9530TIP3    H150005   5.136   4.812   4.028 -0.6125  1.3444  1.5056
 9530TIP3    H250006   5.251   4.909   4.043  0.3571  0.2613  1.2028
 9531TIP3   OH250007   6.516   3.855   1.081 -0.0479 -0.3827  0.4414
 9531TIP3    H150008   6.492   3.854   1.173  0.1450 -0.6423  0.4928
 9531TIP3    H250009   6.602   3.896   1.079 -0.4466  0.4608  0.2693
 9532TIP3   OH250010   5.109   5.518  15.008 -0.3132  0.2260 -0.1395
 9532TIP3    H150011   5.175   5.486  14.947  0.0952 -0.2166  0.5130
 9532TIP3    H250012   5.158   5.576  15.067 -0.8779  1.3731 -0.7746
 9533TIP3   OH250013   2.486   4.526   2.231  0.2264  0.1928  0.6048
 9533TIP3    H150014   2.406   4.519   2.180 -1.1277  0.7576  2.5567
 9533TIP3    H250015   2.510   4.436   2.251  0.0426  0.0248  0.0767
 9534TIP3   OH250016   4.717   0.591  13.982  0.5265  0.2049  0.0792
 9534TIP3    H150017   4.727   0.544  14.065 -0.0655 -2.1352 -1.0887
 9534TIP3    H250018   4.731   0.525  13.915 -1.5599  1.4165 -1.6827
 9535TIP3   OH250019   1.376   4.183   1.609  0.0167 -0.3537 -0.2079
 9535TIP3    H150020   1.452   4.179   1.667  1.1975  3.0480 -1.2973
 9535TIP3    H250021   1.410   4.161   1.523 -0.5644 -0.2737 -0.4633
 9536TIP3   OH250022   0.372   0.756   3.558  0.1232  0.1207 -0.0290
 9536TIP3    H150023   0.347   0.693   3.626 -0.5341  0.2964 -0.1016
 9536TIP3    H250024   0.406   0.831   3.606 -0.6185  0.3644  0.1229
 9537TIP3   OH250025   5.940   3.724   4.774  0.4040  0.2821 -0.6420
 9537TIP3    H150026   6.015   3.665   4.780 -0.1498 -0.6056 -2.0468
 9537TIP3    H250027   5.934   3.763   4.861  1.6298 -0.6917 -0.0855
 9538TIP3   OH250028   0.298   4.707   1.249 -0.4829 -0.1170  0.1836
 9538TIP3    H150029   0.265   4.789   1.213  0.6310  0.0341 -0.5455
 9538TIP3    H250030   0.225   4.646   1.243 -1.7714  1.1436  1.9579
 9539TIP3   OH250031   5.437   6.566  12.170  0.2025 -0.5528  0.2676
 9539TIP3    H150032   5.522   6.538  12.136  0.8640 -1.1172  2.2694
 9539TIP3    H250033   5.391   6.600  12.093  2.5814  0.6935 -0.7051
 9540TIP3   OH250034   2.137   3.273   4.911 -0.4047  0.1230  0.0333
 9540TIP3    H150035   2.131   3.304   5.001  0.4788  0.7404 -0.1095
 9540TIP3    H250036   2.046   3.257   4.885 -1.0854  3.4559 -0.1662
 9541TIP3   OH250037   3.579   5.698  17.255  0.4807  0.5856  0.1045
 9541TIP3    H150038   3.641   5.633  17.287 -0.3523 -2.0272 -3.0292
 9541TIP3    H250039   3.626   5.745  17.187  0.6215  2.3895  1.3903
 9542TIP3   OH250040   0.491   3.339  16.215  0.0976 -0.0101  0.1265
 9542TIP3    H150041   0.528   3.304  16.296  1.0203  0.5238 -0.0549
 9542TIP3    H250042   0.555   3.403  16.185 -1.4596  1.7374  0.3419
 9543TIP3   OH250043   6.555   5.861   5.715  0.0096 -0.1206 -0.5065
 9543TIP3    H150044   6.627   5.815   5.672 -0.7374 -1.3298 -0.5201
 9543TIP3    H250045   6.582   5.866   5.807 -0.0807 -0.9899 -0.4239
 9544TIP3   OH250046   5.321   6.217  14.078 -0.1420  0.0514 -0.2827
 9544TIP3    H150047   5.248   6.216  14.016 -0.7934  1.6851  0.3887
 9544TIP3    H250048   5.342   6.125  14.093  0.2991 -0.4118 -3.1678
 9545TIP3   OH250049   6.610   0.269   1.668  0.5243 -0.3232  0.6301
 9545TIP3    H150050   6.682   0.304   1.616 -0.8119 -0.4325 -1.4053
 9545TIP3    H250051   6.646   0.191   1.710  1.0347 -1.7028 -2.1574
 9546TIP3   OH250052   2.980   3.041   3.069  0.7482 -0.1598  0.1748
 9546TIP3    H150053   2.939   3.009   3.150 -0.5657 -0.1066 -0.4473
 9546TIP3    H250054   3.031   3.117   3.097  0.3926 -0.1996  0.9787
 9547TIP3   OH250055   6.006   2.254  16.000  0.4747  0.2627  0.1485
 9547TIP3    H150056   6.072   2.295  15.945  1.4625 -1.2273  0.1860
 9547TIP3    H250057   6.041   2.260  16.089  1.4192 -2.0032 -0.0074
 9548TIP3   OH250058   5.711   1.380   4.434  0.4324  0.3406  0.3139
 9548TIP3    H150059   5.684   1.459   4.387  0.4743 -0.7028 -1.5606
 9548TIP3    H250060   5.806   1.379   4.426  0.6013  0.9900  1.8873
 9549TIP3   OH250061   6.258   3.533   3.430 -0.2435  0.1375 -0.2368
 9549TIP3    H150062   6.176   3.561   3.390 -1.0536 -3.1167 -1.1951
 9549TIP3    H250063   6.238   3.446   3.466  2.9800 -1.2306 -1.3713
 9550TIP3   OH250064   6.720   0.671   0.150 -0.5633  0.4078 -0.2007
 9550TIP3    H150065   6.682   0.754   0.180 -0.9767  0.4707 -0.8632
 9550TIP3    H250066   6.670   0.650   0.071  0.7549  0.4738 -1.0797
 9551TIP3   OH250067   6.735   0.287   0.684 -0.1067  0.9542 -0.5193
 9551TIP3    H150068   6.661   0.225   0.685  0.5765  0.1219 -0.7229
 9551TIP3    H250069   6.809   0.235   0.655  0.8457  1.4724  0.8889
 9552TIP3   OH250070   6.334   2.679  15.905 -0.0629  0.2145 -1.0181
 9552TIP3    H150071   6.414   2.721  15.873 -0.6490  0.5202 -2.1434
 9552TIP3    H250072   6.363   2.623  15.977  0.8248  2.1669  0.2287
 9553TIP3   OH250073   2.371   4.229  12.263  0.8613 -0.1429  0.4271
 9553TIP3    H150074   2.376   4.292  12.191  0.2410 -0.0015  0.5030
 9553TIP3    H250075   2.444   4.169  12.248  0.3149 -0.5359 -0.7168
 9554TIP3   OH250076   2.231   4.320   4.392 -0.4534 -0.3878 -0.0292
 9554TIP3    H150077   2.238   4.231   4.425 -1.1918  0.0299  1.3165
 9554TIP3    H250078   2.322   4.348   4.380 -0.1194 -0.3938  2.1750
 9555TIP3   OH250079   5.381   3.663   4.964 -0.1919 -0.4657 -0.5674
 9555TIP3    H150080   5.388   3.628   4.875  1.2235 -0.8328 -0.3338
 9555TIP3    H250081   5.308   3.615   5.003 -2.5304  1.4441 -2.2672
 9556TIP3   OH250082   2.897   2.291   5.977 -0.0131 -0.0125 -0.5854
 9556TIP3    H150083   2.829   2.224   5.979  0.2723 -0.3158 -0.8924
 9556TIP3    H250084   2.849   2.374   5.980 -0.3175 -0.2084  1.3473
 9557TIP3   OH250085   2.985   2.413   2.405  0.9366  0.0831 -0.3616
 9557TIP3    H150086   3.005   2.429   2.313 -0.4690  1.0687 -0.5425
 9557TIP3    H250087   2.928   2.487   2.430 -1.7708 -2.0366  0.2414
 9558TIP3   OH250088   3.204   5.198  11.522 -0.1179 -0.5179 -0.8026
 9558TIP3    H150089   3.148   5.222  11.449  2.4710  0.2783 -2.6821
 9558TIP3    H250090   3.275   5.147  11.483  0.9471 -0.7507  1.2727
 9559TIP3   OH250091   2.964   0.051  14.540 -0.0420 -0.0904 -0.1862
 9559TIP3    H150092   2.930   0.112  14.474  0.0410 -0.4024 -0.5206
 9559TIP3    H250093   3.036   0.006  14.496 -0.0816 -0.4063  0.0702
 9560TIP3   OH250094   1.561   0.532  11.486 -0.0050  0.2791  0.9029
 9560TIP3    H150095   1.525   0.581  11.412  2.2620  2.3385  1.0654
 9560TIP3    H250096   1.495   0.541  11.555 -1.3877 -0.2718 -0.2917
 9561TIP3   OH250097   2.049   4.587   1.616 -0.2941  0.2275  0.0125
 9561TIP3    H150098   1.962   4.625   1.620 -1.1381 -1.7110  1.8239
 9561TIP3    H250099   2.034   4.494   1.603  1.4628 -0.2348  0.9970
 9562TIP3   OH250100   2.459   6.199  15.825  0.4122  0.2689  0.6513
 9562TIP3    H150101   2.395   6.253  15.778  1.8740  1.0048 -0.5953
 9562TIP3    H250102   2.444   6.217  15.917 -1.5157 -0.0068  0.4292
 9563TIP3   OH250103   5.224   2.924  13.660  0.2201 -0.0779 -0.2233
 9563TIP3    H150104   5.258   2.892  13.577 -1.1449  1.4942 -1.4639
 9563TIP3    H250105   5.269   3.008  13.674  0.6826 -0.4869  0.8070
 9564TIP3   OH250106   2.174   5.346   1.722 -0.0866 -0.4872 -0.5352
 9564TIP3    H150107   2.175   5.303   1.637  0.1112  0.0781 -0.8230
 9564TIP3    H250108   2.082   5.370   1.735 -0.5821 -2.6681  0.5006
 9565TIP3   OH250109   5.583   4.146  17.128 -0.2852 -0.3401  0.0141
 9565TIP3    H150110   5.538   4.176  17.049 -1.8637 -0.0673  0.9801
 9565TIP3    H250111   5.546   4.060  17.146  0.9531 -0.9415 -0.1908
 9566TIP3   OH250112   3.094   1.306   3.221  0.1692  0.1475 -0.2104
 9566TIP3    H150113   3.174   1.266   3.257 -0.2965 -0.3472  0.2813
 9566TIP3    H250114   3.030   1.236   3.221  0.0615  0.2218 -1.7269
 9567TIP3   OH250115   0.528   1.044  16.647  0.2816  0.2022 -0.0112
 9567TIP3    H150116   0.622   1.027  16.645  0.2794  0.2399 -0.5956
 9567TIP3    H250117   0.506   1.047  16.740  0.7195 -0.5625  0.1232
 9568TIP3   OH250118   0.185   3.447  12.996  0.0785 -0.3127 -0.2276
 9568TIP3    H150119   0.146   3.528  13.028 -0.0515 -0.2060 -0.6562
 9568TIP3    H250120   0.195   3.460  12.902  1.3106 -0.2787 -0.1026
 9569TIP3   OH250121   3.636   1.380  13.398  0.3323  0.4187  0.1731
 9569TIP3    H150122   3.595   1.464  13.374  2.8263  1.1894 -1.7646
 9569TIP3    H250123   3.685   1.400  13.478  0.9423  0.8237 -0.2984
 9570TIP3   OH250124   2.531   0.705   3.312 -0.0082 -0.9738  0.2617
 9570TIP3    H150125   2.493   0.760   3.380  1.0530 -0.8051  0.7396
 9570TIP3    H250126   2.516   0.753   3.231 -0.1125 -0.5393  0.5346
 9571TIP3   OH250127   3.101   5.928  13.309  0.8958  0.0582 -0.3084
 9571TIP3    H150128   3.168   5.868  13.342  0.4046 -1.3977 -1.7596
 9571TIP3    H250129   3.024   5.872  13.296 -0.2304  1.4419  0.1730
 9572TIP3   OH250130   5.299   4.705   5.416  0.1500 -0.0275 -0.1025
 9572TIP3    H150131   5.367   4.651   5.455  0.2917 -0.0102 -0.3253
 9572TIP3    H250132   5.298   4.680   5.324 -0.4562 -0.3556 -0.0130
 9573TIP3   OH250133   2.755   4.642   3.943  0.6238 -0.0432 -0.0778
 9573TIP3    H150134   2.692   4.583   3.984  0.2953  0.0014 -0.5128
 9573TIP3    H250135   2.827   4.585   3.916  1.2380  0.0333  1.2838
 9574TIP3   OH250136   0.491   3.675  17.170 -0.7128 -0.4788  0.1267
 9574TIP3    H150137   0.534   3.589  17.171 -2.3228 -1.3443 -0.5132
 9574TIP3    H250138   0.408   3.659  17.125 -1.4379  1.2420  0.7875
 9575TIP3   OH250139   4.581   2.482   3.077  0.1068 -0.0391  0.7136
 9575TIP3    H150140   4.587   2.577   3.083  0.2476  0.0442 -0.4981
 9575TIP3    H250141   4.488   2.463   3.095 -0.0455  0.3766  0.3939
 9576TIP3   OH250142   5.486   2.241   4.913 -0.2596 -1.0381  0.1416
 9576TIP3    H150143   5.558   2.228   4.974 -0.9169 -2.3509  0.6890
 9576TIP3    H250144   5.408   2.242   4.969 -0.6840  0.2536 -0.4456
 9577TIP3   OH250145   1.755   3.289  15.113 -0.8854  0.3120  0.8271
 9577TIP3    H150146   1.688   3.260  15.051  0.3280  0.3820 -0.5714
 9577TIP3    H250147   1.714   3.362  15.159 -1.0622  1.8042 -1.5302
 9578TIP3   OH250148   0.683   3.656   2.000 -0.5600 -0.1244 -0.5253
 9578TIP3    H150149   0.678   3.711   1.922  2.6023  1.1490  0.0061
 9578TIP3    H250150   0.620   3.694   2.061  0.1320  1.7068 -0.9069
 9579TIP3   OH250151   6.477   6.730   1.954  0.5138  0.1654 -0.2658
 9579TIP3    H150152   6.424   6.809   1.946  0.8711  0.3649 -0.7591
 9579TIP3    H250153   6.525   6.725   1.871  2.3702  0.8040  0.7009
 9580TIP3   OH250154   0.596   5.798   2.313  0.1199  0.2864 -0.2863
 9580TIP3    H150155   0.607   5.748   2.394 -0.7982  0.2359 -0.1828
 9580TIP3    H250156   0.594   5.732   2.244 -1.4699  0.1180 -0.1151
 9581TIP3   OH250157   4.401   1.546   2.404 -0.1638  0.3683 -0.0523
 9581TIP3    H150158   4.436   1.631   2.431  1.7447 -1.0449  2.3066
 9581TIP3    H250159   4.465   1.512   2.343 -0.7541  0.4460 -0.7311
 9582TIP3   OH250160   2.574   0.049   5.587 -0.2611  0.0921 -0.0124
 9582TIP3    H150161   2.643   0.109   5.561 -0.6152  0.5529  0.1035
 9582TIP3    H250162   2.530   0.092   5.660  0.7690 -1.2159  1.4518
 9583TIP3   OH250163   3.165   2.207  17.222  0.1446 -0.1338  0.4592
 9583TIP3    H150164   3.244   2.233  17.174 -0.0133 -0.2085  0.1576
 9583TIP3    H250165   3.121   2.290  17.242  0.6485 -0.0446  1.2375
 9584TIP3   OH250166   3.132   5.542   3.538  0.3989  0.4082 -0.9445
 9584TIP3    H150167   3.200   5.484   3.503 -0.3072 -0.0337 -1.6241
 9584TIP3    H250168   3.067   5.482   3.574 -0.4566  0.7466 -1.8727
 9585TIP3   OH250169   4.623   5.805  10.857  0.3241  0.8421  0.0768
 9585TIP3    H150170   4.616   5.712  10.875  0.5229  1.0801  1.5595
 9585TIP3    H250171   4.699   5.813  10.799 -0.9395 -0.0747 -1.8063
 9586TIP3   OH250172   5.751   5.679   4.193  0.2139 -0.2062 -0.2496
 9586TIP3    H150173   5.671   5.681   4.245  0.7285  0.1285  0.5496
 9586TIP3    H250174   5.756   5.767   4.154 -0.5273 -0.6670 -1.4505
 9587TIP3   OH250175   5.917   5.176   0.269  0.5932 -0.4859 -0.2434
 9587TIP3    H150176   5.888   5.151   0.357  1.0460 -1.4470 -0.3590
 9587TIP3    H250177   5.892   5.103   0.213  0.3409  0.1034 -0.9144
 9588TIP3   OH250178   5.182   6.055  10.866 -0.2412 -0.2407 -0.7721
 9588TIP3    H150179   5.105   6.075  10.920  1.1887  0.8917  0.9729
 9588TIP3    H250180   5.147   6.045  10.777 -2.4927 -0.6088  0.0761
 9589TIP3   OH250181   3.939   3.001  11.955  0.0677 -0.0517 -0.1599
 9589TIP3    H150182   3.895   3.059  11.892  0.7308 -0.1022 -0.6819
 9589TIP3    H250183   4.002   3.057  12.000 -0.0412 -0.1336  0.0990
 9590TIP3   OH250184   0.139   1.547  12.344 -0.4148 -0.1762  0.4441
 9590TIP3    H150185   0.213   1.609  12.347  0.8707 -1.6876  1.0892
 9590TIP3    H250186   0.082   1.575  12.415  0.4737 -0.0963  1.1473
 9591TIP3   OH250187   1.264   1.861   5.452 -0.1553  0.2086 -0.1119
 9591TIP3    H150188   1.285   1.943   5.497 -2.0139 -0.0562  1.3892
 9591TIP3    H250189   1.179   1.877   5.411  1.1373  0.1721 -2.9953
 9592TIP3   OH250190   1.924   5.431  17.090 -0.0077 -0.3593  1.0176
 9592TIP3    H150191   2.002   5.380  17.112 -0.1923 -0.6663  0.9717
 9592TIP3    H250192   1.908   5.413  16.997  1.4194  1.8080  0.2630
 9593TIP3   OH250193   5.823   1.505   6.277  0.1728 -0.5689  0.0490
 9593TIP3    H150194   5.815   1.599   6.265 -1.2188 -0.4545  1.5205
 9593TIP3    H250195   5.888   1.478   6.212  0.9952  1.4658 -0.0636
 9594TIP3   OH250196   0.744   5.347   3.512 -0.0356 -0.2610  0.4822
 9594TIP3    H150197   0.679   5.402   3.555 -0.0694 -0.3821  0.5884
 9594TIP3    H250198   0.768   5.282   3.578  1.8718  1.1197  1.2275
 9595TIP3   OH250199   4.870   2.052  13.915  0.4703  0.1902  0.0107
 9595TIP3    H150200   4.964   2.056  13.934  0.5775 -3.8027  1.1574
 9595TIP3    H250201   4.835   1.994  13.982 -3.2000  2.6594  0.5220
 9596TIP3   OH250202   2.937   4.000  10.632 -0.0663  0.4844  0.1997
 9596TIP3    H150203   3.001   4.064  10.599  0.6712 -0.4163 -0.1536
 9596TIP3    H250204   2.863   4.007  10.572  0.7679 -0.2756 -0.9427
 9597TIP3   OH250205   1.734   4.246   2.065 -0.0407  0.0401  0.3461
 9597TIP3    H150206   1.681   4.221   1.990 -2.3549 -0.7802  2.1464
 9597TIP3    H250207   1.786   4.168   2.085  2.9697  1.2012 -2.1301
 9598TIP3   OH250208   6.208   4.987   0.706 -0.3409  0.0013 -0.7613
 9598TIP3    H150209   6.164   4.916   0.660 -0.9433  0.5234 -1.0110
 9598TIP3    H250210   6.288   4.948   0.742 -0.5768 -0.7475 -1.0498
 9599TIP3   OH250211   4.681   0.396   0.695  0.0404  0.3378  0.2669
 9599TIP3    H150212   4.759   0.441   0.728 -1.0435  2.2947  0.2894
 9599TIP3    H250213   4.694   0.392   0.601  0.4898  0.0004  0.3405
 9600TIP3   OH250214   2.940   2.847   3.628 -0.3652 -0.8688  0.6157
 9600TIP3    H150215   2.941   2.804   3.714  1.4711 -0.6258  0.7529
 9600TIP3    H250216   2.851   2.832   3.595 -0.9886 -1.3039  2.3743
 9601TIP3   OH250217   3.623   0.550   3.578  0.3210 -0.8154  0.1740
 9601TIP3    H150218   3.538   0.519   3.610 -0.2736 -0.1232 -0.6486
 9601TIP3    H250219   3.609   0.564   3.484  1.9468 -2.6229 -0.4012
 9602TIP3   OH250220   1.273   2.704  14.707  0.1137 -0.1936 -0.1925
 9602TIP3    H150221   1.258   2.798  14.692 -1.6646 -0.2505  0.8766
 9602TIP3    H250222   1.238   2.662  14.628 -0.1893 -0.0024 -0.1640
 9603TIP3   OH250223   5.827   0.194  14.570  0.3240  0.4210 -0.6596
 9603TIP3    H150224   5.760   0.256  14.598 -2.0333 -2.0155 -0.4357
 9603TIP3    H250225   5.853   0.149  14.650  0.5009 -0.2133 -1.0636
 9604TIP3   OH250226   6.326   6.147  14.742 -0.2981  0.2196  0.1875
 9604TIP3    H150227   6.369   6.213  14.688 -1.7131  0.5957 -0.5158
 9604TIP3    H250228   6.326   6.183  14.830 -0.6776  0.9795 -0.1192
 9605TIP3   OH250229   2.231   4.790  15.947  0.0333 -0.2784  0.2574
 9605TIP3    H150230   2.297   4.728  15.979  0.4453 -0.0641 -0.1580
 9605TIP3    H250231   2.167   4.795  16.018  0.6170 -0.2636  0.8036
 9606TIP3   OH250232   4.609   3.377   3.939  0.2653 -0.5951 -0.2635
 9606TIP3    H150233   4.677   3.445   3.936 -0.8688  0.6424  0.9296
 9606TIP3    H250234   4.629   3.320   3.864  2.0721  0.2315 -0.4748
 9607TIP3   OH250235   3.785   5.158   6.260 -0.1279  0.3627  0.0013
 9607TIP3    H150236   3.702   5.176   6.304 -1.4893 -1.9211 -1.4301
 9607TIP3    H250237   3.827   5.092   6.316 -0.8800 -0.9670 -0.9527
 9608TIP3   OH250238   5.978   0.492   4.937 -0.7729 -0.2772 -0.5157
 9608TIP3    H150239   5.917   0.552   4.979 -0.6348 -1.4913  1.5384
 9608TIP3    H250240   5.933   0.408   4.938  0.2693 -0.8471 -0.4874
 9609TIP3   OH250241   0.438   6.210   2.586  0.3547  0.3880 -0.2074
 9609TIP3    H150242   0.531   6.203   2.610  0.1351  1.0605  0.8795
 9609TIP3    H250243   0.421   6.131   2.535  0.4510 -2.0980  3.2341
 9610TIP3   OH250244   6.030   5.139  13.179  0.0933  0.2762 -0.1230
 9610TIP3    H150245   6.095   5.070  13.192 -0.6838 -0.6244 -0.8892
 9610TIP3    H250246   6.051   5.204  13.246  1.9160  0.1310 -0.4891
 9611TIP3   OH250247   5.390   2.480  12.073 -0.4282 -0.6191 -0.8650
 9611TIP3    H150248   5.406   2.498  11.980  3.9576 -0.9219 -0.3626
 9611TIP3    H250249   5.350   2.560  12.107  2.1181  1.3594 -2.2105
 9612TIP3   OH250250   1.024   4.899   0.328 -0.3178 -0.5125  0.4370
 9612TIP3    H150251   1.015   4.813   0.369 -2.3038 -0.3660  0.3649
 9612TIP3    H250252   1.063   4.881   0.242 -2.0888 -1.5510 -0.1980
 9613TIP3   OH250253   1.029   3.592   4.847  0.8107  0.1387  0.0136
 9613TIP3    H150254   0.965   3.657   4.875  0.5630 -0.1860  0.2213
 9613TIP3    H250255   1.098   3.596   4.913  1.0867  0.6049 -0.3011
 9614TIP3   OH250256   4.393   4.429   3.955  0.5631  0.5496 -0.7037
 9614TIP3    H150257   4.364   4.391   4.037 -0.0388  0.3748 -0.9952
 9614TIP3    H250258   4.400   4.523   3.973 -2.0316  0.8848 -1.1273
 9615TIP3   OH250259   3.599   5.365   5.639  0.3038 -0.4111 -0.5793
 9615TIP3    H150260   3.597   5.313   5.559 -0.0746 -0.1413 -0.7513
 9615TIP3    H250261   3.656   5.439   5.619  1.5192 -1.1694 -0.0637
 9616TIP3   OH250262   4.374   2.116   3.288  0.3476 -0.2669 -0.3666
 9616TIP3    H150263   4.330   2.094   3.206  1.6734 -0.9554 -0.9163
 9616TIP3    H250264   4.413   2.202   3.271  0.6645 -0.4318 -0.4882
 9617TIP3   OH250265   5.485   6.165   2.761 -0.2709 -0.0141 -0.0294
 9617TIP3    H150266   5.425   6.239   2.762  1.0716  1.1182  1.1671
 9617TIP3    H250267   5.572   6.204   2.750  0.3884 -1.4910 -0.3472
 9618TIP3   OH250268   1.669   3.200  14.732  0.2567 -0.6219 -0.0546
 9618TIP3    H150269   1.643   3.204  14.640  1.2746 -0.4057 -0.3431
 9618TIP3    H250270   1.586   3.189  14.780 -0.2185 -1.5129 -1.0352
 9619TIP3   OH250271   2.960   5.100  13.525  0.8235 -1.1136 -0.3482
 9619TIP3    H150272   3.013   5.068  13.453  1.1509  0.7079 -0.9577
 9619TIP3    H250273   3.008   5.175  13.560 -0.9629  0.1466 -0.4431
 9620TIP3   OH250274   5.901   6.736  11.433 -0.6356 -0.8003 -0.2756
 9620TIP3    H150275   5.865   6.741  11.344  0.8575 -0.6391 -0.9100
 9620TIP3    H250276   5.873   6.650  11.465  1.1421 -2.1225 -2.0280
 9621TIP3   OH250277   1.946   0.623   0.787  0.1775 -0.4035 -0.2175
 9621TIP3    H150278   1.875   0.652   0.729  0.3947  0.7567  0.0776
 9621TIP3    H250279   2.007   0.578   0.729  1.2892  2.3012 -1.2937
 9622TIP3   OH250280   2.654   4.568   4.550  0.3347  0.0807 -0.2560
 9622TIP3    H150281   2.712   4.491   4.557  0.0058 -0.0340  2.3739
 9622TIP3    H250282   2.706   4.639   4.587 -0.9698  0.0735  1.7098
 9623TIP3   OH250283   2.887   5.402   3.633  0.2512 -0.1115  0.2077
 9623TIP3    H150284   2.933   5.355   3.702  0.0483 -0.2403  0.2555
 9623TIP3    H250285   2.798   5.366   3.634 -0.6125  1.8836  1.8031
 9624TIP3   OH250286   0.105   5.751   3.101  0.4207  0.1861 -0.1836
 9624TIP3    H150287   0.126   5.840   3.127  3.2891 -0.0328 -1.2945
 9624TIP3    H250288   0.105   5.701   3.182  0.1634  0.9737  0.3081
 9625TIP3   OH250289   4.818   5.451  14.047  0.0013 -0.3306  0.2863
 9625TIP3    H150290   4.746   5.511  14.062 -0.8923 -1.5108  0.8707
 9625TIP3    H250291   4.779   5.364  14.054  1.5226 -1.0039  0.8932
 9626TIP3   OH250292   6.136   1.312   2.794 -0.7058 -0.1001  0.5977
 9626TIP3    H150293   6.098   1.349   2.715 -1.7856  1.6405  1.8661
 9626TIP3    H250294   6.064   1.268   2.838  0.3300 -2.9693 -0.3456
 9627TIP3   OH250295   3.002   0.322  16.256  0.1319  0.0990  0.1652
 9627TIP3    H150296   3.061   0.259  16.213 -0.2528  0.2927 -0.6659
 9627TIP3    H250297   2.916   0.282  16.248 -0.2802  1.1859 -1.3209
 9628TIP3   OH250298   5.952   5.496  15.753  0.2305 -0.3188 -0.4158
 9628TIP3    H150299   5.921   5.494  15.844 -0.2446 -0.3421 -0.5712
 9628TIP3    H250300   6.016   5.425  15.748  0.1444 -0.4192 -0.1356
 9629TIP3   OH250301   0.397   3.309   1.424  0.2337  0.1981  0.2117
 9629TIP3    H150302   0.363   3.228   1.461  0.4924  0.3709  0.8354
 9629TIP3    H250303   0.492   3.304   1.439  0.0598  1.5015  2.0569
 9630TIP3   OH250304   1.334   6.244   2.969 -0.1237  1.1249 -0.1937
 9630TIP3    H150305   1.399   6.234   2.899 -0.0688 -0.2859  0.0281
 9630TIP3    H250306   1.357   6.177   3.033 -0.8584  1.6517  0.6454
 9631TIP3   OH250307   0.789   4.877  16.179  0.4633 -0.0288 -0.3426
 9631TIP3    H150308   0.795   4.899  16.086 -1.8301  0.0009 -0.5398
 9631TIP3    H250309   0.863   4.922  16.219  0.5250  1.3617 -1.9121
 9632TIP3   OH250310   1.480   1.287  12.621  0.2355  0.2396  0.1637
 9632TIP3    H150311   1.470   1.291  12.526  1.0655  0.5422  0.0738
 9632TIP3    H250312   1.423   1.356  12.654  0.5679  0.6808 -0.1746
 9633TIP3   OH250313   3.659   1.669  17.026  0.2315  0.2873 -0.5025
 9633TIP3    H150314   3.669   1.743  17.086  0.8452  0.1853 -0.4762
 9633TIP3    H250315   3.671   1.592  17.081  1.2423  0.1998 -0.8247
 9634TIP3   OH250316   4.956   4.258  15.464 -0.1921  0.3558 -0.0517
 9634TIP3    H150317   4.962   4.163  15.450  1.5926  0.3736  0.3464
 9634TIP3    H250318   4.866   4.280  15.439 -0.5362 -1.3759 -0.5012
 9635TIP3   OH250319   0.215   0.284  13.035  0.4394 -0.2179  0.0655
 9635TIP3    H150320   0.300   0.327  13.036  0.0331  0.5888  0.3958
 9635TIP3    H250321   0.162   0.333  13.098 -0.0807 -1.0976  0.3349
 9636TIP3   OH250322   0.549   1.475   2.481 -0.5749  0.0584 -0.1669
 9636TIP3    H150323   0.556   1.385   2.448 -1.0392  0.0067 -0.1236
 9636TIP3    H250324   0.612   1.524   2.428 -0.8582 -0.1459 -0.7065
 9637TIP3   OH250325   0.641   0.946  14.249 -0.1496 -0.2933  0.0997
 9637TIP3    H150326   0.620   0.861  14.288  0.4762 -0.1262  0.8291
 9637TIP3    H250327   0.556   0.988  14.235 -0.4035 -0.1808  1.7128
 9638TIP3   OH250328   2.629   2.486  16.486 -0.4974 -0.7509 -0.7596
 9638TIP3    H150329   2.628   2.402  16.439 -3.9002 -0.6888 -1.0172
 9638TIP3    H250330   2.653   2.550  16.419 -2.8806 -0.9720 -1.9093
 9639TIP3   OH250331   5.044   4.545   4.096 -0.0817 -0.2878  0.4492
 9639TIP3    H150332   5.055   4.597   4.176  0.4140  1.4862 -0.7123
 9639TIP3    H250333   4.971   4.587   4.051  2.1590  1.3603 -1.9109
 9640TIP3   OH250334   1.843   0.327  16.095 -0.0151 -0.1224 -0.1146
 9640TIP3    H150335   1.858   0.405  16.148 -1.6223 -0.7542  1.3669
 9640TIP3    H250336   1.749   0.313  16.099 -0.1573 -0.5166 -2.7715
 9641TIP3   OH250337   0.212   3.723   2.279 -0.4187 -0.3314 -0.3269
 9641TIP3    H150338   0.248   3.713   2.191  2.6769 -0.6390  0.8667
 9641TIP3    H250339   0.176   3.637   2.300  1.6941 -1.2388 -0.1838
 9642TIP3   OH250340   4.230   6.228   2.705 -0.0305  0.1712  0.4808
 9642TIP3    H150341   4.213   6.303   2.762  1.0282  1.1167 -0.4155
 9642TIP3    H250342   4.226   6.263   2.617 -1.0971 -1.1739 -0.0521
 9643TIP3   OH250343   1.461   2.124  13.346  0.0693 -0.3635 -0.3837
 9643TIP3    H150344   1.384   2.181  13.351  0.2769  0.0127 -1.1861
 9643TIP3    H250345   1.442   2.051  13.404 -0.5164  0.1697  0.1004
 9644TIP3   OH250346   6.620   6.163   2.036  0.3570  0.4620 -0.4082
 9644TIP3    H150347   6.547   6.213   2.073  1.9331  1.2686  1.8400
 9644TIP3    H250348   6.684   6.230   2.011  1.0601 -0.3074 -0.7130
 9645TIP3   OH250349   6.277   0.160  16.919 -0.2289  0.0419 -0.0708
 9645TIP3    H150350   6.319   0.083  16.958 -0.2349  1.3758  2.8267
 9645TIP3    H250351   6.183   0.142  16.926 -0.3512 -1.4442 -3.4200
 9646TIP3   OH250352   1.023   3.208   1.191  0.8681  0.4466 -0.3512
 9646TIP3    H150353   1.018   3.165   1.276 -2.6840 -1.5061 -1.3307
 9646TIP3    H250354   1.072   3.146   1.136  2.5464  1.3846  0.0224
 9647TIP3   OH250355   5.415   0.030  16.345 -0.0295 -0.0690  0.5363
 9647TIP3    H150356   5.445   0.116  16.318  0.9174 -0.5244  0.1004
 9647TIP3    H250357   5.450  -0.030  16.278 -2.2273 -0.5950 -0.2396
 9648TIP3   OH250358   1.262   4.814   4.784  0.2689  0.4297 -0.6152
 9648TIP3    H150359   1.190   4.753   4.799 -0.3196  1.0698 -0.7851
 9648TIP3    H250360   1.339   4.769   4.818 -0.6714  0.9901  2.6874
 9649TIP3   OH250361   2.571   0.403   2.361  0.3844 -0.3317  0.2094
 9649TIP3    H150362   2.538   0.315   2.340  0.0335  0.0796 -1.0689
 9649TIP3    H250363   2.492   0.456   2.372  0.6019  0.0655 -0.1386
 9650TIP3   OH250364   0.113   3.245   4.804  0.0152  0.1737 -0.4061
 9650TIP3    H150365   0.189   3.193   4.830  0.5161  1.2038  0.2602
 9650TIP3    H250366   0.039   3.186   4.815  0.6228 -0.5617 -0.1638
 9651TIP3   OH250367   3.674   6.641   1.312 -0.6830  0.3087 -0.9385
 9651TIP3    H150368   3.628   6.588   1.377 -1.4282  0.8885 -0.9777
 9651TIP3    H250369   3.705   6.717   1.361  1.7902 -0.8517 -0.5152
 9652TIP3   OH250370   5.366   5.784   4.646 -0.4991 -0.1194 -0.0048
 9652TIP3    H150371   5.435   5.846   4.623 -1.0229 -0.2381 -2.0997
 9652TIP3    H250372   5.412   5.713   4.692  0.0723  1.8276  2.7238
 9653TIP3   OH250373   3.254   1.810  13.617  0.5645  0.3893  0.2053
 9653TIP3    H150374   3.221   1.899  13.608  0.4905  0.4724  1.2090
 9653TIP3    H250375   3.349   1.819  13.604  0.7451  0.8509  1.7170
 9654TIP3   OH250376   2.218   6.091   3.878  0.5712  0.2867 -0.1942
 9654TIP3    H150377   2.158   6.161   3.853  1.0602  0.8729  0.2295
 9654TIP3    H250378   2.248   6.054   3.795  1.8056  1.8868 -0.5301
 9655TIP3   OH250379   4.487   1.304   2.839 -0.4226  0.3072 -0.2198
 9655TIP3    H150380   4.510   1.341   2.924 -4.3136 -0.6555  1.4997
 9655TIP3    H250381   4.456   1.379   2.788  0.0944  0.6123 -0.0931
 9656TIP3   OH250382   5.737   0.307   1.774 -0.3253 -0.4424  0.1130
 9656TIP3    H150383   5.748   0.285   1.867 -0.9823  0.3311  0.3845
 9656TIP3    H250384   5.663   0.367   1.773 -0.8923 -1.1317 -1.0185
 9657TIP3   OH250385   6.229   1.825   1.797  0.2583 -0.1469  0.0173
 9657TIP3    H150386   6.220   1.817   1.892 -2.3358 -0.6973 -0.2094
 9657TIP3    H250387   6.168   1.895   1.773  1.9391  1.0246 -1.1575
 9658TIP3   OH250388   6.015   6.052   0.073 -0.0117 -0.0013  0.0909
 9658TIP3    H150389   5.952   6.119   0.098  0.9275  1.2496 -0.7879
 9658TIP3    H250390   5.988   5.974   0.122 -2.7186  0.2365 -0.8274
 9659TIP3   OH250391   4.704   2.561  13.763  0.3382  0.5132 -0.5503
 9659TIP3    H150392   4.703   2.471  13.796  0.6733  1.5088  2.4915
 9659TIP3    H250393   4.624   2.600  13.798  0.1976  1.4229 -1.8434
 9660TIP3   OH250394   3.698   5.132  12.556  0.2236 -0.2000 -0.4459
 9660TIP3    H150395   3.735   5.047  12.578  1.3782  0.9975  2.9278
 9660TIP3    H250396   3.622   5.141  12.613 -0.1876  0.8133 -1.1273
 9661TIP3   OH250397   4.018   0.322  15.154 -0.6464 -0.3079  0.3972
 9661TIP3    H150398   4.097   0.284  15.192 -0.2858 -0.9132 -0.8849
 9661TIP3    H250399   4.035   0.322  15.059 -0.9437  2.3840  0.2695
 9662TIP3   OH250400   6.017   5.125  15.968 -0.1611  0.2899  0.2162
 9662TIP3    H150401   6.110   5.148  15.969  0.1169 -0.7852 -0.1557
 9662TIP3    H250402   5.991   5.127  16.060  0.1537  0.8719  0.2961
 9663TIP3   OH250403   1.326   0.375   1.872 -0.0231  0.3053  0.1811
 9663TIP3    H150404   1.364   0.288   1.887 -0.2083 -0.0471 -1.2278
 9663TIP3    H250405   1.391   0.436   1.906  1.5037 -0.3050 -1.4828
 9664TIP3   OH250406   1.290   6.421  11.802  0.3820 -0.3623 -0.0893
 9664TIP3    H150407   1.362   6.460  11.850  1.3599 -1.1633 -0.8571
 9664TIP3    H250408   1.233   6.384  11.869 -0.1006  1.5252  0.5992
 9665TIP3   OH250409   4.385   1.030  15.311 -0.0440  0.0574  0.6612
 9665TIP3    H150410   4.449   1.089  15.350  0.8637  0.6826 -1.6052
 9665TIP3    H250411   4.437   0.954  15.283 -0.8094 -0.7612  1.3995
 9666TIP3   OH250412   4.774   2.970  12.114 -0.1309  0.2514 -0.4849
 9666TIP3    H150413   4.837   2.947  12.045  0.9852 -0.2790  0.6833
 9666TIP3    H250414   4.827   3.006  12.185 -1.0977 -0.4849  0.6464
 9667TIP3   OH250415   0.030   1.753   5.773  0.0859 -0.4091 -0.2785
 9667TIP3    H150416   0.035   1.658   5.770  1.7273 -0.4635  1.8632
 9667TIP3    H250417  -0.055   1.772   5.811  0.1351 -1.0759  0.1740
 9668TIP3   OH250418   2.361   6.564  17.040 -0.2892  0.0092  0.0449
 9668TIP3    H150419   2.284   6.613  17.012 -0.3158  0.3063  0.6323
 9668TIP3    H250420   2.407   6.623  17.099 -1.2220 -1.2663  2.1333
 9669TIP3   OH250421   0.259   6.651  13.745  0.3993 -0.8812 -0.0045
 9669TIP3    H150422   0.213   6.607  13.673  0.5689 -0.7745 -0.1793
 9669TIP3    H250423   0.350   6.657  13.716  0.5436 -1.1622  0.3752
 9670TIP3   OH250424   2.573   5.513  15.018  0.1956  0.1970  0.5668
 9670TIP3    H150425   2.650   5.557  14.982  0.9454 -1.4269  0.0918
 9670TIP3    H250426   2.519   5.491  14.943 -0.3122  0.5547  0.8225
 9671TIP3   OH250427   2.111   5.115  15.050 -0.5800 -0.0708  0.1293
 9671TIP3    H150428   2.132   5.022  15.044 -1.0200 -0.1687  0.0576
 9671TIP3    H250429   2.140   5.141  15.137 -0.0774 -0.1737  0.0007
 9672TIP3   OH250430   1.795   5.859   2.252  0.4820  0.3370  0.1165
 9672TIP3    H150431   1.712   5.830   2.214  0.3809  1.0705 -0.2428
 9672TIP3    H250432   1.839   5.778   2.278 -0.0906 -0.0915 -0.2188
 9673TIP3   OH250433   3.135   6.517   0.512 -0.2196 -0.5512 -0.2540
 9673TIP3    H150434   3.104   6.563   0.590 -0.5114 -1.3971  0.1376
 9673TIP3    H250435   3.072   6.541   0.444 -0.0474  0.0724 -0.2031
 9674TIP3   OH250436   1.101   5.564  15.532 -1.2287  0.2887  0.8389
 9674TIP3    H150437   1.162   5.577  15.459 -1.9544 -0.2588  0.1210
 9674TIP3    H250438   1.104   5.470  15.549 -2.4058  0.1523  0.3245
 9675TIP3   OH250439   2.659   3.887   3.912 -0.3372 -0.3831  0.1137
 9675TIP3    H150440   2.595   3.957   3.909  1.4711  1.4456  1.7054
 9675TIP3    H250441   2.661   3.853   3.822 -2.5666  0.3188 -0.2666
 9676TIP3   OH250442   4.642   2.313  14.238  0.0375 -0.4096 -0.2545
 9676TIP3    H150443   4.559   2.335  14.279 -0.1888  1.7014 -1.7143
 9676TIP3    H250444   4.700   2.291  14.311 -1.2869 -0.1233  0.9137
 9677TIP3   OH250445   4.651   2.243   3.166 -0.7312 -0.3544  0.0157
 9677TIP3    H150446   4.616   2.324   3.130 -0.3632  0.1479  0.7454
 9677TIP3    H250447   4.717   2.215   3.103  0.1439  0.6873  0.4431
 9678TIP3   OH250448   3.006   3.911  11.770  0.4595  0.2528 -0.1852
 9678TIP3    H150449   3.017   3.867  11.685  0.6726  0.5242 -0.2983
 9678TIP3    H250450   3.094   3.910  11.808  0.0644 -1.4310  0.8110
 9679TIP3   OH250451   6.586   5.329   0.853  0.4052 -0.2526 -0.5693
 9679TIP3    H150452   6.649   5.400   0.864 -0.5573  0.8878 -2.0266
 9679TIP3    H250453   6.550   5.315   0.941  1.4196  0.2656 -0.0541
 9680TIP3   OH250454   4.803   3.195  14.190  0.1300 -0.3183 -0.5081
 9680TIP3    H150455   4.790   3.103  14.212 -2.0408 -0.0961 -0.6727
 9680TIP3    H250456   4.819   3.195  14.095  0.2062 -0.5139 -0.4955
 9681TIP3   OH250457   0.534   0.523  13.694 -0.2264  0.0006  0.2730
 9681TIP3    H150458   0.448   0.557  13.671  0.1616  1.5010  0.9700
 9681TIP3    H250459   0.517   0.457  13.761 -0.9154 -0.6531 -0.5206
 9682TIP3   OH250460   0.893   2.015   1.277  0.2341  0.0258  0.4579
 9682TIP3    H150461   0.955   2.088   1.280  0.0376  0.2169  0.0062
 9682TIP3    H250462   0.932   1.948   1.333  0.3908  0.4944  0.9112
 9683TIP3   OH250463   6.367   5.944  16.487 -0.5638  0.0318 -0.6414
 9683TIP3    H150464   6.421   6.011  16.530 -1.1393 -0.1759  0.4302
 9683TIP3    H250465   6.313   5.908  16.557 -0.0624 -1.7736 -1.1399
 9684TIP3   OH250466   3.494   0.331  16.262 -0.0490  0.1791  0.5158
 9684TIP3    H150467   3.408   0.369  16.243  0.5363  0.7190 -1.2923
 9684TIP3    H250468   3.521   0.372  16.344 -0.9350  1.0378  0.3954
 9685TIP3   OH250469   1.729   6.421  11.996 -0.6952  0.2383  0.2062
 9685TIP3    H150470   1.653   6.392  12.045 -1.6940  1.7964 -0.3422
 9685TIP3    H250471   1.783   6.467  12.059 -0.4549 -0.3989  0.4767
 9686TIP3   OH250472   4.490   6.045  10.797 -0.7650  0.2522 -0.4822
 9686TIP3    H150473   4.544   6.113  10.836 -1.8651  0.2803  1.0768
 9686TIP3    H250474   4.527   5.963  10.829 -0.3281  0.1575 -1.1952
 9687TIP3   OH250475   4.313   5.000   0.322  0.1371 -0.1055  0.2647
 9687TIP3    H150476   4.251   5.040   0.261  0.4540 -2.3971 -1.7298
 9687TIP3    H250477   4.262   4.931   0.365  0.7659 -0.7366  0.0253
 9688TIP3   OH250478   1.850   4.681   0.420 -0.0454 -0.0931  0.0946
 9688TIP3    H150479   1.829   4.677   0.514 -1.7860  2.3308 -0.1029
 9688TIP3    H250480   1.777   4.639   0.377  0.3460 -0.4552 -0.2204
 9689TIP3   OH250481   1.016   2.681   5.832  0.1759 -0.4126  0.3173
 9689TIP3    H150482   1.036   2.679   5.925 -0.5068 -2.3484  0.4829
 9689TIP3    H250483   0.925   2.650   5.826 -1.1331  3.1677 -0.7611
 9690TIP3   OH250484   2.138   3.519  15.683  0.3692 -0.0287  0.2168
 9690TIP3    H150485   2.200   3.587  15.711  0.3495 -0.2140  0.7039
 9690TIP3    H250486   2.062   3.531  15.739 -0.4982  0.8931 -1.0828
 9691TIP3   OH250487   1.352   6.095  12.469 -0.5464 -0.0913 -0.0063
 9691TIP3    H150488   1.420   6.139  12.521 -0.4321  0.0155 -0.2434
 9691TIP3    H250489   1.381   6.004  12.464  0.2978  0.2300 -1.2641
 9692TIP3   OH250490   5.973   5.470  11.530 -1.0935  0.4059  0.0661
 9692TIP3    H150491   5.878   5.477  11.541 -0.7616  2.0051  2.8452
 9692TIP3    H250492   5.997   5.391  11.577 -0.8927  0.9194  0.8415
 9693TIP3   OH250493   0.281   0.143  13.286  0.6010 -0.5346  0.0118
 9693TIP3    H150494   0.211   0.198  13.250  1.9562  0.1898 -1.6178
 9693TIP3    H250495   0.300   0.182  13.371  0.8893  0.9780 -0.7120
 9694TIP3   OH250496   0.629   4.289  15.435  0.6717  0.4756  0.2242
 9694TIP3    H150497   0.536   4.304  15.422  0.8350  0.8147 -0.5992
 9694TIP3    H250498   0.635   4.250  15.522 -0.1827  0.9940  0.5266
 9695TIP3   OH250499   1.808   6.159  11.683 -0.1515 -0.1471  0.0061
 9695TIP3    H150500   1.843   6.248  11.690  1.1429 -0.7479  2.6014
 9695TIP3    H250501   1.766   6.143  11.768 -0.2474 -2.0497 -0.3551
 9696TIP3   OH250502   4.402   1.280   5.703 -0.9181  0.1977 -0.6673
 9696TIP3    H150503   4.455   1.310   5.629 -1.7587  1.3551 -0.8226
 9696TIP3    H250504   4.352   1.357   5.730 -1.6719 -0.5745  0.2099
 9697TIP3   OH250505   2.798   6.301  16.573  0.0176  0.1874 -0.0207
 9697TIP3    H150506   2.737   6.372  16.595 -0.2218 -0.0024 -0.0645
 9697TIP3    H250507   2.877   6.345  16.544  1.1658  0.5218  3.2686
 9698TIP3   OH250508   2.020   6.517   3.488  0.1474  0.0184 -0.1536
 9698TIP3    H150509   2.088   6.461   3.524  0.3246 -0.9268 -1.8564
 9698TIP3    H250510   2.065   6.571   3.423 -0.4165  0.6633 -0.0265
 9699TIP3   OH250511   5.267   5.744   6.266  0.6840 -0.3018 -0.1629
 9699TIP3    H150512   5.344   5.698   6.300  0.5185 -1.8420 -1.7239
 9699TIP3    H250513   5.201   5.676   6.256 -0.0067  0.4997 -1.3041
 9700TIP3   OH250514   4.526   5.063  13.251  0.1554  0.6512  0.2539
 9700TIP3    H150515   4.513   5.059  13.346  1.1051 -0.1497  0.3726
 9700TIP3    H250516   4.443   5.034  13.214 -0.9133  2.8388  0.7678
 9701TIP3   OH250517   2.347   3.108   2.961  0.0121 -0.1557  1.3236
 9701TIP3    H150518   2.385   3.166   3.026  2.7604 -1.9803  1.4784
 9701TIP3    H250519   2.317   3.032   3.011 -0.8179 -0.2016  0.7830
 9702TIP3   OH250520   5.361   0.504   5.795 -0.8431  0.4151  0.7005
 9702TIP3    H150521   5.363   0.516   5.890 -0.5959 -1.8907  1.0525
 9702TIP3    H250522   5.454   0.495   5.771 -0.9549  0.0245  0.4057
 9703TIP3   OH250523   6.304   1.961  17.353  0.0903 -0.3038 -0.0033
 9703TIP3    H150524   6.288   1.925  17.440 -0.1170  0.7523  0.4173
 9703TIP3    H250525   6.242   1.916  17.296 -1.4974  0.7292  0.8485
 9704TIP3   OH250526   3.837   3.088  13.451  0.3631 -0.6565  0.0246
 9704TIP3    H150527   3.883   3.156  13.402 -0.6967  0.8464  1.0518
 9704TIP3    H250528   3.856   3.007  13.402  1.7619  0.3194 -1.1472
 9705TIP3   OH250529   2.894   6.379  12.194  0.0795 -0.3313 -0.0084
 9705TIP3    H150530   2.899   6.284  12.199  1.1616 -0.2753  0.2486
 9705TIP3    H250531   2.969   6.404  12.140 -0.2288  0.3703 -0.1220
 9706TIP3   OH250532   2.418   1.925  16.542 -0.2236 -0.2287  0.4205
 9706TIP3    H150533   2.411   1.852  16.481 -0.4051 -0.1335  0.3253
 9706TIP3    H250534   2.461   1.994  16.492 -1.3580  0.2240  0.0503
 9707TIP3   OH250535   4.963   3.949  12.315 -0.4759 -0.3748 -0.3826
 9707TIP3    H150536   5.050   3.986  12.328 -0.1210 -1.7529  1.4992
 9707TIP3    H250537   4.904   4.008  12.363 -0.4844  0.0505 -0.9030
 9708TIP3   OH250538   1.254   0.826  15.374  0.3509 -0.0817  0.6152
 9708TIP3    H150539   1.295   0.911  15.394 -0.9751  0.6120  0.5123
 9708TIP3    H250540   1.260   0.819  15.278 -1.1590  0.7991  0.4186
 9709TIP3   OH250541   4.271   0.688  15.292 -0.5112  0.0390  0.4199
 9709TIP3    H150542   4.327   0.763  15.269  0.5849 -0.4706  1.3571
 9709TIP3    H250543   4.242   0.707  15.381  2.0307 -1.8967  1.7872
 9710TIP3   OH250544   5.783   5.517   1.153  0.0498  0.2887 -0.1598
 9710TIP3    H150545   5.732   5.598   1.161  1.8645  1.4113  0.5921
 9710TIP3    H250546   5.735   5.466   1.087 -1.3908  1.7699 -0.3432
 9711TIP3   OH250547   2.626   4.018  15.973 -0.1448 -0.0179  0.1281
 9711TIP3    H150548   2.619   4.114  15.975  0.7654  0.1522 -1.8935
 9711TIP3    H250549   2.697   3.998  16.034 -0.6039  0.5361  0.8710
 9712TIP3   OH250550   3.063   6.136  11.784 -0.0596 -0.0793 -0.2811
 9712TIP3    H150551   3.019   6.147  11.700  0.9115 -0.3537 -0.8467
 9712TIP3    H250552   3.157   6.139  11.762  0.2079  0.8368  0.9309
 9713TIP3   OH250553   1.883   5.645  15.539  0.0363 -0.2260  0.0973
 9713TIP3    H150554   1.861   5.626  15.630 -0.3585  1.4475  0.3778
 9713TIP3    H250555   1.815   5.601  15.488  0.3701 -1.3310  0.5823
 9714TIP3   OH250556   3.052   6.142   3.979 -0.0937  0.3802  0.3882
 9714TIP3    H150557   3.035   6.060   4.025  0.1603  0.9101  1.4637
 9714TIP3    H250558   2.980   6.150   3.916  0.6444 -1.3566 -0.7503
 9715TIP3   OH250559   4.247   1.381  13.305  0.1051  0.6377  0.3158
 9715TIP3    H150560   4.153   1.384  13.323 -0.8370  0.8714 -3.5988
 9715TIP3    H250561   4.280   1.466  13.332 -0.7023  0.4854  1.9191
 9716TIP3   OH250562   1.145   2.237  16.617  0.1605 -0.4530  0.6506
 9716TIP3    H150563   1.222   2.235  16.673 -1.2732  0.9212  2.8231
 9716TIP3    H250564   1.146   2.323  16.576  0.4348 -0.9171 -0.3514
 9717TIP3   OH250565   2.759   6.633   5.620 -0.1033 -0.1525 -0.0143
 9717TIP3    H150566   2.681   6.686   5.639 -0.9792  0.1615 -3.7238
 9717TIP3    H250567   2.812   6.689   5.562  1.8887 -1.1626  0.7585
 9718TIP3   OH250568   1.055   3.731   2.615 -0.0957 -0.3245  0.1943
 9718TIP3    H150569   1.005   3.650   2.629 -1.3376  0.5449  1.0472
 9718TIP3    H250570   1.139   3.702   2.581 -1.1873 -1.8590 -1.3643
 9719TIP3   OH250571   0.194   5.727  13.390 -0.0043  0.4923 -0.0342
 9719TIP3    H150572   0.201   5.791  13.320  2.2299 -0.2522 -0.5867
 9719TIP3    H250573   0.105   5.691  13.382 -0.9905  2.8309 -0.2393
 9720TIP3   OH250574   4.349   0.786  11.668 -0.3370 -0.2039 -0.0706
 9720TIP3    H150575   4.423   0.750  11.717 -0.1684 -1.7035 -1.3493
 9720TIP3    H250576   4.320   0.714  11.611 -2.3681  0.5447 -0.0838
 9721TIP3   OH250577   1.333   2.827   3.133 -0.6083  0.3866 -0.9889
 9721TIP3    H150578   1.305   2.735   3.131  0.4695  0.0529 -2.5990
 9721TIP3    H250579   1.293   2.867   3.056 -0.4462  1.0835 -0.7196
 9722TIP3   OH250580   1.728   3.206   5.817  0.3300  0.4429 -0.0614
 9722TIP3    H150581   1.684   3.285   5.785 -0.3310  0.4853  0.9194
 9722TIP3    H250582   1.789   3.238   5.884  1.1708  0.2744 -0.7241
 9723TIP3   OH250583   5.677   6.446   0.812  0.2202  0.2362 -0.3594
 9723TIP3    H150584   5.697   6.416   0.901 -0.9655  0.2678 -0.0670
 9723TIP3    H250585   5.631   6.529   0.824  1.6084  1.1519 -1.0856
 9724TIP3   OH250586   4.134   4.510  11.797 -0.1206 -0.0839  0.5474
 9724TIP3    H150587   4.082   4.570  11.743 -0.3295  0.4153  1.2950
 9724TIP3    H250588   4.176   4.566  11.862  2.3488 -0.2768 -0.7346
 9725TIP3   OH250589   6.028   4.177   3.535 -0.1715 -0.5674  0.3729
 9725TIP3    H150590   6.010   4.257   3.487  2.0865  0.1437  0.5807
 9725TIP3    H250591   5.953   4.166   3.593  0.0857  2.2231  1.3631
 9726TIP3   OH250592   3.795   6.634   3.905 -0.4430 -0.4525  0.2877
 9726TIP3    H150593   3.812   6.615   3.813  0.0074 -1.7136  0.6140
 9726TIP3    H250594   3.821   6.555   3.951  1.3341  0.8813  1.7202
 9727TIP3   OH250595   1.155   6.650   5.110 -0.2123  0.1535  0.3417
 9727TIP3    H150596   1.099   6.713   5.065 -0.9894  0.6744  1.9322
 9727TIP3    H250597   1.185   6.697   5.189  0.6861 -0.8649  0.6354
 9728TIP3   OH250598   0.033   2.236  14.625 -0.3612 -0.5451  0.6635
 9728TIP3    H150599   0.055   2.281  14.706  0.3565  1.6188 -0.6481
 9728TIP3    H250600   0.078   2.286  14.557 -1.3489 -1.9790 -1.1376
 9729TIP3   OH250601   1.045   1.951   2.234  0.2036 -0.0870 -0.2956
 9729TIP3    H150602   1.051   1.867   2.189 -1.1210 -0.1538 -0.4064
 9729TIP3    H250603   1.092   2.012   2.177  2.2526 -0.9370  0.3885
 9730TIP3   OH250604   0.920   0.967   5.498  0.5149 -0.2271 -0.0918
 9730TIP3    H150605   0.854   0.907   5.532  1.2100 -0.7427  0.3663
 9730TIP3    H250606   0.993   0.960   5.559  2.0075 -1.5524 -1.9089
 9731TIP3   OH250607   2.145   1.940   1.143 -0.3319 -1.0974  0.2077
 9731TIP3    H150608   2.149   1.850   1.177 -0.7273 -1.6945 -1.2476
 9731TIP3    H250609   2.236   1.964   1.127 -0.1903 -1.0520  1.0383
 9732TIP3   OH250610   5.649   5.691  15.497  0.0960  0.2189 -0.1827
 9732TIP3    H150611   5.686   5.638  15.426 -1.5516  0.1448 -1.0416
 9732TIP3    H250612   5.630   5.628  15.567  0.3406  0.0510 -0.2652
 9733TIP3   OH250613   2.728   2.234  11.922 -0.2035 -0.4519 -0.4958
 9733TIP3    H150614   2.661   2.292  11.960  0.9087 -0.0267  0.9351
 9733TIP3    H250615   2.811   2.278  11.941  0.5490 -1.4412 -1.3653
 9734TIP3   OH250616   5.720   4.554  11.766  0.4132  0.0103  0.0883
 9734TIP3    H150617   5.803   4.595  11.788  0.0440  0.3543  0.8618
 9734TIP3    H250618   5.703   4.581  11.675  1.4835 -0.6530 -0.3308
 9735TIP3   OH250619   3.265   2.476  12.378  0.6975  0.0086  0.4971
 9735TIP3    H150620   3.171   2.469  12.396  0.5983 -2.0446 -0.5572
 9735TIP3    H250621   3.271   2.545  12.312 -0.2951 -0.9992 -0.7008
 9736TIP3   OH250622   0.943   2.559   2.512  0.1324 -0.1695  0.2329
 9736TIP3    H150623   1.019   2.541   2.567  0.6733  0.1831 -0.3856
 9736TIP3    H250624   0.867   2.539   2.568  0.5962 -4.4657 -0.3231
 9737TIP3   OH250625   0.047   5.784  11.853  0.2454  0.1698  0.1033
 9737TIP3    H150626   0.048   5.819  11.764 -1.2608 -0.5740 -0.2284
 9737TIP3    H250627   0.118   5.721  11.855  0.6082  0.5547 -0.4172
 9738TIP3   OH250628   2.728   5.622  15.982 -0.2078  0.4373 -0.1124
 9738TIP3    H150629   2.708   5.565  16.057  0.5182  0.2104 -0.0815
 9738TIP3    H250630   2.666   5.695  15.990 -0.0502  0.4849  0.7856
 9739TIP3   OH250631   5.589   0.781  10.849 -0.0916  0.6299  0.0836
 9739TIP3    H150632   5.640   0.759  10.926  0.1590 -2.6654 -0.8510
 9739TIP3    H250633   5.501   0.748  10.869 -0.4564  1.3035 -0.3883
 9740TIP3   OH250634   0.296   2.591  14.676 -1.1366 -0.5054  0.0798
 9740TIP3    H150635   0.211   2.548  14.685  0.4048 -3.5305  1.7889
 9740TIP3    H250636   0.297   2.658  14.744 -2.0399 -0.6353  0.2280
 9741TIP3   OH250637   5.771   4.068  13.472  0.3498  0.0170  0.2081
 9741TIP3    H150638   5.778   4.105  13.384  0.0939  0.4692  0.3719
 9741TIP3    H250639   5.677   4.062  13.488  0.3902 -0.8079  0.1464
 9742TIP3   OH250640   3.432   5.408   1.874 -0.2983  0.0582 -0.1218
 9742TIP3    H150641   3.382   5.408   1.955  0.4947 -1.4254  0.4073
 9742TIP3    H250642   3.490   5.332   1.881  1.3498  1.1346 -1.1064
 9743TIP3   OH250643   1.534   3.812  14.046  0.9204 -0.5688 -0.0714
 9743TIP3    H150644   1.552   3.769  13.962  0.1805 -1.9698  0.4578
 9743TIP3    H250645   1.442   3.795  14.063  0.8005  0.5852  0.5582
 9744TIP3   OH250646   3.373   4.031   2.025  0.1398  0.1188  0.0229
 9744TIP3    H150647   3.320   3.952   2.017 -0.2309  0.4332 -0.6847
 9744TIP3    H250648   3.462   3.999   2.040 -0.3971 -0.4315  2.5859
 9745TIP3   OH250649   6.398   6.657  17.002 -0.1302 -0.0904 -0.2563
 9745TIP3    H150650   6.379   6.595  17.071 -0.6574  0.6594  0.2857
 9745TIP3    H250651   6.361   6.617  16.923  1.8202 -1.6758 -0.4414
 9746TIP3   OH250652   1.341   4.514  16.279  0.7678 -0.1818 -0.4804
 9746TIP3    H150653   1.319   4.472  16.196  0.5054  1.1293 -1.0946
 9746TIP3    H250654   1.280   4.476  16.343  1.6104 -1.9090 -0.6622
 9747TIP3   OH250655   5.126   1.587   2.841 -0.2348 -0.0469 -0.3235
 9747TIP3    H150656   5.134   1.608   2.748 -0.0591 -0.1002 -0.3209
 9747TIP3    H250657   5.046   1.632   2.869 -0.5345 -0.4067 -0.6058
 9748TIP3   OH250658   0.029   1.401  15.332  0.1325  0.1104  0.2752
 9748TIP3    H150659   0.001   1.425  15.243 -1.3033 -0.6884  0.4673
 9748TIP3    H250660  -0.003   1.472  15.387 -2.5318 -1.2179  0.6141
 9749TIP3   OH250661   3.623   4.733  15.619 -0.4226 -0.1707  0.0787
 9749TIP3    H150662   3.599   4.817  15.659 -0.1398 -0.7939  1.6145
 9749TIP3    H250663   3.549   4.712  15.563  0.1079  1.7660 -1.4717
 9750TIP3   OH250664   1.695   1.419   3.020  0.0127  0.3680  0.4095
 9750TIP3    H150665   1.610   1.384   3.044  0.6031 -1.0360  0.5751
 9750TIP3    H250666   1.744   1.422   3.103  0.3883  0.3720  0.1905
 9751TIP3   OH250667   1.684   3.475   5.657  0.3484 -0.1072  0.0763
 9751TIP3    H150668   1.619   3.545   5.655  0.4777  0.0037 -0.7947
 9751TIP3    H250669   1.726   3.483   5.742  1.5081  1.9440 -0.6159
 9752TIP3   OH250670   5.735   5.978   1.799  0.0498 -0.3857  0.0655
 9752TIP3    H150671   5.706   5.996   1.889  0.1475 -0.2684  0.0728
 9752TIP3    H250672   5.763   6.063   1.765 -0.0653 -0.4146 -0.1047
 9753TIP3   OH250673   0.044   3.974   3.009 -0.3934 -0.3968 -0.5769
 9753TIP3    H150674   0.017   3.889   2.973 -0.2622 -0.1557 -1.2643
 9753TIP3    H250675   0.054   3.959   3.102 -1.7289 -0.8073 -0.4688
 9754TIP3   OH250676   4.780   3.668  15.406  0.0070  0.6607  0.0411
 9754TIP3    H150677   4.876   3.665  15.409 -0.0241 -0.3414  0.5711
 9754TIP3    H250678   4.756   3.730  15.475  0.2877  1.5387 -0.6359
 9755TIP3   OH250679   3.138   6.010   3.494  0.1419 -0.1597 -0.5795
 9755TIP3    H150680   3.153   5.932   3.547  1.2180  0.0960 -0.4748
 9755TIP3    H250681   3.201   6.074   3.527 -0.8601  0.8356 -0.5286
 9756TIP3   OH250682   3.274   2.626   2.275  0.6037  0.6992 -0.5560
 9756TIP3    H150683   3.348   2.638   2.215 -0.1092 -0.2044 -1.6665
 9756TIP3    H250684   3.209   2.689   2.245 -0.1636 -0.4721 -1.4507
 9757TIP3   OH250685   6.689   1.584  13.790  0.3363 -0.0249 -0.4181
 9757TIP3    H150686   6.765   1.549  13.837  0.1809  0.1501 -0.0286
 9757TIP3    H250687   6.667   1.517  13.726  1.0188  0.0665 -0.7570
 9758TIP3   OH250688   5.971   1.588  17.315 -0.1730 -0.6821  0.1366
 9758TIP3    H150689   5.926   1.654  17.264  1.1614  0.1197 -0.0461
 9758TIP3    H250690   6.009   1.636  17.389 -2.0062 -1.7971  1.9184
 9759TIP3   OH250691   6.061   5.420   5.509 -0.4333 -0.2314 -0.4221
 9759TIP3    H150692   6.072   5.401   5.602  3.7650 -0.6739 -0.8360
 9759TIP3    H250693   6.065   5.335   5.466 -1.3151  0.0639 -1.1382
 9760TIP3   OH250694   0.721   1.016  16.137  0.0478  0.0150  0.4460
 9760TIP3    H150695   0.751   0.933  16.173  1.3985  0.1799 -0.2416
 9760TIP3    H250696   0.683   0.993  16.052 -3.5491 -0.4392  1.9797
 9761TIP3   OH250697   5.337   5.907   5.345  0.1812  0.6786 -0.1684
 9761TIP3    H150698   5.276   5.920   5.272  0.9427 -0.2358 -0.9850
 9761TIP3    H250699   5.421   5.936   5.311  0.3754  1.1447  0.6817
 9762TIP3   OH250700   2.664   6.291   5.857 -0.1960 -0.2992 -0.5950
 9762TIP3    H150701   2.751   6.260   5.832 -1.3907 -1.0279 -4.4116
 9762TIP3    H250702   2.678   6.382   5.881  1.7390 -0.6575 -0.1614
 9763TIP3   OH250703   3.172   1.055  12.788  0.2621 -0.1099 -0.6809
 9763TIP3    H150704   3.103   1.113  12.755  1.0845  1.7053  0.6323
 9763TIP3    H250705   3.153   1.047  12.881  2.0026  0.7347 -0.2191
 9764TIP3   OH250706   4.601   3.603  12.902 -0.6383  0.0374 -0.1045
 9764TIP3    H150707   4.680   3.657  12.900 -0.6199  0.1123  1.4193
 9764TIP3    H250708   4.617   3.534  12.837  0.4324  0.3916 -0.2342
 9765TIP3   OH250709   2.987   6.562  12.427  0.4212 -0.4484 -0.6329
 9765TIP3    H150710   2.916   6.524  12.480 -0.5115  1.6056 -0.3415
 9765TIP3    H250711   2.976   6.523  12.341 -0.9072 -0.3771 -0.5166
 9766TIP3   OH250712   6.505   3.032   4.335  0.1853  0.3107  0.3802
 9766TIP3    H150713   6.512   2.941   4.305  1.3366  0.7157 -0.6355
 9766TIP3    H250714   6.441   3.072   4.277  0.7793  0.5223 -0.1381
 9767TIP3   OH250715   3.890   3.239  14.959 -0.1643  0.1277 -0.0317
 9767TIP3    H150716   3.959   3.212  14.898 -0.0112 -1.6608  0.8396
 9767TIP3    H250717   3.810   3.238  14.908 -0.0041 -1.1108 -0.2926
 9768TIP3   OH250718   3.600   1.324  16.956 -0.0484  0.3774 -0.1397
 9768TIP3    H150719   3.554   1.268  16.894 -0.3479 -0.0457  0.4673
 9768TIP3    H250720   3.666   1.369  16.902 -1.1249  0.9742 -1.0101
 9769TIP3   OH250721   5.293   1.701  16.169  0.4490  0.1755  0.2893
 9769TIP3    H150722   5.369   1.741  16.128 -1.0200  1.9459 -0.8918
 9769TIP3    H250723   5.227   1.771  16.170 -1.9421 -1.9206 -0.9189
 9770TIP3   OH250724   2.966   2.185   5.739  0.0938  0.4614 -0.1736
 9770TIP3    H150725   2.881   2.153   5.709 -0.4400  2.6065 -1.1362
 9770TIP3    H250726   2.947   2.228   5.823  1.0334 -2.6949  1.8298
 9771TIP3   OH250727   0.301   3.681   0.337 -1.5237  0.0205 -0.0809
 9771TIP3    H150728   0.373   3.727   0.380 -2.7499  0.4364  1.6422
 9771TIP3    H250729   0.305   3.709   0.246  0.3108  0.2199  0.0105
 9772TIP3   OH250730   5.948   3.342   0.403  0.8463  0.0332  0.3333
 9772TIP3    H150731   5.873   3.308   0.354  0.5405  1.2383 -0.0655
 9772TIP3    H250732   6.022   3.289   0.373 -0.0937 -2.4854  2.1276
 9773TIP3   OH250733   6.480   1.441  14.093  0.1398 -0.0353 -0.7413
 9773TIP3    H150734   6.435   1.416  14.173  1.2554  0.8596  0.2170
 9773TIP3    H250735   6.456   1.533  14.080  1.9650  0.6173  0.0654
 9774TIP3   OH250736   4.980   1.805   3.313 -0.0865  0.4000  0.3754
 9774TIP3    H150737   4.986   1.787   3.407 -1.1093 -0.0773  0.3650
 9774TIP3    H250738   5.031   1.886   3.301  1.1180 -0.2122  1.1148
 9775TIP3   OH250739   3.918   4.762  14.758 -0.0650  0.2428  0.7277
 9775TIP3    H150740   3.869   4.840  14.782  0.7033  0.7651  0.6096
 9775TIP3    H250741   4.010   4.786  14.769  0.1971 -0.4764  0.2046
 9776TIP3   OH250742   2.163   1.576  16.278  0.3545  0.1639 -0.5964
 9776TIP3    H150743   2.114   1.658  16.273 -0.7486 -0.5185 -1.5354
 9776TIP3    H250744   2.101   1.509  16.248  1.9690 -0.6928 -2.2150
 9777TIP3   OH250745   0.981   0.042  17.020 -0.0759  0.3262 -0.0930
 9777TIP3    H150746   0.948   0.058  16.932 -1.7487  0.5151  0.5425
 9777TIP3    H250747   1.054   0.104  17.031 -1.7540  2.4347 -0.2950
 9778TIP3   OH250748   6.727   2.805   2.627  0.2155 -0.0204 -0.3274
 9778TIP3    H150749   6.683   2.880   2.667 -2.1962 -0.6785 -1.5648
 9778TIP3    H250750   6.740   2.831   2.535 -0.2095 -0.9004 -0.6504
 9779TIP3   OH250751   6.604   6.361   3.799 -0.3001 -0.3422 -0.1973
 9779TIP3    H150752   6.674   6.424   3.781  0.7711 -1.0696  1.2656
 9779TIP3    H250753   6.578   6.329   3.712  0.5164  0.6317 -0.8224
 9780TIP3   OH250754   4.111   6.087   5.519  0.1461  0.0047 -0.4479
 9780TIP3    H150755   4.053   6.147   5.566  1.1354  0.6333  0.0099
 9780TIP3    H250756   4.169   6.051   5.586  0.1384 -0.8000 -0.8557
 9781TIP3   OH250757   3.165   5.252  15.155 -0.5014  0.0409 -0.5655
 9781TIP3    H150758   3.081   5.211  15.171 -0.2104  0.0325  1.0540
 9781TIP3    H250759   3.228   5.180  15.153 -0.5152  0.0261 -1.9436
 9782TIP3   OH250760   2.996   6.203   1.179 -0.2039  0.2737 -0.5037
 9782TIP3    H150761   2.901   6.198   1.185 -0.1966  0.2004 -0.4432
 9782TIP3    H250762   3.027   6.185   1.268 -0.1435  0.6008 -0.4593
 9783TIP3   OH250763   4.361   3.742  11.636 -0.3470  0.3007  0.2411
 9783TIP3    H150764   4.342   3.802  11.708 -0.0989  0.4848  0.1564
 9783TIP3    H250765   4.343   3.655  11.671  2.7775  0.0595  1.6059
 9784TIP3   OH250766   6.174   4.401   2.176  0.3800 -0.5708  0.0667
 9784TIP3    H150767   6.167   4.494   2.199  0.3316 -0.3934 -0.6343
 9784TIP3    H250768   6.255   4.372   2.219  1.1783  0.1638 -0.8782
 9785TIP3   OH250769   6.319   1.066   0.951 -0.0581  0.4525 -0.2073
 9785TIP3    H150770   6.261   0.994   0.926 -1.4825  2.2059 -2.3698
 9785TIP3    H250771   6.387   1.025   1.004 -1.7576 -2.1577  0.1513
 9786TIP3   OH250772   0.687   4.259  10.383  0.6904  0.3188  0.4300
 9786TIP3    H150773   0.670   4.299  10.468 -0.2077 -2.0888  1.4626
 9786TIP3    H250774   0.711   4.333  10.326  1.6042  1.9541  2.8030
 9787TIP3   OH250775   2.282   0.923   0.822  0.3725  0.3046 -0.1925
 9787TIP3    H150776   2.190   0.925   0.847  0.6856 -0.4181  1.1112
 9787TIP3    H250777   2.286   0.970   0.739 -1.2396 -0.0602 -0.5026
 9788TIP3   OH250778   3.608   3.850   0.990  0.0629  0.0877 -0.0310
 9788TIP3    H150779   3.528   3.835   0.940 -0.2133  0.4649  0.2954
 9788TIP3    H250780   3.640   3.762   1.011  0.6933 -0.1118 -1.6547
 9789TIP3   OH250781   5.543   2.370  12.417  0.0407 -0.2873  0.4800
 9789TIP3    H150782   5.550   2.343  12.325 -1.7387 -0.2807  0.3082
 9789TIP3    H250783   5.614   2.323  12.461  0.3707 -0.9884 -0.7479
 9790TIP3   OH250784   4.301   1.420   2.668 -0.0651  0.0553 -0.4605
 9790TIP3    H150785   4.316   1.451   2.579 -0.3777 -1.2305 -0.9812
 9790TIP3    H250786   4.226   1.471   2.699 -0.4318 -0.0148 -1.2164
 9791TIP3   OH250787   1.113   5.155   0.370 -0.0476 -0.3568 -0.4163
 9791TIP3    H150788   1.047   5.086   0.358 -0.7391  0.5309 -2.1589
 9791TIP3    H250789   1.166   5.150   0.290  0.2099  0.7822 -0.3203
 9792TIP3   OH250790   4.759   0.739   1.172  0.1741  0.6388 -0.4722
 9792TIP3    H150791   4.835   0.761   1.226 -0.6890  0.0431  1.0330
 9792TIP3    H250792   4.778   0.651   1.138 -0.9827 -0.7558  2.1928
 9793TIP3   OH250793   3.984   2.206   2.987 -0.7365 -0.4242  0.1517
 9793TIP3    H150794   3.949   2.146   3.053 -1.6276  1.0732  1.0738
 9793TIP3    H250795   3.906   2.247   2.949 -0.1674 -0.3811 -1.0005
 9794TIP3   OH250796   1.460   1.632  13.255 -0.4769 -0.0732 -0.1039
 9794TIP3    H150797   1.508   1.680  13.187 -2.5183  1.2612 -0.6833
 9794TIP3    H250798   1.528   1.600  13.314  1.2772 -0.2712 -2.1127
 9795TIP3   OH250799   4.267   5.155   2.640 -0.4304  0.0695 -0.1139
 9795TIP3    H150800   4.313   5.203   2.709  0.5040 -0.9945  0.0416
 9795TIP3    H250801   4.197   5.214   2.612  1.3356  2.0052 -0.7314
 9796TIP3   OH250802   2.699   2.810   4.802 -0.0541  0.4942 -0.1858
 9796TIP3    H150803   2.705   2.816   4.707  0.6393 -0.2055 -0.1977
 9796TIP3    H250804   2.789   2.795   4.832 -0.4941 -1.3520  0.3920
 9797TIP3   OH250805   0.078   6.342   2.028  0.1815 -0.7022  0.7020
 9797TIP3    H150806   0.155   6.291   2.001 -0.3735 -0.9024 -0.5998
 9797TIP3    H250807   0.088   6.425   1.982 -0.8810 -1.1158 -0.3366
 9798TIP3   OH250808   3.278   4.029  12.307  0.0852  0.3932  0.3507
 9798TIP3    H150809   3.346   4.078  12.352  1.1091  1.7163 -2.4358
 9798TIP3    H250810   3.211   4.095  12.286  0.0519  0.0057 -0.8088
 9799TIP3   OH250811   6.546   1.889   1.920 -0.5720 -0.6860 -0.0297
 9799TIP3    H150812   6.469   1.935   1.953 -0.4566 -0.4961 -0.0199
 9799TIP3    H250813   6.617   1.916   1.979 -0.3113 -0.1394 -0.5853
 9800TIP3   OH250814   2.660   5.871  16.525  0.3349  0.0268  0.4543
 9800TIP3    H150815   2.596   5.922  16.474 -0.3916  0.8471  2.1148
 9800TIP3    H250816   2.643   5.780  16.500 -0.5189  0.3461 -0.1848
 9801TIP3   OH250817   2.437   6.530   3.181 -0.6510  0.3864  0.1590
 9801TIP3    H150818   2.527   6.523   3.214 -0.7197  0.9229  0.4633
 9801TIP3    H250819   2.393   6.453   3.216 -1.1048  1.6460  2.5367
 9802TIP3   OH250820   6.504   1.295  16.546  0.5639  0.2605 -0.6421
 9802TIP3    H150821   6.444   1.366  16.523  0.7351  0.6468  0.0776
 9802TIP3    H250822   6.471   1.259  16.628  2.0462  1.3929  0.5165
 9803TIP3   OH250823   3.093   0.571   6.585 -0.1254 -0.6527 -0.0984
 9803TIP3    H150824   3.028   0.556   6.516  0.1139 -1.4242 -0.1619
 9803TIP3    H250825   3.072   0.506   6.652  1.5358 -2.0145 -0.8154
 9804TIP3   OH250826   4.914   6.687   2.658 -0.1545 -0.0566  0.0660
 9804TIP3    H150827   4.933   6.769   2.613  0.5756  0.1150  0.6660
 9804TIP3    H250828   4.822   6.669   2.637  0.2387 -0.1484 -1.7047
 9805TIP3   OH250829   0.845   6.370  14.650  0.1326 -0.4421  0.1022
 9805TIP3    H150830   0.873   6.368  14.558 -0.6710  0.1033 -0.1691
 9805TIP3    H250831   0.790   6.448  14.656 -0.8482 -1.1630  0.7484
 9806TIP3   OH250832   3.154   0.596  14.626 -0.1504 -0.5590  0.4228
 9806TIP3    H150833   3.206   0.676  14.619 -0.0165 -0.6318  0.5831
 9806TIP3    H250834   3.212   0.526  14.598  0.4912 -0.8922  2.4164
 9807TIP3   OH250835   0.162   6.192   5.182 -0.5725  0.6350  0.4890
 9807TIP3    H150836   0.146   6.278   5.220 -0.0900  1.0274 -0.1792
 9807TIP3    H250837   0.207   6.143   5.251 -2.2273  0.3693  1.4467
 9808TIP3   OH250838   5.574   3.185  14.431  0.2934  0.3199  0.4849
 9808TIP3    H150839   5.587   3.277  14.454 -1.0709  0.4177  0.9547
 9808TIP3    H250840   5.515   3.152  14.499  1.2744 -1.0862  0.7017
 9809TIP3   OH250841   5.024   2.226  14.186 -0.2478  0.2421 -0.1125
 9809TIP3    H150842   5.053   2.159  14.124 -0.9554  0.0442 -0.2388
 9809TIP3    H250843   4.966   2.283  14.135 -2.6556 -1.1914  0.8253
 9810TIP3   OH250844   6.129   5.366   3.733 -0.7895  0.1371  0.0222
 9810TIP3    H150845   6.073   5.397   3.805  0.5528  0.8232  0.8051
 9810TIP3    H250846   6.161   5.281   3.762 -0.0578  0.5194  0.3606
 9811TIP3   OH250847   5.835   6.446  13.619 -0.1357 -0.0310  0.4672
 9811TIP3    H150848   5.847   6.491  13.703 -0.5021  0.7551  0.1042
 9811TIP3    H250849   5.780   6.371  13.641 -0.4913  0.3421  0.8766
 9812TIP3   OH250850   3.944   1.176  13.171 -0.1563 -0.1547  0.0501
 9812TIP3    H150851   3.933   1.144  13.082  1.1789  1.0597 -0.5911
 9812TIP3    H250852   4.009   1.116  13.210  0.7958  0.5068 -0.4797
 9813TIP3   OH250853   3.287   5.270   3.650 -0.2330  0.4400  0.6602
 9813TIP3    H150854   3.192   5.254   3.651 -0.3087 -0.0273 -2.9281
 9813TIP3    H250855   3.325   5.189   3.683 -1.0791 -1.6706 -2.9969
 9814TIP3   OH250856   3.251   6.667   1.465 -0.3077  0.4063 -0.3607
 9814TIP3    H150857   3.297   6.692   1.545 -0.7643  0.7773 -0.2102
 9814TIP3    H250858   3.289   6.723   1.397  1.3044 -1.1006 -0.7609
 9815TIP3   OH250859   2.919   6.179   5.735  0.5284 -0.3903  0.2291
 9815TIP3    H150860   2.969   6.173   5.654  0.6758  1.7686  0.1165
 9815TIP3    H250861   2.953   6.107   5.789  0.0335 -2.2356 -1.7644
 9816TIP3   OH250862   0.331   2.642  11.719 -0.3203  0.0436 -0.1013
 9816TIP3    H150863   0.274   2.718  11.731 -0.3496  0.0434 -0.2354
 9816TIP3    H250864   0.408   2.660  11.773 -0.2371  0.2590 -0.2916
 9817TIP3   OH250865   2.225   2.728   3.446  0.4601  0.2497 -0.1432
 9817TIP3    H150866   2.169   2.787   3.497  0.6630 -0.3368  0.7806
 9817TIP3    H250867   2.165   2.682   3.388  0.3584  1.7196 -1.2440
 9818TIP3   OH250868   5.983   4.759  11.152 -0.4632 -0.1191 -0.5134
 9818TIP3    H150869   6.036   4.770  11.231 -1.2661  1.9022 -0.1853
 9818TIP3    H250870   5.985   4.845  11.109 -2.7200 -0.1978 -0.9106
 9819TIP3   OH250871   0.736   0.361   1.918 -0.0794 -0.0052 -0.0379
 9819TIP3    H150872   0.759   0.413   1.841  2.2168  0.3245  0.7836
 9819TIP3    H250873   0.759   0.271   1.893  0.4355  0.0664  0.1797
 9820TIP3   OH250874   0.569   5.333   3.001 -0.4085 -0.5778 -0.1187
 9820TIP3    H150875   0.485   5.314   2.959  0.0118  0.2920 -1.3959
 9820TIP3    H250876   0.583   5.259   3.060 -0.6941 -2.2064 -1.9973
 9821TIP3   OH250877   5.009   4.768  13.678  0.0969 -0.0921 -0.4735
 9821TIP3    H150878   5.089   4.814  13.702  1.2015 -1.9785 -0.2740
 9821TIP3    H250879   5.007   4.692  13.737 -1.4910 -0.4325 -0.9256
 9822TIP3   OH250880   3.398   6.209   3.061 -0.2012 -0.4121  0.1314
 9822TIP3    H150881   3.382   6.132   3.115  1.7524 -0.8128  0.2356
 9822TIP3    H250882   3.490   6.201   3.035 -0.2203  1.3943 -0.6527
 9823TIP3   OH250883   5.539   3.476  11.766 -0.0015  0.3107  0.0480
 9823TIP3    H150884   5.446   3.497  11.776 -0.0739 -0.1300  0.3174
 9823TIP3    H250885   5.583   3.562  11.761 -0.5691  0.5496 -1.6392
 9824TIP3   OH250886   3.894   6.419  16.265 -0.0528 -0.1524 -0.0396
 9824TIP3    H150887   3.954   6.483  16.302 -1.8460  1.4547  0.2279
 9824TIP3    H250888   3.828   6.471  16.220 -2.2714 -1.6929  1.2153
 9825TIP3   OH250889   2.526   3.203  14.320  0.0054  0.2510  0.0506
 9825TIP3    H150890   2.528   3.149  14.241 -1.2555  1.6167 -0.9876
 9825TIP3    H250891   2.437   3.193  14.353  0.0536  0.9162  0.3904
 9826TIP3   OH250892   1.668   5.659   0.873  0.0991 -0.4680  0.1641
 9826TIP3    H150893   1.652   5.578   0.921 -0.1463 -0.8846 -0.5935
 9826TIP3    H250894   1.680   5.631   0.782 -0.1583  0.3569 -0.1402
 9827TIP3   OH250895   3.600   6.732  11.838 -0.3364 -0.2200  0.1523
 9827TIP3    H150896   3.688   6.753  11.806 -1.1471  2.7079 -0.4682
 9827TIP3    H250897   3.559   6.685  11.766  0.0727  0.2750 -0.4151
 9828TIP3   OH250898   5.115   3.793   1.712  0.0585 -0.0183  0.2691
 9828TIP3    H150899   5.187   3.829   1.764 -0.0339 -0.0816  0.4402
 9828TIP3    H250900   5.036   3.830   1.752 -0.1598 -1.7103  1.5080
 9829TIP3   OH250901   2.423   5.268   3.034  0.9438  0.2280  0.4896
 9829TIP3    H150902   2.370   5.225   2.967  1.1478 -2.8385  2.1416
 9829TIP3    H250903   2.363   5.327   3.079  0.5364  1.4722 -1.5689
 9830TIP3   OH250904   2.956   5.175   1.810 -0.4441 -0.1343  0.0458
 9830TIP3    H150905   2.872   5.140   1.839 -0.7011  1.5856  1.5746
 9830TIP3    H250906   2.974   5.247   1.870  2.1798 -0.4820 -0.1919
 9831TIP3   OH250907   5.303   5.936   2.110  0.8321  0.2375 -0.0370
 9831TIP3    H150908   5.306   5.847   2.076  0.8542  0.0314  0.4966
 9831TIP3    H250909   5.282   5.926   2.203  2.4757  0.6977  0.4137
 9832TIP3   OH250910   0.119   2.585  11.994  0.0392  0.6993 -0.0087
 9832TIP3    H150911   0.096   2.500  12.030  0.0779 -0.0835 -1.7366
 9832TIP3    H250912   0.202   2.607  12.035 -0.8783  0.8438  1.8969
 9833TIP3   OH250913   1.061   0.569   1.542 -0.4097 -0.1409 -0.0188
 9833TIP3    H150914   1.147   0.533   1.564 -0.2007  0.8851  0.9079
 9833TIP3    H250915   1.076   0.662   1.529 -1.6688  0.4018  1.9612
 9834TIP3   OH250916   5.321   6.322  17.192  0.1596 -0.2077 -0.1459
 9834TIP3    H150917   5.391   6.271  17.151 -1.5299 -2.1356 -0.7949
 9834TIP3    H250918   5.344   6.323  17.285  2.0154  0.8721 -0.5718
 9835TIP3   OH250919   1.554   0.091   6.422 -0.2275  0.0624 -0.1862
 9835TIP3    H150920   1.500   0.134   6.356 -0.7776 -2.1650 -1.2820
 9835TIP3    H250921   1.492   0.066   6.491  0.0165  0.5968  0.2365
 9836TIP3   OH250922   2.349   0.511   3.389 -0.3293  0.3338 -0.0122
 9836TIP3    H150923   2.429   0.553   3.360 -0.9394  0.0805 -2.2684
 9836TIP3    H250924   2.279   0.560   3.346 -1.3648  0.0959  1.3269
 9837TIP3   OH250925   4.253   5.541   5.370  0.0767  0.4929  0.1991
 9837TIP3    H150926   4.278   5.550   5.277  0.5534 -1.4600  0.0863
 9837TIP3    H250927   4.323   5.587   5.417  0.7370  0.1006 -0.3622
 9838TIP3   OH250928   4.044   5.839  15.559  0.4435 -0.2877 -0.1114
 9838TIP3    H150929   4.085   5.780  15.623  1.8648  1.2573  0.4871
 9838TIP3    H250930   4.111   5.851  15.492  0.5356  1.2742  0.2163
 9839TIP3   OH250931   0.190   0.585  17.392  0.5542  0.2662  0.0698
 9839TIP3    H150932   0.120   0.547  17.340  0.5421  1.4361 -0.7851
 9839TIP3    H250933   0.148   0.652  17.446  0.3085 -1.7945  2.6683
 9840TIP3   OH250934   6.469   4.813   0.034  0.2265 -0.1384  0.1537
 9840TIP3    H150935   6.484   4.881   0.099 -0.8323  0.9263 -0.6780
 9840TIP3    H250936   6.397   4.761   0.069 -1.1528  1.1604 -0.6825
 9841TIP3   OH250937   0.519   1.982   0.700  0.5859  0.3518  0.2124
 9841TIP3    H150938   0.524   2.077   0.692 -1.5669  0.4566 -0.4882
 9841TIP3    H250939   0.508   1.950   0.610 -1.9801 -0.2304  0.6308
 9842TIP3   OH250940   2.055   6.699  11.297  0.1387 -0.7470 -0.9297
 9842TIP3    H150941   2.013   6.632  11.350 -1.7143  0.5426 -0.6518
 9842TIP3    H250942   1.991   6.717  11.227 -0.0712  1.6416 -0.2105
 9843TIP3   OH250943   6.550   3.996   0.745 -0.7162 -0.3586 -0.0166
 9843TIP3    H150944   6.473   3.976   0.691 -0.4856 -0.0872 -0.4523
 9843TIP3    H250945   6.523   3.972   0.834 -2.9039  3.6491  0.6591
 9844TIP3   OH250946   2.177   4.579   2.160 -0.3888  0.2882  0.3583
 9844TIP3    H150947   2.142   4.626   2.084 -0.7957 -0.8283 -0.1574
 9844TIP3    H250948   2.137   4.492   2.156  0.4565 -0.1609  1.2168
 9845TIP3   OH250949   5.906   1.101  14.573  0.0437 -0.2902 -1.1042
 9845TIP3    H150950   5.828   1.149  14.600  1.8397  1.7496  0.9265
 9845TIP3    H250951   5.924   1.130  14.484  0.0009  1.3940 -0.5910
 9846TIP3   OH250952   6.715   1.371  16.940  0.3233  0.0285 -0.1162
 9846TIP3    H150953   6.759   1.287  16.930  0.0681  0.1115 -2.5482
 9846TIP3    H250954   6.785   1.436  16.936  0.3165  0.0139 -0.5134
 9847TIP3   OH250955   4.929   4.548   5.337  0.1060 -0.0030  0.1469
 9847TIP3    H150956   4.995   4.491   5.376 -0.4364 -0.7791 -0.0442
 9847TIP3    H250957   4.930   4.626   5.392  0.0809 -0.6570  1.1022
 9848TIP3   OH250958   2.916   3.535   5.277  0.3804  0.2973  0.5812
 9848TIP3    H150959   3.000   3.572   5.250  0.2117  1.6411  1.7278
 9848TIP3    H250960   2.880   3.601   5.338  0.0981 -1.8057  2.8467
 9849TIP3   OH250961   1.810   4.547  15.895  0.1612  0.5755 -0.0644
 9849TIP3    H150962   1.805   4.452  15.907  3.8593 -0.2553 -3.1048
 9849TIP3    H250963   1.864   4.578  15.967  2.1093 -0.3681 -1.0375
 9850TIP3   OH250964   2.474   0.641  11.858 -0.3677 -0.3411 -0.2393
 9850TIP3    H150965   2.510   0.682  11.936 -1.2721  0.5756 -0.2854
 9850TIP3    H250966   2.546   0.643  11.795  0.0824 -0.2716  0.2727
 9851TIP3   OH250967   3.231   5.922   2.057  0.4724  0.5718 -0.3304
 9851TIP3    H150968   3.256   6.009   2.025 -0.1137  1.0746  0.5298
 9851TIP3    H250969   3.277   5.913   2.141 -0.0840  0.3886 -0.0382
 9852TIP3   OH250970   3.827   2.378  15.913 -0.3950 -0.2521 -0.0753
 9852TIP3    H150971   3.828   2.285  15.936 -1.1716  0.0730  1.4531
 9852TIP3    H250972   3.734   2.402  15.920 -0.2230  0.5857 -0.6465
 9853TIP3   OH250973   1.270   2.166  10.820 -0.3736 -0.1893  0.0111
 9853TIP3    H150974   1.233   2.225  10.754  1.5627  1.4617  0.2826
 9853TIP3    H250975   1.229   2.194  10.902 -0.4424 -0.0952 -0.0542
 9854TIP3   OH250976   4.593   2.541   3.913  0.1874  0.5313 -0.4163
 9854TIP3    H150977   4.566   2.624   3.953 -0.0511 -0.8273  2.4400
 9854TIP3    H250978   4.681   2.526   3.945  0.0125 -0.5881 -0.4267
 9855TIP3   OH250979   0.044   0.102   2.021 -0.6600 -0.1854 -0.3747
 9855TIP3    H150980   0.128   0.067   2.050 -0.0538  1.7379  0.3164
 9855TIP3    H250981  -0.019   0.076   2.088  0.1846  1.7519  1.2519
 9856TIP3   OH250982   1.847   0.925  16.497 -0.0951  0.0296  0.3035
 9856TIP3    H150983   1.941   0.911  16.489  0.3804  1.5180  2.4197
 9856TIP3    H250984   1.836   1.020  16.490 -1.3433 -0.0685  0.7094
 9857TIP3   OH250985   2.492   0.390   4.634 -0.3290 -0.2631  0.1625
 9857TIP3    H150986   2.562   0.345   4.681  0.2245  0.0341 -0.3595
 9857TIP3    H250987   2.535   0.428   4.558 -1.0408  0.0259 -0.1042
 9858TIP3   OH250988   2.913   1.641   2.507 -0.2933  0.0890  0.4109
 9858TIP3    H150989   2.865   1.613   2.584 -1.3471 -1.8198 -0.8791
 9858TIP3    H250990   2.852   1.630   2.434  1.3402 -0.2006 -0.9892
 9859TIP3   OH250991   4.356   1.816  17.265  0.0647 -0.1054 -0.0947
 9859TIP3    H150992   4.273   1.797  17.221  0.4928 -0.3239 -0.8196
 9859TIP3    H250993   4.332   1.874  17.337 -0.7783 -0.5174 -0.0275
 9860TIP3   OH250994   6.004   3.470  15.324 -0.1723  0.2596 -0.0602
 9860TIP3    H150995   6.036   3.414  15.395  2.2171  1.2642 -0.2543
 9860TIP3    H250996   6.018   3.418  15.245 -1.0032 -0.1020  0.0240
 9861TIP3   OH250997   1.220   2.268  15.713 -0.7395 -0.4296  0.2053
 9861TIP3    H150998   1.213   2.264  15.808 -2.2318 -0.6598  0.1096
 9861TIP3    H250999   1.186   2.355  15.690 -0.9292 -0.5945 -0.1474
 9862TIP3   OH251000   5.402   2.779   6.083  0.4381  0.3224  0.4986
 9862TIP3    H151001   5.363   2.851   6.035 -0.0215  1.0657  1.9240
 9862TIP3    H251002   5.488   2.812   6.110  0.2304  0.3476  1.1461
 9863TIP3   OH251003   3.946   4.210  15.395  0.3531  0.0755 -0.0667
 9863TIP3    H151004   3.992   4.137  15.435  2.4555  0.2375 -1.9720
 9863TIP3    H251005   3.888   4.170  15.330  0.3829  0.0171 -0.0564
 9864TIP3   OH251006   1.662   5.049  14.328  0.0688  0.0201  0.3015
 9864TIP3    H151007   1.657   5.140  14.357 -1.2976  0.8903 -2.2797
 9864TIP3    H251008   1.576   5.032  14.290  0.5805 -2.0845 -0.0327
 9865TIP3   OH251009   3.730   3.369  15.645  0.1604 -0.0011  0.7796
 9865TIP3    H151010   3.712   3.428  15.571  0.1710  0.2558  0.9816
 9865TIP3    H251011   3.700   3.283  15.614  1.3165 -0.1472  0.0008
 9866TIP3   OH251012   0.446   2.717  14.466  0.5317  0.1292 -0.4526
 9866TIP3    H151013   0.401   2.671  14.537  0.9527  0.0219 -0.2574
 9866TIP3    H251014   0.411   2.677  14.386  0.7458 -0.3911 -0.2902
 9867TIP3   OH251015   6.655   4.361   3.040 -0.1711 -0.3022  0.1810
 9867TIP3    H151016   6.666   4.323   2.953 -0.8641 -0.8636  0.3301
 9867TIP3    H251017   6.744   4.371   3.074  0.1125  0.1101 -0.6667
 9868TIP3   OH251018   4.145   0.274   5.235 -0.1624  0.0455  0.4559
 9868TIP3    H151019   4.234   0.250   5.209  0.1886  0.7456  0.9826
 9868TIP3    H251020   4.116   0.201   5.290 -0.3472 -0.7260 -0.6398
 9869TIP3   OH251021   5.115   0.413   0.533  0.1041  0.6321 -0.0803
 9869TIP3    H151022   5.108   0.327   0.491 -0.1966  1.2825 -1.4119
 9869TIP3    H251023   5.135   0.393   0.624  0.1839 -0.8489 -0.3921
 9870TIP3   OH251024   4.067   2.120  11.334 -0.0501 -0.1634  0.0032
 9870TIP3    H151025   4.026   2.135  11.248 -0.4750  1.1489  0.4216
 9870TIP3    H251026   4.160   2.107  11.314  0.3666  2.9441 -0.4523
 9871TIP3   OH251027   5.489   0.658  13.719  0.2627 -0.0680  0.1082
 9871TIP3    H151028   5.426   0.612  13.663  0.7052 -0.4821 -0.0627
 9871TIP3    H251029   5.569   0.606  13.712  0.0785 -0.6464  1.8185
 9872TIP3   OH251030   2.743   4.483  11.940  0.0760 -0.2876 -0.2348
 9872TIP3    H151031   2.781   4.567  11.916  0.8364 -0.5684 -0.0385
 9872TIP3    H251032   2.726   4.439  11.857  1.0724 -0.5454 -0.3111
 9873TIP3   OH251033   6.010   5.571   4.988 -0.6142  0.0857  0.3362
 9873TIP3    H151034   6.049   5.638   4.932 -0.9768  2.2059  2.4711
 9873TIP3    H251035   6.071   5.497   4.983  0.4219  0.9832 -1.1902
 9874TIP3   OH251036   2.190   5.081   0.475  0.1835  0.0501  0.0483
 9874TIP3    H151037   2.153   5.025   0.543  0.1044  2.3945  2.0636
 9874TIP3    H251038   2.285   5.065   0.479  0.1464 -0.0550  0.4955
 9875TIP3   OH251039   5.630   5.464  15.653  0.2927  0.3191  0.5294
 9875TIP3    H151040   5.581   5.396  15.699 -0.5917  0.6619  0.1188
 9875TIP3    H251041   5.715   5.467  15.698  0.2641 -0.8775  0.7140
 9876TIP3   OH251042   1.570   3.928  16.849 -0.5586 -0.4103  0.1424
 9876TIP3    H151043   1.642   3.960  16.903 -0.2319 -2.9331  1.3721
 9876TIP3    H251044   1.594   3.837  16.828 -2.6971 -0.8595 -0.6593
 9877TIP3   OH251045   6.632   4.965   5.241 -0.3015 -0.4064  0.7523
 9877TIP3    H151046   6.714   5.013   5.246 -1.3789  1.6295 -0.0927
 9877TIP3    H251047   6.654   4.886   5.192  0.6784  1.3084 -1.7658
 9878TIP3   OH251048   2.848   6.226  12.712  0.0705 -0.1893  0.6757
 9878TIP3    H151049   2.760   6.264  12.707  0.2812  0.8287  3.1989
 9878TIP3    H251050   2.843   6.163  12.783  1.1360 -0.9626  0.1047
 9879TIP3   OH251051   1.374   3.766   1.544 -0.4135  0.3052 -0.1016
 9879TIP3    H151052   1.440   3.762   1.475 -0.5429 -0.1244 -0.2025
 9879TIP3    H251053   1.311   3.697   1.522  0.1752 -0.6612  1.0762
 9880TIP3   OH251054   1.048   3.734   1.702 -0.0392 -0.1603 -0.0109
 9880TIP3    H151055   1.065   3.689   1.619 -0.4508  1.6128 -1.1118
 9880TIP3    H251056   1.098   3.816   1.696 -0.4143  0.1972  1.3188
 9881TIP3   OH251057   6.162   5.160  14.914 -0.2657 -0.1472  0.2238
 9881TIP3    H151058   6.146   5.089  14.852  0.0632  1.0263 -1.2768
 9881TIP3    H251059   6.257   5.176  14.908 -0.4696  1.0106 -0.1751
 9882TIP3   OH251060   4.926   5.541   3.747 -0.0467 -0.4329 -0.1282
 9882TIP3    H151061   4.966   5.551   3.833 -0.8256 -1.5387  0.3967
 9882TIP3    H251062   4.863   5.613   3.741  0.5522  0.0953 -0.0967
 9883TIP3   OH251063   0.342   1.455   4.016 -0.2647 -0.5906 -0.1226
 9883TIP3    H151064   0.264   1.436   3.962 -1.7080  0.1938  1.5744
 9883TIP3    H251065   0.322   1.539   4.057  1.9672  0.1261 -0.4158
 9884TIP3   OH251066   5.011   2.354  15.703 -0.2985  0.2176 -0.3196
 9884TIP3    H151067   5.035   2.270  15.664 -0.2217  0.1086 -0.0353
 9884TIP3    H251068   4.997   2.335  15.795  2.0957  0.9434  0.2645
 9885TIP3   OH251069   6.447   0.541   1.575 -0.0435 -0.2374 -0.0039
 9885TIP3    H151070   6.370   0.582   1.536 -1.6513 -3.4126 -0.4484
 9885TIP3    H251071   6.427   0.448   1.576  2.7620 -0.9560  2.2812
 9886TIP3   OH251072   3.102   4.571  13.014  0.8418 -0.4104  0.2694
 9886TIP3    H151073   3.142   4.546  12.931 -2.2656 -2.3574 -0.8274
 9886TIP3    H251074   3.127   4.502  13.075 -0.8662 -1.7787 -0.4887
 9887TIP3   OH251075   2.356   1.068  17.159  0.0106 -0.0766  0.2337
 9887TIP3    H151076   2.330   0.981  17.128 -0.8460  0.3024 -0.1395
 9887TIP3    H251077   2.331   1.069  17.251 -0.5593 -0.0063  0.0807
 9888TIP3   OH251078   6.008   1.304   3.962  0.0123 -0.4012  0.6082
 9888TIP3    H151079   6.073   1.235   3.946  1.2810  0.7302  0.7686
 9888TIP3    H251080   5.923   1.261   3.946  0.8366 -0.6319 -4.9314
 9889TIP3   OH251081   1.187   5.558   1.287  0.8090 -0.5986 -0.1910
 9889TIP3    H151082   1.121   5.581   1.222  1.3566 -1.0145 -0.9168
 9889TIP3    H251083   1.168   5.614   1.362  1.1254  1.0475 -1.2948
 9890TIP3   OH251084   2.662   0.355  14.567 -0.9453  0.5184 -0.1354
 9890TIP3    H151085   2.658   0.450  14.559 -2.2724  0.5379  0.5753
 9890TIP3    H251086   2.747   0.332  14.528 -0.0948  2.0816  0.6905
 9891TIP3   OH251087   5.903   3.478  13.252  0.1480 -0.6224 -0.1929
 9891TIP3    H151088   5.809   3.472  13.268 -0.6136  2.7161 -2.2388
 9891TIP3    H251089   5.914   3.442  13.164  0.1647  1.6149 -1.1743
 9892TIP3   OH251090   2.591   0.582  14.327  0.1871 -0.3176 -0.1147
 9892TIP3    H151091   2.507   0.601  14.286  0.1541  0.3063  0.2466
 9892TIP3    H251092   2.642   0.540  14.257 -1.0017 -2.3202  0.1347
 9893TIP3   OH251093   0.779   0.689   0.810 -0.0603  0.0067 -0.4961
 9893TIP3    H151094   0.756   0.711   0.900 -0.4686 -0.0046 -0.5921
 9893TIP3    H251095   0.729   0.609   0.792  1.4925 -1.0909 -0.1089
 9894TIP3   OH251096   0.528   3.069   3.527  0.1748  0.1893  0.3277
 9894TIP3    H151097   0.480   3.019   3.592 -0.2260 -1.2928 -1.0268
 9894TIP3    H251098   0.466   3.081   3.455  0.5883  1.8055  0.2162
 9895TIP3   OH251099   2.289   1.442  11.769 -0.0270 -0.5702  0.8909
 9895TIP3    H151100   2.236   1.518  11.743 -1.0404 -1.0266  1.5305
 9895TIP3    H251101   2.329   1.411  11.688 -1.5407 -0.7955  0.1955
 9896TIP3   OH251102   0.957   5.015  16.382  0.0155 -0.2321 -0.2436
 9896TIP3    H151103   0.901   5.092  16.379 -0.1124 -0.1979  1.6258
 9896TIP3    H251104   0.990   5.012  16.472  2.0719 -0.9256 -0.9369
 9897TIP3   OH251105   2.967   2.200  14.269 -0.2889 -0.3963 -0.5258
 9897TIP3    H151106   2.989   2.200  14.362  1.4476 -1.3715 -0.8840
 9897TIP3    H251107   2.922   2.284  14.255  0.8100  0.4862  0.8962
 9898TIP3   OH251108   3.814   0.805   4.217  0.0692 -0.1447 -0.4501
 9898TIP3    H151109   3.888   0.769   4.266  1.2315 -0.4721 -2.3266
 9898TIP3    H251110   3.761   0.728   4.195 -2.3795  0.2924  3.0360
 9899TIP3   OH251111   4.144   2.258   0.651  0.5801  0.1293 -0.4637
 9899TIP3    H151112   4.166   2.296   0.736  0.0899  0.8933 -0.6663
 9899TIP3    H251113   4.067   2.307   0.622  0.0356 -0.9058 -0.8296
 9900TIP3   OH251114   4.598   3.454   3.466 -0.2210 -0.1118 -0.2808
 9900TIP3    H151115   4.569   3.508   3.392 -0.4681 -0.1190 -0.1889
 9900TIP3    H251116   4.646   3.515   3.522 -0.4493  0.0013 -0.2061
 9901TIP3   OH251117   5.635   0.494  11.612 -0.2723  0.3637 -0.8807
 9901TIP3    H151118   5.541   0.507  11.616 -0.4026 -0.2193 -1.7642
 9901TIP3    H251119   5.650   0.449  11.529  0.4746 -1.9542  0.3921
 9902TIP3   OH251120   0.189   2.463  17.340  0.0715  0.2574  0.4329
 9902TIP3    H151121   0.206   2.392  17.402 -1.0763 -1.0338 -0.6442
 9902TIP3    H251122   0.119   2.514  17.381 -0.3132 -0.2748  0.4507
 9903TIP3   OH251123   3.119   0.560   0.730  0.1196 -0.2859  0.0216
 9903TIP3    H151124   3.215   0.559   0.734  0.2173  0.9158 -1.2652
 9903TIP3    H251125   3.098   0.553   0.637 -1.0012  0.7566  0.1662
 9904TIP3   OH251126   0.777   0.189  16.612  0.1500 -0.3913 -0.0536
 9904TIP3    H151127   0.742   0.276  16.631  0.9140  0.1838 -1.1466
 9904TIP3    H251128   0.838   0.203  16.540  0.2242 -1.8552 -0.3107
 9905TIP3   OH251129   2.999   0.154   5.705 -0.5760 -0.2617  0.4115
 9905TIP3    H151130   3.050   0.076   5.729 -0.0092 -0.0358 -0.0397
 9905TIP3    H251131   3.063   0.225   5.703 -0.3137 -0.4535 -2.9005
 9906TIP3   OH251132   2.175   4.014   5.048  0.2338  0.2793 -0.3874
 9906TIP3    H151133   2.195   4.088   5.105 -1.0382  1.2843 -1.1787
 9906TIP3    H251134   2.115   3.959   5.100  0.7083  0.1104 -0.0162
 9907TIP3   OH251135   6.494   3.934  13.223  0.2912  0.1768  0.2871
 9907TIP3    H151136   6.428   4.002  13.238 -0.6652 -1.0218  2.0477
 9907TIP3    H251137   6.442   3.855  13.208  1.1219 -1.3282  4.2083
 9908TIP3   OH251138   0.843   1.436  11.837  0.2294 -0.0680 -0.5949
 9908TIP3    H151139   0.891   1.443  11.919  2.4147 -1.2112 -1.6874
 9908TIP3    H251140   0.804   1.349  11.838  1.9238 -0.8884 -1.5389
 9909TIP3   OH251141   3.441   3.561  16.823 -0.1911 -0.2634  0.0951
 9909TIP3    H151142   3.437   3.607  16.739  4.2860 -0.1739 -0.3110
 9909TIP3    H251143   3.412   3.472  16.803 -0.8672  0.2104 -1.1322
 9910TIP3   OH251144   3.541   6.463  13.897  0.1087  0.3923 -0.8541
 9910TIP3    H151145   3.537   6.412  13.817 -2.1404 -0.6589 -0.1361
 9910TIP3    H251146   3.550   6.398  13.967  1.0410  1.2378 -0.1449
 9911TIP3   OH251147   5.344   5.254   2.155  0.0219 -0.8150 -0.0315
 9911TIP3    H151148   5.263   5.263   2.205 -0.3518 -1.9676 -0.4159
 9911TIP3    H251149   5.413   5.253   2.222 -0.5496 -3.6499  0.6525
 9912TIP3   OH251150   2.125   2.513   0.869 -0.4499  0.3684 -0.4780
 9912TIP3    H151151   2.136   2.453   0.943 -0.6300 -0.2379 -0.9346
 9912TIP3    H251152   2.062   2.470   0.812 -1.0570  1.2890 -0.5217
 9913TIP3   OH251153   4.686   1.631  14.780  0.1099 -0.1406  0.0173
 9913TIP3    H151154   4.750   1.587  14.724  0.7953 -0.7028  1.2038
 9913TIP3    H251155   4.623   1.562  14.803  1.4590 -0.7626  2.2881
 9914TIP3   OH251156   4.843   6.184   4.768 -0.2552 -0.4014  0.4648
 9914TIP3    H151157   4.917   6.152   4.716  0.2006  1.4470 -0.1046
 9914TIP3    H251158   4.773   6.198   4.704 -0.8982 -1.5015  0.9057
 9915TIP3   OH251159   0.518   2.564   5.589 -0.0372 -0.5609  0.3850
 9915TIP3    H151160   0.458   2.514   5.534  0.8630 -0.3715 -0.8109
 9915TIP3    H251161   0.462   2.627   5.635 -0.7389 -0.2064 -0.8943
 9916TIP3   OH251162   6.274   1.280   3.611 -0.0772  0.4813 -0.2123
 9916TIP3    H151163   6.256   1.318   3.698  1.0258  0.1303  0.1891
 9916TIP3    H251164   6.238   1.344   3.549 -0.2073  1.1072  0.4907
 9917TIP3   OH251165   4.388   5.083  14.808  0.0799 -0.4350 -0.0755
 9917TIP3    H151166   4.358   5.007  14.857 -0.2961 -0.9071 -1.0088
 9917TIP3    H251167   4.308   5.121  14.771  0.0438  1.4632  1.7806
 9918TIP3   OH251168   6.448   4.176  16.487  0.6655  0.7826 -0.5628
 9918TIP3    H151169   6.463   4.121  16.410  0.3781  0.2683 -0.2593
 9918TIP3    H251170   6.494   4.131  16.558  3.1529  2.5778 -0.8982
 9919TIP3   OH251171   2.836   4.674   3.190  0.1285 -0.3507 -0.0978
 9919TIP3    H151172   2.815   4.678   3.284 -0.0356  1.5321 -0.1706
 9919TIP3    H251173   2.763   4.718   3.147  0.8905  0.1045 -0.9713
 9920TIP3   OH251174   3.198   0.143   2.456  0.5531 -0.1200 -0.2260
 9920TIP3    H151175   3.153   0.164   2.538  0.3741 -1.7597  0.1185
 9920TIP3    H251176   3.290   0.162   2.474  0.4058  0.3258  0.0723
 9921TIP3   OH251177   1.301   3.636   4.213  0.5041 -0.2531  0.5876
 9921TIP3    H151178   1.275   3.545   4.197  0.4123 -0.5167  2.1279
 9921TIP3    H251179   1.309   3.643   4.308 -0.6089  1.6474  0.6011
 9922TIP3   OH251180   5.323   5.506  13.080  0.2861 -0.9269  0.1746
 9922TIP3    H151181   5.231   5.513  13.056  0.3382  1.1208  0.4437
 9922TIP3    H251182   5.369   5.492  12.997 -0.3145 -3.0182  0.1437
 9923TIP3   OH251183   6.665   5.082  13.356 -0.4865  0.4450 -0.0218
 9923TIP3    H151184   6.626   5.035  13.430  1.4525  2.7524  2.6941
 9923TIP3    H251185   6.751   5.041  13.344 -0.8308  0.0121 -1.1345
 9924TIP3   OH251186   1.105   3.500  11.925 -0.3855 -0.1332  1.0603
 9924TIP3    H151187   1.116   3.568  11.992 -1.1083  0.0073  1.0479
 9924TIP3    H251188   1.179   3.441  11.938  0.6295  1.0076  0.6418
 9925TIP3   OH251189   3.664   6.119   5.720  0.3474 -0.4600 -0.3049
 9925TIP3    H151190   3.656   6.083   5.632 -0.6671 -1.1522  0.0566
 9925TIP3    H251191   3.669   6.042   5.777  0.2607 -0.0242  0.2982
 9926TIP3   OH251192   0.193   4.841   2.809  0.0655  0.0112  0.3206
 9926TIP3    H151193   0.280   4.824   2.844  0.6081 -0.3519 -1.1143
 9926TIP3    H251194   0.138   4.773   2.847  0.3066  0.4981  1.5709
 9927TIP3   OH251195   3.667   6.457   4.500 -0.3222 -0.2619  0.5716
 9927TIP3    H151196   3.742   6.494   4.454 -2.5748  3.2487 -0.7094
 9927TIP3    H251197   3.643   6.379   4.450  1.2750 -0.3256 -0.1315
 9928TIP3   OH251198   5.899   2.403   4.272 -0.0850 -0.3414  0.1613
 9928TIP3    H151199   5.851   2.431   4.194  1.5568 -1.3474 -1.2865
 9928TIP3    H251200   5.991   2.415   4.249  0.4793 -1.8377  1.4740
 9929TIP3   OH251201   1.487   5.459   1.925  0.2558  0.0611 -0.6477
 9929TIP3    H151202   1.433   5.538   1.924 -0.9506 -0.7517 -1.3487
 9929TIP3    H251203   1.446   5.402   1.990 -0.9665 -1.3543 -2.5681
 9930TIP3   OH251204   5.043   0.478  16.765 -0.0633  0.3503 -0.2908
 9930TIP3    H151205   5.023   0.542  16.834 -0.6499 -1.4398  1.3033
 9930TIP3    H251206   5.117   0.516  16.718  1.0445  1.2496  1.9962
 9931TIP3   OH251207   0.860   5.047  15.966  0.1897  0.2890 -0.1338
 9931TIP3    H151208   0.953   5.035  15.945  0.4632  1.2268  0.4953
 9931TIP3    H251209   0.849   5.142  15.974 -0.4560  0.1015  1.4434
 9932TIP3   OH251210   1.492   5.929   3.334 -0.2604  0.4003 -0.4294
 9932TIP3    H151211   1.445   5.851   3.366 -0.4511  1.1442  1.2416
 9932TIP3    H251212   1.448   5.950   3.252  0.1493 -1.5500 -1.2139
 9933TIP3   OH251213   2.368   0.671   1.563  0.0127  0.4828 -0.4259
 9933TIP3    H151214   2.338   0.757   1.591 -0.0794  0.5625 -0.7652
 9933TIP3    H251215   2.434   0.689   1.495  0.2950  0.2951 -0.2028
 9934TIP3   OH251216   4.011   2.003  14.340  0.1002  0.1755 -0.2421
 9934TIP3    H151217   4.050   2.005  14.252  0.1069  0.0542 -0.2413
 9934TIP3    H251218   3.932   2.058  14.332  0.7586  1.1796 -0.0080
 9935TIP3   OH251219   2.390   5.676  14.641  0.1277 -0.4098  0.6226
 9935TIP3    H151220   2.473   5.705  14.679  0.4054  0.9449 -0.8944
 9935TIP3    H251221   2.409   5.663  14.548 -0.7735 -2.5833  0.6846
 9936TIP3   OH251222   6.655   4.223   1.667  0.2306 -0.3209 -0.1116
 9936TIP3    H151223   6.649   4.161   1.594  0.3472  0.1962 -0.5688
 9936TIP3    H251224   6.747   4.225   1.690 -0.0718 -2.0807  1.4758
 9937TIP3   OH251225   4.547   5.800   5.960 -0.1448  0.5905  0.0406
 9937TIP3    H151226   4.593   5.728   6.003  0.8739  1.0684 -0.2245
 9937TIP3    H251227   4.475   5.821   6.019 -1.5250 -1.7453 -0.6667
 9938TIP3   OH251228   0.895   6.620   6.641  0.6946 -0.4067  0.8605
 9938TIP3    H151229   0.984   6.585   6.652  0.5144 -0.4407  2.4768
 9938TIP3    H251230   0.907   6.714   6.631  0.9365 -0.4567  0.6729
 9939TIP3   OH251231   5.391   0.302  16.225  0.1849 -0.4101  0.1899
 9939TIP3    H151232   5.305   0.331  16.195  0.9978  2.7534  0.5856
 9939TIP3    H251233   5.400   0.339  16.312  1.9936 -0.5832  0.1189
 9940TIP3   OH251234   1.210   2.070  15.461  0.3411 -0.1530  1.1494
 9940TIP3    H151235   1.193   2.081  15.368  0.1092  0.0344  1.2142
 9940TIP3    H251236   1.191   2.156  15.500 -0.7662 -0.5533  1.5453
 9941TIP3   OH251237   1.702   3.344   4.563  0.1330 -0.1074  0.0251
 9941TIP3    H151238   1.672   3.268   4.612  0.0597  0.1028  0.3110
 9941TIP3    H251239   1.795   3.330   4.550  0.5452  0.6907  1.8173
 9942TIP3   OH251240   5.619   2.925  10.548 -0.0261 -0.9132 -0.3860
 9942TIP3    H151241   5.703   2.943  10.590 -1.3069  2.8162  0.9923
 9942TIP3    H251242   5.635   2.939  10.455  0.8339  0.1986 -0.0953
 9943TIP3   OH251243   2.224   0.355  14.563  0.5276 -0.2958  0.2969
 9943TIP3    H151244   2.176   0.281  14.602  0.2149 -0.3179 -0.1249
 9943TIP3    H251245   2.278   0.316  14.495 -0.8614  0.0305 -1.0636
 9944TIP3   OH251246   6.586   4.223   3.992  0.0164  0.6241  0.4744
 9944TIP3    H151247   6.500   4.265   3.995 -0.5716 -0.5521  0.9982
 9944TIP3    H251248   6.649   4.294   4.002 -0.8133  1.7267 -1.4665
 9945TIP3   OH251249   0.320   1.498  12.766 -0.0103  0.1750  0.2504
 9945TIP3    H151250   0.343   1.590  12.758  0.4709  0.1337  1.0955
 9945TIP3    H251251   0.308   1.484  12.860  1.0857 -0.9024  0.2480
 9946TIP3   OH251252   2.013   6.618   3.048 -0.4247 -0.4018  0.6203
 9946TIP3    H151253   2.069   6.668   3.109 -1.2828  1.5886 -0.1549
 9946TIP3    H251254   2.003   6.675   2.972  0.6671 -2.8433 -1.5046
 9947TIP3   OH251255   5.294   6.228  15.571  0.2152  0.1569  0.0517
 9947TIP3    H151256   5.376   6.263  15.606  0.6967 -0.6526 -0.2540
 9947TIP3    H251257   5.282   6.145  15.616 -1.5398  1.1918  1.6544
 9948TIP3   OH251258   1.484   6.692   2.270 -0.1460  0.2995 -0.2028
 9948TIP3    H151259   1.507   6.637   2.345 -1.2296 -0.2981 -0.2983
 9948TIP3    H251260   1.487   6.632   2.195 -1.0611  0.4331 -0.3475
 9949TIP3   OH251261   1.134   2.261   3.186 -0.0295  0.0694 -0.0723
 9949TIP3    H151262   1.168   2.257   3.275  0.1635  1.0355 -0.0944
 9949TIP3    H251263   1.083   2.342   3.184 -0.9217 -0.4884 -0.5340
 9950TIP3   OH251264   4.214   6.245  15.410  0.0029  0.3614 -0.0830
 9950TIP3    H151265   4.301   6.225  15.377  0.3294  0.2958  0.7987
 9950TIP3    H251266   4.168   6.161  15.408  0.4927  0.0551  1.0065
 9951TIP3   OH251267   3.272   1.671  15.015 -0.4153 -0.2379  0.3120
 9951TIP3    H151268   3.303   1.652  14.926 -0.3284  0.8580  0.0949
 9951TIP3    H251269   3.221   1.594  15.039  1.0471 -1.3441  0.0138
 9952TIP3   OH251270   1.248   0.099   5.262  0.5991  0.2309  0.3472
 9952TIP3    H151271   1.320   0.153   5.231  0.5372 -0.4924 -1.1688
 9952TIP3    H251272   1.170   0.137   5.221  0.6574 -1.4419 -1.4704
 9953TIP3   OH251273   2.085   6.503  14.036  0.4129 -0.1242 -0.1562
 9953TIP3    H151274   2.048   6.414  14.029 -1.4554  0.2298  3.2750
 9953TIP3    H251275   2.038   6.553  13.968 -0.8053 -1.0953 -0.0703
 9954TIP3   OH251276   5.774   0.600   5.948 -0.0919 -0.6393  0.4544
 9954TIP3    H151277   5.688   0.631   5.920  0.8369 -0.2195 -2.2822
 9954TIP3    H251278   5.806   0.669   6.006 -1.0227 -0.0831  0.3352
 9955TIP3   OH251279   1.962   1.041   0.742 -0.3625 -0.0552  0.0164
 9955TIP3    H151280   1.967   1.004   0.830  0.9896 -1.0881 -0.4497
 9955TIP3    H251281   1.997   1.129   0.751 -1.6257  0.3869  0.7687
 9956TIP3   OH251282   2.167   3.461  17.309  0.0889 -0.0678  1.2524
 9956TIP3    H151283   2.090   3.514  17.329 -0.5039 -1.2979  2.3492
 9956TIP3    H251284   2.231   3.524  17.275 -1.6189  0.8739 -0.4002
 9957TIP3   OH251285   3.137   2.056   0.096 -0.2782 -0.5525  0.2952
 9957TIP3    H151286   3.218   2.011   0.074 -1.1287 -2.0673  0.1472
 9957TIP3    H251287   3.120   2.112   0.019  1.4957  1.1794  1.0581
 9958TIP3   OH251288   1.209   6.376   3.361 -0.6319  0.2575 -0.1669
 9958TIP3    H151289   1.174   6.379   3.450 -1.9041 -0.6573 -0.5991
 9958TIP3    H251290   1.301   6.356   3.372 -0.5905  0.9885  0.9664
 9959TIP3   OH251291   5.522   1.613  11.531  0.6120 -0.1455  0.0446
 9959TIP3    H151292   5.434   1.596  11.565  0.2219 -0.3638 -1.0567
 9959TIP3    H251293   5.556   1.683  11.587  0.2989 -1.0339  1.4010
 9960TIP3   OH251294   5.285   3.446  13.162  0.3937 -0.3393 -0.3810
 9960TIP3    H151295   5.285   3.355  13.131  2.1555 -1.7441  3.2294
 9960TIP3    H251296   5.231   3.445  13.241 -0.2867  2.0247 -0.7287
 9961TIP3   OH251297   1.921   3.730   5.778  0.2623  0.2231 -0.0635
 9961TIP3    H151298   1.944   3.638   5.791 -2.6161 -0.9260 -2.2099
 9961TIP3    H251299   1.828   3.730   5.759 -0.5002  3.9426  2.5625
 9962TIP3   OH251300   0.565   1.984  13.896  0.2313 -0.0536 -0.0314
 9962TIP3    H151301   0.626   2.054  13.875  0.1986 -0.1236 -0.3618
 9962TIP3    H251302   0.505   2.022  13.960 -2.0437  1.4399 -2.7920
 9963TIP3   OH251303   1.873   5.809  14.424 -0.0154 -0.0487  0.5571
 9963TIP3    H151304   1.860   5.872  14.495 -0.3973 -0.3961  0.8020
 9963TIP3    H251305   1.943   5.847  14.370 -0.2500  0.5889  0.6924
 9964TIP3   OH251306   1.915   0.308   4.698  0.3413  0.4077 -0.0311
 9964TIP3    H151307   1.996   0.290   4.745  0.3934 -1.4468 -0.7437
 9964TIP3    H251308   1.940   0.307   4.606 -0.1917  1.5645 -0.2014
 9965TIP3   OH251309   6.554   1.247   0.008 -0.5068  0.3853  0.5755
 9965TIP3    H151310   6.639   1.280   0.037 -0.5064 -0.2259  1.3165
 9965TIP3    H251311   6.530   1.181   0.073 -1.2332  0.0569  0.0004
 9966TIP3   OH251312   5.675   2.070  12.859  0.1013 -0.7414 -0.0856
 9966TIP3    H151313   5.759   2.115  12.857 -0.5383  0.4975 -0.0638
 9966TIP3    H251314   5.686   2.001  12.925  0.2410  1.1911  2.0406
 9967TIP3   OH251315   6.024   1.694   3.080 -0.2045  0.0106 -0.2624
 9967TIP3    H151316   5.964   1.645   3.024  0.3847 -0.1354 -0.7664
 9967TIP3    H251317   6.107   1.649   3.073  0.2306  0.8033 -0.3570
 9968TIP3   OH251318   4.177   3.836   5.780 -0.3913 -0.2820 -0.9586
 9968TIP3    H151319   4.238   3.817   5.852 -0.0027 -0.4822 -1.3354
 9968TIP3    H251320   4.194   3.928   5.758 -1.2156  0.0804 -0.1348
 9969TIP3   OH251321   1.961   6.044  11.495  0.4139  0.0216 -0.5327
 9969TIP3    H151322   1.910   5.992  11.433 -0.6681 -1.6996  1.6359
 9969TIP3    H251323   1.898   6.069  11.562  1.6571  1.2572  0.2055
 9970TIP3   OH251324   0.705   3.548   1.438 -0.0792  0.0698 -0.2863
 9970TIP3    H151325   0.686   3.636   1.470 -0.4980  0.7154 -2.1753
 9970TIP3    H251326   0.792   3.556   1.398 -0.5469 -0.1066 -1.3588
 9971TIP3   OH251327   2.331   3.751  13.473  0.0090  0.3314 -0.2987
 9971TIP3    H151328   2.360   3.675  13.522 -0.2398 -0.2456 -1.0248
 9971TIP3    H251329   2.288   3.807  13.538  1.1611  0.3765  0.4420
 9972TIP3   OH251330   6.541   5.095  12.882  0.5613  0.2380 -0.2410
 9972TIP3    H151331   6.496   5.168  12.839 -0.1960 -0.8818 -1.4317
 9972TIP3    H251332   6.509   5.097  12.972 -0.6985  0.3963 -0.6725
 9973TIP3   OH251333   3.322   4.684   4.311 -0.0366 -0.2396 -0.1986
 9973TIP3    H151334   3.246   4.730   4.276  1.2895  1.4594 -1.0252
 9973TIP3    H251335   3.316   4.596   4.274 -0.6900  0.3956 -1.6826
 9974TIP3   OH251336   3.603   3.295  13.481 -0.3206 -0.0671 -0.5309
 9974TIP3    H151337   3.692   3.317  13.453 -0.0986 -0.5473 -0.2159
 9974TIP3    H251338   3.554   3.376  13.469  0.4144  0.5340  0.3392
 9975TIP3   OH251339   1.459   4.447   5.813  0.1874 -0.5577  0.2330
 9975TIP3    H151340   1.520   4.468   5.884  1.4254  0.1644 -1.0141
 9975TIP3    H251341   1.433   4.532   5.777 -0.8858 -0.8915  0.1597
 9976TIP3   OH251342   4.807   1.563  11.513 -0.0846  0.3520 -0.3850
 9976TIP3    H151343   4.743   1.499  11.547  0.2327 -1.0457 -2.2133
 9976TIP3    H251344   4.881   1.509  11.485  0.5618  1.6324 -1.2049
 9977TIP3   OH251345   0.604   0.954   3.952  0.2135  0.2681  0.0618
 9977TIP3    H151346   0.631   0.922   4.038  1.6642  1.4190  0.0640
 9977TIP3    H251347   0.538   1.020   3.970 -1.2042 -1.1059  0.1480
 9978TIP3   OH251348   3.609   1.555  15.281 -0.4077  0.1026 -0.2849
 9978TIP3    H151349   3.528   1.549  15.230 -0.4964 -0.2364 -0.1075
 9978TIP3    H251350   3.661   1.620  15.235 -1.0225  0.7588 -0.0706
 9979TIP3   OH251351   5.959   2.997  13.679  0.0371  0.3727 -0.2952
 9979TIP3    H151352   6.000   2.992  13.593 -0.4111  1.0803 -0.5627
 9979TIP3    H251353   6.026   2.967  13.740 -0.3867 -2.4601 -1.0739
 9980TIP3   OH251354   6.324   3.217   4.786 -0.0118  0.3013  0.0070
 9980TIP3    H151355   6.374   3.211   4.705 -1.7290  0.3643 -1.0929
 9980TIP3    H251356   6.379   3.270   4.844  1.1734  0.3862 -1.1391
 9981TIP3   OH251357   5.223   2.166  17.130  0.0058 -0.3524 -0.0993
 9981TIP3    H151358   5.306   2.144  17.089 -0.7879  0.3755 -2.2827
 9981TIP3    H251359   5.242   2.245  17.181  0.6979 -0.2424 -0.5063
 9982TIP3   OH251360   5.710   0.484  17.381 -0.7132 -0.2875  0.1438
 9982TIP3    H151361   5.705   0.543  17.457  1.3485 -0.3786  0.4021
 9982TIP3    H251362   5.649   0.414  17.402  0.5266 -0.8220  2.2287
 9983TIP3   OH251363   5.010   2.522   0.527 -0.3329 -0.1974 -0.4885
 9983TIP3    H151364   4.947   2.595   0.525 -0.3094 -0.1730 -1.8664
 9983TIP3    H251365   5.095   2.564   0.535 -0.4543 -0.2239  1.2662
 9984TIP3   OH251366   2.417   4.088   0.477  0.0605  0.3376  0.1843
 9984TIP3    H151367   2.504   4.056   0.503  0.2786 -0.3796 -1.2957
 9984TIP3    H251368   2.356   4.031   0.523  0.4421 -2.2534 -2.2248
 9985TIP3   OH251369   3.202   0.120  16.167  0.0171 -0.2173 -0.0849
 9985TIP3    H151370   3.243   0.150  16.086 -0.8596 -1.2024 -0.9148
 9985TIP3    H251371   3.188   0.026  16.153 -0.2585 -0.3735  1.1640
 9986TIP3   OH251372   4.856   4.684  15.594  0.0140  0.2482 -0.6620
 9986TIP3    H151373   4.872   4.777  15.612  1.2691  0.2559 -1.6284
 9986TIP3    H251374   4.841   4.645  15.681  3.4017  0.6832  0.2717
 9987TIP3   OH251375   0.460   4.906   1.718  0.3818 -0.2293  0.4930
 9987TIP3    H151376   0.527   4.852   1.762  3.0225  1.3817 -1.2727
 9987TIP3    H251377   0.430   4.852   1.645 -0.2936 -0.9651  1.2937
 9988TIP3   OH251378   4.289   1.469  12.824 -0.0782 -0.2609  0.2076
 9988TIP3    H151379   4.319   1.523  12.896  1.9860 -0.8995 -0.1175
 9988TIP3    H251380   4.247   1.394  12.866 -0.3714  0.1723  0.6948
 9989TIP3   OH251381   1.556   4.059  16.600 -0.0921  0.2564  0.5857
 9989TIP3    H151382   1.534   4.137  16.649  1.3579  0.5425  0.8388
 9989TIP3    H251383   1.567   3.991  16.666 -2.1265 -0.4118  0.3141
 9990TIP3   OH251384   1.441   5.769  11.517 -0.1871 -0.5311 -0.1273
 9990TIP3    H151385   1.355   5.810  11.525 -0.0741 -0.5310  1.4474
 9990TIP3    H251386   1.502   5.835  11.548  0.2505 -1.0036  0.0387
 9991TIP3   OH251387   2.778   2.656  15.173 -0.0819  0.0984 -0.4252
 9991TIP3    H151388   2.798   2.616  15.258  0.2016  2.3362  0.6641
 9991TIP3    H251389   2.851   2.717  15.159 -1.1474  1.2142 -1.2790
 9992TIP3   OH251390   1.258   1.407   3.906  0.2134 -0.5320 -0.0335
 9992TIP3    H151391   1.290   1.488   3.945 -0.0205  1.2380 -3.1646
 9992TIP3    H251392   1.337   1.355   3.889  0.3819 -0.9389  1.7873
 9993TIP3   OH251393   1.077   4.250  13.806  0.1710  0.3151 -0.2587
 9993TIP3    H151394   1.099   4.332  13.762 -0.7946  0.0080 -1.3675
 9993TIP3    H251395   1.143   4.242  13.875 -0.6281  2.7951  0.9197
 9994TIP3   OH251396   6.300   5.596  12.507  0.3662 -0.5216  0.2413
 9994TIP3    H151397   6.345   5.513  12.489  0.3125 -0.4691 -0.1482
 9994TIP3    H251398   6.294   5.639  12.422  0.1981 -0.2132  0.4060
 9995TIP3   OH251399   1.332   4.576  12.568  0.9914  0.0437 -0.1160
 9995TIP3    H151400   1.342   4.654  12.513 -0.6162  0.0089 -0.5159
 9995TIP3    H251401   1.327   4.610  12.657 -0.2431  0.4777 -0.3305
 9996TIP3   OH251402   1.179   3.564   1.520 -0.4373 -0.7427 -0.1113
 9996TIP3    H151403   1.239   3.538   1.450 -0.0390  1.4750 -0.6892
 9996TIP3    H251404   1.173   3.487   1.577  4.0770 -0.7362  0.7667
 9997TIP3   OH251405   1.816   5.539   2.570 -0.0030 -0.5399 -0.2230
 9997TIP3    H151406   1.760   5.546   2.492 -0.6846 -1.4696  0.1664
 9997TIP3    H251407   1.782   5.606   2.629  2.1326  1.9877 -1.6273
 9998TIP3   OH251408   1.060   5.107  12.192  0.0298 -0.3582  0.3264
 9998TIP3    H151409   0.999   5.154  12.250 -1.1113 -0.9722 -0.3272
 9998TIP3    H251410   1.060   5.018  12.226  2.7186  0.1630  1.9859
 9999TIP3   OH251411   5.529   1.306   0.654 -0.3278  0.0965  0.4882
 9999TIP3    H151412   5.462   1.310   0.586  0.9270 -0.7281 -0.8425
 9999TIP3    H251413   5.482   1.278   0.733 -1.6565  0.2186 -0.2380
10000TIP3   OH251414   4.180   3.376   0.437 -0.2671  0.2070 -0.2820
10000TIP3    H151415   4.274   3.362   0.429  0.0722  1.9324  0.1756
10000TIP3    H251416   4.140   3.293   0.411  1.3971 -0.7694  0.1610
10001TIP3   OH251417   0.648   2.229  11.213  0.3636 -0.2406  0.1487
10001TIP3    H151418   0.612   2.171  11.146  0.9937  1.1130 -1.4569
10001TIP3    H251419   0.742   2.231  11.195  0.2806  1.7516 -0.2962
10002TIP3   OH251420   1.460   2.071   0.334  0.2139  0.2019 -0.6112
10002TIP3    H151421   1.418   1.993   0.369  0.5673 -0.8422 -2.4002
10002TIP3    H251422   1.549   2.043   0.313  0.9943  1.6523  0.6004
10003TIP3   OH251423   2.825   5.559  15.705  0.0188 -0.3083  0.0696
10003TIP3    H151424   2.889   5.490  15.724  0.3618  0.4286  1.7916
10003TIP3    H251425   2.763   5.555  15.777 -0.9371  0.0817 -0.7092
10004TIP3   OH251426   1.238   3.322   4.530 -0.1453  0.1352 -0.3667
10004TIP3    H151427   1.198   3.391   4.477  0.8328  0.5491 -0.5822
10004TIP3    H251428   1.255   3.251   4.469  1.4766  0.8196 -0.7387
10005TIP3   OH251429   0.963   5.498  14.939  0.4482  0.3100  0.0159
10005TIP3    H151430   1.049   5.494  14.981  0.9608  0.2270 -0.9871
10005TIP3    H251431   0.978   5.551  14.860 -0.6315  1.0571  0.2838
10006TIP3   OH251432   3.599   0.646   5.739 -0.5294  0.2074 -0.0690
10006TIP3    H151433   3.511   0.646   5.775  0.6792 -1.1744  3.3411
10006TIP3    H251434   3.616   0.555   5.715  0.5217  0.0846  1.0224
10007TIP3   OH251435   2.851   6.535   3.157 -0.0799  0.1039 -0.5733
10007TIP3    H151436   2.935   6.528   3.201 -0.6535  0.4051  0.6257
10007TIP3    H251437   2.790   6.560   3.227 -1.0911  0.2427 -1.4835
10008TIP3   OH251438   6.327   1.172   4.726 -0.5005 -1.1123  0.0646
10008TIP3    H151439   6.408   1.209   4.690  0.2952 -0.5482  2.2629
10008TIP3    H251440   6.357   1.104   4.787 -1.6707 -0.8733  0.9448
10009TIP3   OH251441   0.253   5.593   4.241  0.1582 -0.6284  0.0708
10009TIP3    H151442   0.312   5.551   4.179 -0.5708 -0.4524 -0.7460
10009TIP3    H251443   0.166   5.568   4.213 -0.2589  0.7702  0.0388
10010TIP3   OH251444   3.556   5.223  12.803 -0.1541 -0.4540 -0.7354
10010TIP3    H151445   3.570   5.308  12.843 -2.5701  0.1567 -1.0321
10010TIP3    H251446   3.589   5.160  12.868  2.2226  0.6512 -0.7737
10011TIP3   OH251447   1.862   4.637   2.406 -0.3270  0.2398 -0.4231
10011TIP3    H151448   1.940   4.583   2.393 -0.1902  0.4457 -0.4478
10011TIP3    H251449   1.880   4.687   2.485  0.0527  1.1517 -1.0768
10012TIP3   OH251450   4.622   0.451   4.041  0.1085  0.2429 -0.7878
10012TIP3    H151451   4.709   0.465   4.079  0.3967  0.3789 -1.4844
10012TIP3    H251452   4.580   0.389   4.101  1.0691 -0.6527 -1.0110
10013TIP3   OH251453   0.196   6.304  16.713  0.5992 -0.0436  0.9428
10013TIP3    H151454   0.160   6.334  16.796 -2.4439  2.0901 -0.9862
10013TIP3    H251455   0.266   6.366  16.693 -0.3691  1.0115  0.7475
10014TIP3   OH251456   5.278   3.650   5.517  0.5830 -0.2028 -0.1398
10014TIP3    H151457   5.284   3.723   5.456  1.7344 -0.1461  0.0112
10014TIP3    H251458   5.280   3.691   5.604 -1.1239 -0.2750 -0.0245
10015TIP3   OH251459   4.405   4.716  15.982 -0.8181 -0.1653 -0.9437
10015TIP3    H151460   4.388   4.784  15.917  0.0042  0.9322 -0.0615
10015TIP3    H251461   4.338   4.729  16.049  1.2658  2.0609  0.9140
10016TIP3   OH251462   0.155   5.482   5.541 -0.6351 -0.6923  0.1532
10016TIP3    H151463   0.174   5.409   5.600  1.3745 -0.0862  0.3293
10016TIP3    H251464   0.241   5.513   5.513 -1.5016 -0.0268 -1.9689
10017TIP3   OH251465   2.235   4.471  14.582  0.4337 -0.0911  0.0274
10017TIP3    H151466   2.157   4.441  14.628  0.0404  0.5077 -0.2259
10017TIP3    H251467   2.209   4.556  14.545  1.5627  0.6687  0.9130
10018TIP3   OH251468   5.972   5.260   3.406 -0.4322  0.2570 -0.2029
10018TIP3    H151469   5.901   5.204   3.375 -1.2926  0.8698  0.6076
10018TIP3    H251470   6.050   5.204   3.401 -0.8033 -0.1860 -1.8482
10019TIP3   OH251471   3.192   0.401  17.188 -0.2570  0.0461 -0.1193
10019TIP3    H151472   3.203   0.495  17.170 -1.8228  0.1278 -0.7217
10019TIP3    H251473   3.098   0.387  17.186 -0.0112 -1.6546 -0.5231
10020TIP3   OH251474   3.619   3.734   0.205  0.5000  0.0740  0.1951
10020TIP3    H151475   3.653   3.763   0.290  1.2902  0.7218 -0.3283
10020TIP3    H251476   3.629   3.639   0.206  2.8456  0.2622 -0.1202
10021TIP3   OH251477   3.818   0.645  15.137 -0.2150 -0.3132 -0.1959
10021TIP3    H151478   3.911   0.664  15.124 -0.0400 -1.9763 -1.8244
10021TIP3    H251479   3.773   0.714  15.089  0.2358 -0.5899 -1.0295
10022TIP3   OH251480   5.462   1.498   4.324 -0.6203  0.2744 -0.2454
10022TIP3    H151481   5.441   1.414   4.365 -0.1696 -0.2953 -1.1461
10022TIP3    H251482   5.485   1.475   4.234  1.3917  1.1047 -0.0055
10023TIP3   OH251483   1.006   2.991  16.261 -0.2245  0.2660 -0.0968
10023TIP3    H151484   0.938   2.928  16.285  0.7639 -0.7923  0.0363
10023TIP3    H251485   0.959   3.063  16.220 -1.5423  0.1522  1.1446
10024TIP3   OH251486   1.288   2.176  17.026  0.0186  0.4136 -0.2366
10024TIP3    H151487   1.370   2.200  17.068  1.0053 -2.4320 -0.3366
10024TIP3    H251488   1.306   2.182  16.932  0.9510 -2.2718 -0.3329
10025TIP3   OH251489   0.976   1.814   3.322  1.1786 -0.4223  0.4430
10025TIP3    H151490   1.045   1.815   3.388  0.9989  2.3542  0.7302
10025TIP3    H251491   0.900   1.775   3.365  1.8020 -1.0259  1.0034
10026TIP3   OH251492   0.285   4.974   4.728  0.2941 -0.1982  0.1169
10026TIP3    H151493   0.282   4.995   4.635  0.9109  0.9469  0.3392
10026TIP3    H251494   0.359   4.914   4.738  0.3509 -0.1629 -0.1003
10027TIP3   OH251495   4.780   2.875  14.690  0.3608 -0.0838 -0.0332
10027TIP3    H151496   4.725   2.953  14.684  0.4212 -0.0491 -0.1434
10027TIP3    H251497   4.836   2.891  14.766  2.3861  1.2876 -1.6886
10028TIP3   OH251498   6.304   1.802  12.242 -0.2076  0.4362  0.4988
10028TIP3    H151499   6.366   1.853  12.294  0.2667  0.6921 -0.3046
10028TIP3    H251500   6.254   1.867  12.193 -0.9161  0.2142  0.9082
10029TIP3   OH251501   5.170   3.709  16.629  0.0433 -0.0094 -0.1719
10029TIP3    H151502   5.137   3.704  16.719 -0.7112  0.3379 -0.4190
10029TIP3    H251503   5.189   3.618  16.606  1.8370  0.0423  0.8956
10030TIP3   OH251504   1.589   4.541   3.286  0.3440  0.2184 -0.1308
10030TIP3    H151505   1.635   4.527   3.369  0.5730  0.6486 -0.1876
10030TIP3    H251506   1.636   4.612   3.243 -0.7723  1.1323  0.1175
10031TIP3   OH251507   1.256   0.264  13.644 -0.2012  0.3889  0.2656
10031TIP3    H151508   1.339   0.277  13.688 -0.9844 -0.8058  2.2533
10031TIP3    H251509   1.215   0.350  13.643  0.5832  0.7696  0.2479
10032TIP3   OH251510   5.875   4.359  16.599  0.7432 -0.2465  0.1104
10032TIP3    H151511   5.911   4.441  16.634  0.7061 -0.1216 -0.1318
10032TIP3    H251512   5.789   4.351  16.638  0.7313 -0.1468  0.1053
10033TIP3   OH251513   4.714   5.115  14.793  0.5934  0.0826  0.2196
10033TIP3    H151514   4.791   5.143  14.843 -1.0094  2.6216  1.4732
10033TIP3    H251515   4.709   5.176  14.720 -0.3487  0.1146  0.2992
10034TIP3   OH251516   2.120   6.392  12.098 -0.0785 -0.3798  0.0275
10034TIP3    H151517   2.161   6.347  12.024  0.1259 -0.8888  0.4470
10034TIP3    H251518   2.066   6.325  12.140 -0.5492  0.0249  0.0796
10035TIP3   OH251519   4.123   5.271   3.972  0.1653  0.1800  0.5936
10035TIP3    H151520   4.070   5.191   3.972  1.0803 -0.4368  0.5579
10035TIP3    H251521   4.179   5.263   3.895 -0.2087  1.1890  0.1996
10036TIP3   OH251522   6.159   2.205   0.154  0.4833 -0.1242  1.1916
10036TIP3    H151523   6.100   2.272   0.190  0.7728  0.2018  1.0562
10036TIP3    H251524   6.176   2.147   0.228  0.9655  0.4690  1.5483
10037TIP3   OH251525   3.792   4.534   3.582 -0.7078  0.2686  0.3869
10037TIP3    H151526   3.759   4.614   3.622  1.1043  1.4451 -0.3298
10037TIP3    H251527   3.887   4.538   3.596 -0.3778 -0.8666 -1.2317
10038TIP3   OH251528   3.403   3.797   5.126  0.0346  0.3600  0.1916
10038TIP3    H151529   3.430   3.889   5.123 -2.4426  1.1697  0.0201
10038TIP3    H251530   3.453   3.760   5.199  3.3763  0.9453 -1.6048
10039TIP3   OH251531   1.645   1.490  12.311 -0.0141 -0.6418  0.1354
10039TIP3    H151532   1.605   1.417  12.359 -1.7686  0.9707  1.2427
10039TIP3    H251533   1.712   1.523  12.371  0.5343 -1.0868 -0.2188
10040TIP3   OH251534   2.064   3.937   4.804 -0.7238 -0.7869 -0.1745
10040TIP3    H151535   2.100   3.982   4.881 -1.0682 -1.4843  0.4095
10040TIP3    H251536   1.972   3.925   4.825 -0.6452 -1.7185 -0.3414
10041TIP3   OH251537   5.257   1.175  13.941  0.7841  0.5117  0.1268
10041TIP3    H151538   5.287   1.101  13.889 -1.9570 -1.5305  1.1763
10041TIP3    H251539   5.304   1.167  14.024 -0.7518 -1.2803  0.9116
10042TIP3   OH251540   5.916   4.177   0.872  0.0007  0.9903  0.1084
10042TIP3    H151541   5.955   4.175   0.785  0.3680  0.2135  0.2781
10042TIP3    H251542   5.843   4.238   0.864 -0.7213  0.0366 -1.0783
10043TIP3   OH251543   4.317   3.641   2.927 -0.1384  0.9844  0.0937
10043TIP3    H151544   4.340   3.723   2.884  0.8181 -0.0906 -1.5762
10043TIP3    H251545   4.401   3.597   2.942 -0.6247  0.2938  0.9505
10044TIP3   OH251546   0.988   3.704   0.968  0.3924 -0.0507 -0.3388
10044TIP3    H151547   1.054   3.636   0.958  1.2090  0.4081  1.5861
10044TIP3    H251548   0.945   3.708   0.882  1.7993 -1.4323 -1.1595
10045TIP3   OH251549   3.480   2.562  16.100  0.1583  0.3022  0.4909
10045TIP3    H151550   3.419   2.510  16.152  0.8948 -0.7038  0.3665
10045TIP3    H251551   3.459   2.653  16.122 -0.0665 -0.0826  1.9335
10046TIP3   OH251552   3.895   3.493  11.581  0.0710 -0.0033  0.1607
10046TIP3    H151553   3.849   3.469  11.500  1.5766 -1.4272 -0.3090
10046TIP3    H251554   3.942   3.414  11.607  0.0381  0.5754  2.1822
10047TIP3   OH251555   5.799   6.395   1.465 -0.4051  0.3555  0.2160
10047TIP3    H151556   5.805   6.473   1.411  0.9962 -0.2824 -0.6216
10047TIP3    H251557   5.749   6.333   1.413  1.4329 -0.4606 -0.7017
10048TIP3   OH251558   0.410   0.355   3.867  0.6198 -0.3539 -0.1710
10048TIP3    H151559   0.466   0.314   3.801 -1.3822 -0.2243 -2.0333
10048TIP3    H251560   0.342   0.290   3.886  0.4679  0.0870  0.8831
10049TIP3   OH251561   0.689   2.389   1.284  0.5082 -0.1168  0.3852
10049TIP3    H151562   0.607   2.383   1.332  1.2664 -1.9825  1.5156
10049TIP3    H251563   0.671   2.346   1.200  0.0073  0.5723  0.1303
10050TIP3   OH251564   0.512   2.081   4.746 -0.2717  0.5037 -0.1938
10050TIP3    H151565   0.459   2.062   4.823  2.2284 -0.0368  1.5321
10050TIP3    H251566   0.568   2.154   4.773  3.7346 -2.4146  0.2977
10051TIP3   OH251567   2.364   5.968  11.625 -0.2913  0.0463  0.1602
10051TIP3    H151568   2.318   6.028  11.566  0.0979  0.2917  0.1021
10051TIP3    H251569   2.381   6.020  11.704 -0.9925 -0.3412  0.5791
10052TIP3   OH251570   6.492   3.192  13.183  0.7861 -0.6585  0.0368
10052TIP3    H151571   6.572   3.165  13.229 -0.2048 -1.5588  1.3378
10052TIP3    H251572   6.520   3.212  13.094  2.1451 -3.0699 -0.1531
10053TIP3   OH251573   2.719   4.974  16.080 -0.8565 -0.3708 -0.2322
10053TIP3    H151574   2.794   4.988  16.022 -0.6633  1.2912  0.3794
10053TIP3    H251575   2.689   4.885  16.058  1.7702 -1.4381  0.0642
10054TIP3   OH251576   0.777   0.697   1.159  0.1724  0.4660 -0.3408
10054TIP3    H151577   0.785   0.691   1.255 -0.6468  0.2864 -0.2821
10054TIP3    H251578   0.770   0.791   1.142 -2.3372  0.3971  0.0164
10055TIP3   OH251579   2.658   4.015   0.521 -0.3458 -0.6464  0.4301
10055TIP3    H151580   2.696   3.943   0.471 -0.4541 -0.9201  0.7355
10055TIP3    H251581   2.733   4.066   0.552 -0.3232  0.6506 -1.6240
10056TIP3   OH251582   2.604   3.873  13.531  0.2346 -0.0160  0.3140
10056TIP3    H151583   2.561   3.788  13.520  0.0207  0.0841  0.3721
10056TIP3    H251584   2.689   3.851  13.569  0.0195 -0.1755  0.7142
10057TIP3   OH251585   4.891   5.093  15.241  0.2745 -0.0897 -0.0091
10057TIP3    H151586   4.954   5.109  15.311 -1.0088  2.1788  0.7316
10057TIP3    H251587   4.922   5.145  15.167  0.3126 -0.5436 -0.3206
10058TIP3   OH251588   3.391   6.095   4.742 -0.3391 -0.1236 -0.1742
10058TIP3    H151589   3.436   6.178   4.755 -1.2822  0.6174 -1.3867
10058TIP3    H251590   3.318   6.098   4.804 -0.2595 -0.1210 -0.0818
10059TIP3   OH251591   1.068   3.256   0.625  0.0404  0.0609  0.2840
10059TIP3    H151592   1.074   3.280   0.532  0.6498  0.6539  0.4678
10059TIP3    H251593   0.980   3.221   0.635  0.2605 -0.8532 -0.7184
10060TIP3   OH251594   6.504   1.431  11.987 -0.2058  0.2505  0.1254
10060TIP3    H151595   6.566   1.418  12.059 -1.5942 -0.3590  1.2482
10060TIP3    H251596   6.521   1.357  11.928  0.5270  0.4172  0.1156
10061TIP3   OH251597   6.248   4.923  12.245  0.0586  0.2379  0.0431
10061TIP3    H151598   6.187   4.945  12.175 -0.9376 -1.1198  0.4425
10061TIP3    H251599   6.208   4.960  12.324  0.2389  0.1625  0.1710
10062TIP3   OH251600   5.518   6.428  12.528  0.0198  0.3123 -0.0890
10062TIP3    H151601   5.554   6.439  12.616 -1.7386  1.5182  0.5228
10062TIP3    H251602   5.424   6.414  12.542 -0.0726 -0.9681 -1.7191
10063TIP3   OH251603   5.414   5.410  12.842  0.6050 -0.3729  0.3502
10063TIP3    H151604   5.502   5.393  12.809  0.2390 -1.3283 -0.1544
10063TIP3    H251605   5.368   5.327  12.834 -0.0904 -0.1224  1.4447
10064TIP3   OH251606   1.923   5.407   1.942 -0.0230 -0.1523  0.6737
10064TIP3    H151607   1.902   5.321   1.905  0.0318 -0.2391  0.8453
10064TIP3    H251608   1.872   5.469   1.889 -0.5552 -0.3421  0.9575
10065TIP3   OH251609   4.861   6.254   6.125  0.1689 -0.4775  0.3972
10065TIP3    H151610   4.784   6.280   6.074  1.6062 -0.4618 -1.9156
10065TIP3    H251611   4.881   6.166   6.095  0.4201 -0.9311  1.8185
10066TIP3   OH251612   5.459   2.273  14.220  0.0800 -0.6216  0.1290
10066TIP3    H151613   5.392   2.216  14.258 -1.2714 -1.3600 -3.0066
10066TIP3    H251614   5.428   2.362  14.238 -1.1531 -0.9505 -0.3000
10067TIP3   OH251615   0.758   4.100   5.741  0.2664 -0.1253  0.4702
10067TIP3    H151616   0.768   4.056   5.826  2.2283 -0.8474 -0.0687
10067TIP3    H251617   0.736   4.029   5.680  1.4984 -0.0778 -0.0598
10068TIP3   OH251618   4.454   4.262   0.982  0.0709 -0.1678  0.4753
10068TIP3    H151619   4.485   4.350   1.005 -0.9349  0.1518  0.6754
10068TIP3    H251620   4.443   4.265   0.887 -0.6573  0.1746  0.5592
10069TIP3   OH251621   4.228   5.704   4.418  0.0583  0.0252 -0.5299
10069TIP3    H151622   4.150   5.656   4.444  0.8253 -0.4598  1.0274
10069TIP3    H251623   4.195   5.783   4.376 -1.2361 -0.9874 -1.4929
10070TIP3   OH251624   5.323   6.396   0.273 -0.1575  0.4515  0.1453
10070TIP3    H151625   5.257   6.393   0.342  1.6057  0.8581  1.9238
10070TIP3    H251626   5.305   6.318   0.220 -2.6389  1.0703 -0.0315
10071TIP3   OH251627   0.484   0.191  15.020  0.1524  0.6969  0.1538
10071TIP3    H151628   0.571   0.191  14.980 -0.6472 -0.8198 -1.7708
10071TIP3    H251629   0.445   0.273  14.990  0.9083  1.4183  1.0809
10072TIP3   OH251630   3.556   6.509  13.321  0.7827 -0.0011  0.3787
10072TIP3    H151631   3.511   6.580  13.367 -1.3764 -0.7832 -0.3868
10072TIP3    H251632   3.574   6.544  13.234 -0.4265 -0.3929 -0.0517
10073TIP3   OH251633   1.622   6.196   6.127  0.7906 -0.5403  0.2889
10073TIP3    H151634   1.653   6.185   6.217  1.2665  0.6940  0.2901
10073TIP3    H251635   1.573   6.116   6.109 -0.3249 -0.3012  2.0467
10074TIP3   OH251636   2.547   0.850   4.303 -0.1218 -0.0566  0.2363
10074TIP3    H151637   2.573   0.814   4.388 -0.2123 -0.0904  0.2501
10074TIP3    H251638   2.620   0.907   4.278 -0.6645  0.9817  0.9457
10075TIP3   OH251639   5.079   0.181  14.954  0.3358 -0.7846  0.0184
10075TIP3    H151640   5.061   0.116  14.885  0.2839 -0.3182 -0.4137
10075TIP3    H251641   5.078   0.131  15.035 -0.3696 -1.2102 -0.2456
10076TIP3   OH251642   5.465   3.737   4.305 -0.2592  0.4745 -0.1508
10076TIP3    H151643   5.547   3.759   4.348 -0.1522 -1.4047  0.7130
10076TIP3    H251644   5.489   3.720   4.214  0.3901 -0.4905  0.1954
10077TIP3   OH251645   6.441   3.574  12.611  0.2901 -0.1043  0.0361
10077TIP3    H151646   6.378   3.631  12.656  0.1175  0.5169 -0.9522
10077TIP3    H251647   6.420   3.486  12.642 -0.4594  0.2033  0.4290
10078TIP3   OH251648   1.878   0.223  15.640  0.1853 -0.2402 -0.4306
10078TIP3    H151649   1.932   0.241  15.717  0.0219  1.5400 -0.6866
10078TIP3    H251650   1.810   0.164  15.671  0.1346  0.4335  0.7885
10079TIP3   OH251651   0.995   3.132   6.047  0.8606  0.3154 -0.0522
10079TIP3    H151652   0.921   3.173   6.004  0.6088  1.0910  1.0947
10079TIP3    H251653   1.058   3.115   5.976  0.0272  0.5803 -0.8684
10080TIP3   OH251654   5.318   4.213  16.409 -0.8847 -0.0147  0.6571
10080TIP3    H151655   5.244   4.272  16.415 -0.5860  0.2376  2.6627
10080TIP3    H251656   5.347   4.201  16.500 -0.5070 -2.6866  0.2739
10081TIP3   OH251657   1.699   0.985  12.739 -0.3854  0.0088 -0.5125
10081TIP3    H151658   1.729   1.067  12.778  0.1232 -0.2798 -0.2881
10081TIP3    H251659   1.753   0.918  12.780 -1.2580 -0.5127 -0.1884
10082TIP3   OH251660   1.676   3.978   1.638  0.7091 -0.3127 -0.5607
10082TIP3    H151661   1.734   3.912   1.600 -0.6794 -1.4518 -0.8062
10082TIP3    H251662   1.622   3.929   1.700 -1.5458  0.1785 -2.0112
10083TIP3   OH251663   3.855   4.794   5.282  0.2295 -0.2223  0.4765
10083TIP3    H151664   3.851   4.721   5.344  0.2990 -0.3842  0.2898
10083TIP3    H251665   3.948   4.811   5.271  0.2488 -0.7930 -0.2881
10084TIP3   OH251666   5.250   4.287   2.237  0.2802  0.0286 -0.6550
10084TIP3    H151667   5.166   4.241   2.231  0.3105 -0.1462  0.2379
10084TIP3    H251668   5.278   4.295   2.146 -0.2093 -0.8299 -0.8991
10085TIP3   OH251669   1.097   2.358  15.441 -0.2206 -0.5238  0.1541
10085TIP3    H151670   1.023   2.415  15.423 -0.5542 -1.0008  0.0045
10085TIP3    H251671   1.174   2.412  15.423 -0.5348 -0.5948 -1.5130
10086TIP3   OH251672   0.842   4.054  16.038  0.0366 -0.5813  0.4908
10086TIP3    H151673   0.895   4.120  16.084  0.2592  0.2917 -0.9614
10086TIP3    H251674   0.752   4.078  16.057  0.0847  0.7851 -0.8003
10087TIP3   OH251675   2.605   3.328   5.516  0.2666 -0.3676 -0.3742
10087TIP3    H151676   2.609   3.233   5.503 -0.0855 -0.5174  0.5242
10087TIP3    H251677   2.612   3.365   5.428  0.0706 -1.2362 -0.7648
10088TIP3   OH251678   1.040   5.255   1.620  0.1293 -0.2733 -0.3851
10088TIP3    H151679   1.130   5.275   1.593 -0.2675  0.9779 -0.8392
10088TIP3    H251680   0.995   5.340   1.620 -1.2117 -0.9512 -0.7356
10089TIP3   OH251681   1.072   1.212  13.604 -0.0264 -0.0999  0.1066
10089TIP3    H151682   1.016   1.151  13.557  0.5513  0.3606 -1.2264
10089TIP3    H251683   1.025   1.230  13.686 -1.1025 -0.8418 -0.3278
10090TIP3   OH251684   5.516   3.060  12.665 -0.0461 -0.8841 -0.4176
10090TIP3    H151685   5.520   2.967  12.687 -0.1431 -0.9597 -0.7149
10090TIP3    H251686   5.459   3.064  12.588  1.1046 -0.7323 -1.2858
10091TIP3   OH251687   5.622   4.914   1.838 -0.1820 -0.2046 -0.2377
10091TIP3    H151688   5.640   4.926   1.744 -0.2459 -0.6912 -0.3115
10091TIP3    H251689   5.541   4.864   1.841 -1.0171  1.0951  0.0948
10092TIP3   OH251690   1.529   2.414   4.076 -0.5961 -0.0366 -0.4163
10092TIP3    H151691   1.529   2.509   4.064 -2.5009  0.0675 -0.0093
10092TIP3    H251692   1.484   2.400   4.160 -1.1159 -1.3230 -0.8736
10093TIP3   OH251693   4.637   5.271   5.585  0.6791 -0.4889  0.0875
10093TIP3    H151694   4.615   5.335   5.517 -0.0663 -0.4818  0.3257
10093TIP3    H251695   4.731   5.258   5.576  0.6756 -0.0958 -0.6060
10094TIP3   OH251696   5.027   1.175  14.689  0.0481  0.4893 -0.6295
10094TIP3    H151697   5.088   1.171  14.615  1.3933  0.6910  0.4360
10094TIP3    H251698   5.064   1.115  14.754 -1.7972 -0.6856 -0.5744
10095TIP3   OH251699   6.163   6.172   4.247 -0.0073  0.0400 -0.5406
10095TIP3    H151700   6.199   6.098   4.296 -0.3536 -0.4882 -1.0655
10095TIP3    H251701   6.220   6.246   4.270 -1.3512  0.3288  2.2550
10096TIP3   OH251702   4.617   5.685   6.240  0.0688 -0.3819 -0.1959
10096TIP3    H151703   4.530   5.647   6.251 -0.4295  0.6523 -0.4748
10096TIP3    H251704   4.609   5.774   6.274  1.1544 -0.4323  0.2386
10097TIP3   OH251705   2.812   6.107  11.106 -0.1836 -0.1575  0.5507
10097TIP3    H151706   2.729   6.119  11.061 -0.9577 -3.4682  0.8262
10097TIP3    H251707   2.878   6.110  11.037 -0.6276  1.1680  0.1516
10098TIP3   OH251708   4.804   6.186   5.030 -0.2414 -0.1802 -0.6700
10098TIP3    H151709   4.774   6.275   5.045 -0.0673 -0.1452 -0.5339
10098TIP3    H251710   4.838   6.187   4.940  1.5300  0.3784 -0.0290
10099TIP3   OH251711   4.660   5.415  12.641 -0.3709 -0.2951  0.2273
10099TIP3    H151712   4.624   5.420  12.553 -1.5597  1.4178  0.7553
10099TIP3    H251713   4.681   5.506  12.663 -0.1653 -0.6833  1.7255
10100TIP3   OH251714   1.563   2.396   2.938 -0.2314  0.3722  0.0721
10100TIP3    H151715   1.621   2.407   3.013  0.8553  2.8281 -1.0095
10100TIP3    H251716   1.475   2.391   2.977  0.1208  3.2342  1.5701
10101TIP3   OH251717   1.695   4.321  11.576  0.6954  0.0353 -0.6955
10101TIP3    H151718   1.686   4.229  11.549  1.8131  0.4026 -2.4722
10101TIP3    H251719   1.614   4.340  11.622 -0.2336 -1.4133 -1.6406
10102TIP3   OH251720   2.446   5.584   4.909 -0.5164 -0.4507  0.0374
10102TIP3    H151721   2.464   5.512   4.849 -0.9037 -1.6011  1.2557
10102TIP3    H251722   2.479   5.555   4.994 -1.0348  0.6351  0.6479
10103TIP3   OH251723   3.419   1.647  14.334  0.0708  0.2417  0.0907
10103TIP3    H151724   3.462   1.710  14.276 -0.1000 -0.0442 -0.3496
10103TIP3    H251725   3.374   1.587  14.275 -1.9113  1.2070  0.5582
10104TIP3   OH251726   2.020   5.293  10.563 -0.3188  0.2437  0.1955
10104TIP3    H151727   2.005   5.228  10.632  0.1046 -0.7318 -0.6199
10104TIP3    H251728   1.955   5.273  10.496  0.1746  0.3077 -0.3059
10105TIP3   OH251729   2.914   4.458   0.894  0.2215  0.4134 -0.3024
10105TIP3    H151730   2.899   4.376   0.941  0.6537 -0.1111 -1.0497
10105TIP3    H251731   2.994   4.494   0.933 -0.4072  0.8975  0.5710
10106TIP3   OH251732   0.495   4.389   4.833 -0.2452  0.3086 -0.1720
10106TIP3    H151733   0.516   4.300   4.806 -2.6215 -0.7126  1.0142
10106TIP3    H251734   0.551   4.405   4.909 -0.5812 -0.6095  0.2780
10107TIP3   OH251735   2.858   3.179   5.797  0.7977 -0.1163  0.2975
10107TIP3    H151736   2.772   3.138   5.786  2.0447 -3.4527  1.6093
10107TIP3    H251737   2.854   3.257   5.742 -2.7208 -0.5974 -0.4139
10108TIP3   OH251738   2.623   1.400   0.718  0.2925  0.0021 -0.6400
10108TIP3    H151739   2.705   1.449   0.716  0.4834 -0.1493  1.3052
10108TIP3    H251740   2.576   1.427   0.639  2.2390  0.0104 -1.8544
10109TIP3   OH251741   4.011   5.178   5.880  0.3002  0.7420 -0.8435
10109TIP3    H151742   4.038   5.131   5.802 -1.7647  0.0887 -1.2357
10109TIP3    H251743   4.092   5.197   5.926  1.4097 -0.8625 -2.0160
10110TIP3   OH251744   2.743   0.061   2.384 -0.4263 -0.8187 -0.0125
10110TIP3    H151745   2.816   0.014   2.343  1.0671 -0.0625  1.6293
10110TIP3    H251746   2.665   0.015   2.354  0.8689 -3.4452  0.3900
10111TIP3   OH251747   0.314   5.907   1.124  0.4032  0.1517 -0.3013
10111TIP3    H151748   0.235   5.914   1.070 -0.6909 -2.6144  0.7568
10111TIP3    H251749   0.301   5.972   1.193 -0.6371  0.1725 -0.4950
10112TIP3   OH251750   6.103   6.732  16.609 -0.1737 -0.3777  0.7879
10112TIP3    H151751   6.053   6.714  16.530  0.6474 -2.1494  0.6315
10112TIP3    H251752   6.162   6.804  16.585  0.4806 -1.2873 -0.4162
10113TIP3   OH251753   0.636   5.351   2.680  0.6778 -0.3755  0.1886
10113TIP3    H151754   0.703   5.294   2.716  1.9599  1.8795  1.5522
10113TIP3    H251755   0.592   5.389   2.756  0.4363  1.0940 -0.6433
10114TIP3   OH251756   0.581   4.156   4.656 -0.0660 -0.3913 -0.0275
10114TIP3    H151757   0.623   4.188   4.576  0.9251  2.2025  1.3930
10114TIP3    H251758   0.642   4.092   4.692  0.3820 -0.1841 -0.4147
10115TIP3   OH251759   0.881   0.829  15.311 -0.3198  0.0574 -0.0666
10115TIP3    H151760   0.969   0.864  15.305 -0.4938  0.2928 -1.4399
10115TIP3    H251761   0.875   0.764  15.241 -0.8538 -0.8308  0.7731
10116TIP3   OH251762   4.728   2.981   5.401  0.4958 -0.3179 -0.0957
10116TIP3    H151763   4.726   2.892   5.368 -0.4530 -0.8018  1.1980
10116TIP3    H251764   4.650   2.989   5.456  1.3792  0.7970  1.0836
10117TIP3   OH251765   0.232   1.511   4.298  0.8616 -0.1313 -0.3482
10117TIP3    H151766   0.209   1.458   4.222  0.3476  0.7384 -0.8154
10117TIP3    H251767   0.230   1.601   4.266 -0.6662  0.3560  1.0055
10118TIP3   OH251768   3.020   0.686   1.657  0.2222 -0.4498 -0.5051
10118TIP3    H151769   2.941   0.730   1.627 -0.4102 -0.9143  0.4272
10118TIP3    H251770   3.017   0.693   1.753  3.4558  3.2855 -0.4194
10119TIP3   OH251771   2.078   2.137   1.856 -0.0350  0.0594 -0.4957
10119TIP3    H151772   2.044   2.101   1.937  1.1539 -0.2615 -0.1137
10119TIP3    H251773   2.116   2.062   1.810  0.3971  0.4356 -0.7692
10120TIP3   OH251774   0.251   3.401   0.405  0.3410  0.2091  0.1795
10120TIP3    H151775   0.258   3.485   0.361  0.2217 -0.3571 -0.9516
10120TIP3    H251776   0.212   3.342   0.340 -0.6133 -0.4568  1.3041
10121TIP3   OH251777   3.567   5.858  12.604  0.6645 -0.8727 -0.0832
10121TIP3    H151778   3.533   5.918  12.537  2.2703  1.0207  0.7101
10121TIP3    H251779   3.499   5.791  12.612 -1.5254  1.1440 -0.5968
10122TIP3   OH251780   4.486   5.433   2.487  0.1344  0.8838 -0.1918
10122TIP3    H151781   4.528   5.449   2.572 -2.8396  1.9730  1.1908
10122TIP3    H251782   4.549   5.468   2.424  1.3510  2.4216  1.7281
10123TIP3   OH251783   2.166   0.363   0.264 -0.3116  0.0554 -0.3797
10123TIP3    H151784   2.107   0.385   0.335 -1.5164  1.6969 -1.7954
10123TIP3    H251785   2.108   0.339   0.191  0.7866  0.6353 -1.4827
10124TIP3   OH251786   0.707   3.017   1.167  0.2032  0.2906  0.2981
10124TIP3    H151787   0.754   2.958   1.108  0.8053  1.2923 -0.2721
10124TIP3    H251788   0.713   3.103   1.124  1.5474  1.2764  2.2711
10125TIP3   OH251789   5.647   0.997   2.647  0.1248  0.6400 -0.3439
10125TIP3    H151790   5.597   0.958   2.575 -0.2794  1.5774 -0.5923
10125TIP3    H251791   5.594   1.071   2.675 -0.6789 -0.8116  2.2434
10126TIP3   OH251792   4.499   1.189  17.233 -0.5491 -0.4178  0.1729
10126TIP3    H151793   4.589   1.221  17.236 -0.3535 -1.0047  1.9880
10126TIP3    H251794   4.486   1.160  17.143  1.0088 -0.1187 -0.1656
10127TIP3   OH251795   0.015   1.832  13.706 -0.2786 -0.0329  0.5087
10127TIP3    H151796   0.104   1.844  13.739  0.6720 -2.4629 -0.9102
10127TIP3    H251797  -0.008   1.742  13.731 -2.0604  0.2913  0.1709
10128TIP3   OH251798   1.772   1.960  16.912 -0.2828  0.0940  0.2809
10128TIP3    H151799   1.847   2.011  16.941  0.2315 -1.8135  2.6546
10128TIP3    H251800   1.696   2.008  16.944  0.0203  0.8176 -0.0586
10129TIP3   OH251801   0.761   3.205   4.260 -0.3365  0.2155 -0.0969
10129TIP3    H151802   0.850   3.234   4.281 -0.4954  1.3200 -0.8619
10129TIP3    H251803   0.774   3.128   4.204  0.2719  2.1329 -2.7936
10130TIP3   OH251804   4.260   1.843   4.993 -0.1547  0.4051  0.5851
10130TIP3    H151805   4.326   1.906   5.022 -0.2783  0.7055  0.2282
10130TIP3    H251806   4.178   1.875   5.031 -0.1814  0.3323  0.5889
10131TIP3   OH251807   0.476   3.489  12.118 -0.3046 -0.3854  0.6428
10131TIP3    H151808   0.487   3.419  12.183  1.2314 -0.4866  0.3084
10131TIP3    H251809   0.561   3.532  12.115 -1.2541  1.6212  0.9394
10132TIP3   OH251810   2.664   2.841  17.365  0.1419  0.1321  0.6386
10132TIP3    H151811   2.652   2.905  17.295  0.3830  0.7498  1.1507
10132TIP3    H251812   2.729   2.780  17.331 -1.0813 -0.6528 -0.3921
10133TIP3   OH251813   2.447   6.216   4.291 -0.5005 -0.2336 -0.6430
10133TIP3    H151814   2.396   6.175   4.221  0.2679 -1.9077 -0.2576
10133TIP3    H251815   2.381   6.260   4.345 -1.4354 -1.4273 -0.7691
10134TIP3   OH251816   3.800   6.592   3.077  0.2553  0.0026 -0.2326
10134TIP3    H151817   3.827   6.511   3.032  0.9673  0.3298 -0.4084
10134TIP3    H251818   3.729   6.626   3.023 -0.5409 -0.8655  0.2267
10135TIP3   OH251819   2.008   6.588   2.743  0.3005  0.1169 -0.3378
10135TIP3    H151820   1.982   6.499   2.766 -0.1503  0.0259 -1.1566
10135TIP3    H251821   1.970   6.602   2.656  0.9763  0.8494 -0.5240
10136TIP3   OH251822   5.230   4.952   1.436  0.1979  0.1533 -0.8771
10136TIP3    H151823   5.174   5.021   1.400 -1.6702 -0.9329 -0.1345
10136TIP3    H251824   5.174   4.875   1.441  1.3366 -0.6050  1.2733
10137TIP3   OH251825   1.232   2.186  10.358  0.2279  0.3484 -0.2779
10137TIP3    H151826   1.177   2.113  10.385  0.7633  0.5877  1.6687
10137TIP3    H251827   1.217   2.253  10.426  0.9786  1.4046 -1.1191
10138TIP3   OH251828   1.834   4.971  16.386  0.3381  0.0209 -0.0602
10138TIP3    H151829   1.895   5.036  16.421  0.1840 -0.0193  0.2867
10138TIP3    H251830   1.871   4.946  16.301  1.2254 -0.5955  0.5020
10139TIP3   OH251831   0.201   6.477  14.894 -0.2477  0.6220  0.4537
10139TIP3    H151832   0.175   6.562  14.929 -0.5592  1.2954 -1.3247
10139TIP3    H251833   0.140   6.460  14.823  1.0455 -0.1386 -0.5238
10140TIP3   OH251834   3.800   6.579  16.815  0.9820  0.5903 -0.3346
10140TIP3    H151835   3.761   6.664  16.793 -1.2945 -0.9273 -2.6430
10140TIP3    H251836   3.783   6.524  16.739  2.7756 -1.8627  0.8992
10141TIP3   OH251837   1.656   2.336   5.841  0.2059 -0.1567  0.0403
10141TIP3    H151838   1.714   2.263   5.862  2.1145  1.3534  0.2970
10141TIP3    H251839   1.628   2.370   5.925 -0.2172 -0.2246 -0.0702
10142TIP3   OH251840   6.354   3.847   4.625 -0.1599 -0.3916 -0.1128
10142TIP3    H151841   6.279   3.800   4.589 -0.2523 -2.1151  2.0736
10142TIP3    H251842   6.325   3.938   4.631 -1.1554 -0.5807 -1.5402
10143TIP3   OH251843   0.043   4.731   6.083  0.0466  0.2001 -0.1213
10143TIP3    H151844   0.012   4.641   6.092  0.9310  0.1214  3.4016
10143TIP3    H251845  -0.032   4.786   6.105  0.1250  0.2455  0.0381
10144TIP3   OH251846   3.681   3.194  17.006  0.7178 -0.3105  0.6145
10144TIP3    H151847   3.699   3.284  16.978 -0.6052 -0.3117 -0.3357
10144TIP3    H251848   3.596   3.198  17.048  0.6207 -1.1271  0.5182
10145TIP3   OH251849   6.704   5.594  13.379  0.7113 -0.1171  0.1741
10145TIP3    H151850   6.622   5.605  13.428  1.2751 -1.6053  1.5382
10145TIP3    H251851   6.711   5.500  13.364  0.9919  0.2149 -2.1102
10146TIP3   OH251852   2.093   3.032   1.545 -0.2125  0.1762  0.5541
10146TIP3    H151853   2.028   3.048   1.614 -0.5663  0.7668  0.0974
10146TIP3    H251854   2.104   3.117   1.503  1.3961  0.2551  1.0705
10147TIP3   OH251855   4.906   5.050  14.064 -0.6279 -0.3892  0.3250
10147TIP3    H151856   4.899   5.071  14.157 -0.4181 -0.5451  0.3766
10147TIP3    H251857   4.977   5.106  14.032 -1.7495  0.8308 -0.0893
10148TIP3   OH251858   6.446   6.146   0.205  0.6479  0.3902  0.3983
10148TIP3    H151859   6.528   6.102   0.182  0.1823 -0.3846  0.1959
10148TIP3    H251860   6.387   6.126   0.132  0.1626  0.6188  0.7240
10149TIP3   OH251861   3.967   6.630   4.569 -0.8873 -0.2049 -0.0264
10149TIP3    H151862   3.999   6.719   4.583  0.2738 -0.2688 -1.8788
10149TIP3    H251863   3.909   6.637   4.493 -1.0548 -0.9689  0.0198
10150TIP3   OH251864   3.204   0.156   0.787 -0.4579  0.3349  0.4712
10150TIP3    H151865   3.272   0.189   0.846 -0.6331  0.5485  0.5610
10150TIP3    H251866   3.233   0.180   0.699 -0.3046  0.2185  0.4918
10151TIP3   OH251867   6.285   3.481   5.778 -0.2927 -0.5687  0.4056
10151TIP3    H151868   6.202   3.447   5.813 -0.0907  0.3649  1.8941
10151TIP3    H251869   6.310   3.551   5.839  0.6195  0.4756 -1.0915
10152TIP3   OH251870   0.956   2.682  15.710 -0.0052  0.0237 -0.2567
10152TIP3    H151871   0.903   2.604  15.695  1.7360 -1.6685  1.7222
10152TIP3    H251872   0.894   2.755  15.705 -2.0066 -1.6078 -0.5207
10153TIP3   OH251873   1.924   1.837   3.743  0.6992 -0.0059  0.0575
10153TIP3    H151874   1.909   1.924   3.705  0.8896 -1.1617 -2.9094
10153TIP3    H251875   1.931   1.779   3.667  0.4837 -2.6523  1.9539
10154TIP3   OH251876   4.106   1.052  11.256  0.4833  0.0695 -0.0437
10154TIP3    H151877   4.035   1.100  11.212  0.3981 -0.1531 -0.1493
10154TIP3    H251878   4.183   1.067  11.200  0.7860  1.2143  0.6409
10155TIP3   OH251879   3.611   2.748   5.468  0.0007  0.0764 -0.2858
10155TIP3    H151880   3.698   2.753   5.429  0.7396  1.3345  1.3871
10155TIP3    H251881   3.626   2.719   5.558 -0.9878  2.5639  0.7963
10156TIP3   OH251882   0.912   1.805  17.123 -0.4877 -0.1533 -0.3495
10156TIP3    H151883   0.820   1.782  17.136 -0.5313 -1.2584 -2.2157
10156TIP3    H251884   0.942   1.744  17.056  2.6407 -2.3491  2.6943
10157TIP3   OH251885   1.673   0.143  14.343  0.3538 -0.2583  0.0705
10157TIP3    H151886   1.600   0.189  14.302  0.0838 -0.0628  0.7517
10157TIP3    H251887   1.750   0.175  14.297  0.2534  1.4892  1.0238
10158TIP3   OH251888   0.549   6.079   1.644 -0.1776 -0.2431 -0.2643
10158TIP3    H151889   0.457   6.065   1.667 -0.3743 -1.4441 -1.5964
10158TIP3    H251890   0.582   5.992   1.623  0.9063  0.3281 -1.0504
10159TIP3   OH251891   0.326   2.463  10.858  0.7369 -0.6069  0.2745
10159TIP3    H151892   0.256   2.479  10.921  0.1863 -3.8855  0.6576
10159TIP3    H251893   0.282   2.421  10.783  1.7487  0.9753 -1.2967
10160TIP3   OH251894   1.777   1.194  14.458  0.5013 -0.2968 -0.1863
10160TIP3    H151895   1.693   1.178  14.417  1.0418 -1.2512 -0.9703
10160TIP3    H251896   1.776   1.139  14.537  0.3674 -0.2476 -0.1533
10161TIP3   OH251897   6.239   2.927  15.372  0.1871 -0.0584  0.0100
10161TIP3    H151898   6.276   2.849  15.331  0.8448 -1.5913  3.1523
10161TIP3    H251899   6.297   2.998  15.346  2.7009 -1.5899  1.0775
10162TIP3   OH251900   4.547   5.552  14.202  0.0445 -0.2862 -0.3922
10162TIP3    H151901   4.467   5.568  14.252 -0.9785  0.8151 -2.2347
10162TIP3    H251902   4.600   5.631  14.216  0.1470 -0.3633 -0.3438
10163TIP3   OH251903   5.289   5.733   1.618  0.4962  0.0131 -0.4113
10163TIP3    H151904   5.339   5.672   1.672 -1.0657 -0.7803  0.1769
10163TIP3    H251905   5.354   5.768   1.556  1.9236 -0.4425  0.7643
10164TIP3   OH251906   2.527   1.694   0.680 -0.0109 -0.4329  0.2265
10164TIP3    H151907   2.594   1.750   0.641  0.7220 -1.8989 -0.7037
10164TIP3    H251908   2.512   1.625   0.615 -2.4283 -0.1731  0.4252
10165TIP3   OH251909   6.402   0.669  17.022 -0.1222 -0.3098  0.0854
10165TIP3    H151910   6.473   0.729  17.001  0.3546 -0.4409  1.2529
10165TIP3    H251911   6.410   0.598  16.957  2.3002 -1.5248  1.5749
10166TIP3   OH251912   5.786   6.493  16.780 -0.1819 -0.0674  0.4716
10166TIP3    H151913   5.862   6.439  16.761  0.0805  0.6136 -0.4999
10166TIP3    H251914   5.820   6.583  16.780 -1.1419  0.3305 -0.9949
10167TIP3   OH251915   1.827   3.670   2.522 -0.6841 -0.4157  0.0498
10167TIP3    H151916   1.829   3.733   2.594  0.9307  0.2438 -0.5261
10167TIP3    H251917   1.810   3.724   2.445  0.4659 -0.6863 -0.4142
10168TIP3   OH251918   3.144   4.279  16.184 -0.3653  0.1246 -0.9024
10168TIP3    H151919   3.159   4.213  16.116 -0.4273 -1.7969  0.8544
10168TIP3    H251920   3.206   4.257  16.253  0.1374  2.4180 -0.5319
10169TIP3   OH251921   4.096   0.680  15.087  0.0686 -0.1184  0.2792
10169TIP3    H151922   4.119   0.658  15.177 -2.4233 -3.5648  0.2856
10169TIP3    H251923   4.154   0.626  15.033  1.0418  1.3679 -0.2238
10170TIP3   OH251924   2.293   1.300   3.438 -0.1598  0.4212 -0.5864
10170TIP3    H151925   2.339   1.375   3.475 -0.0976  0.0897  0.0251
10170TIP3    H251926   2.306   1.308   3.344  2.1263 -0.2829 -0.3806
10171TIP3   OH251927   6.669   4.423   1.229 -0.2729 -0.0829 -0.2820
10171TIP3    H151928   6.711   4.350   1.184  0.3055 -0.3337  0.6350
10171TIP3    H251929   6.575   4.411   1.213 -0.4291 -2.3961  1.7401
10172TIP3   OH251930   0.780   1.676  13.972 -0.4419 -0.3097  0.7363
10172TIP3    H151931   0.770   1.749  14.033 -0.9008  0.1405  0.1386
10172TIP3    H251932   0.722   1.608  14.006  0.4264 -0.6341  1.6245
10173TIP3   OH251933   6.236   4.060  13.235 -0.0046 -0.5393 -0.1073
10173TIP3    H151934   6.157   4.059  13.181 -0.8121  3.2468  0.6977
10173TIP3    H251935   6.211   4.016  13.316 -1.2721  0.4723  0.0744
10174TIP3   OH251936   4.443   1.144  11.679 -0.1502 -0.4947  0.4065
10174TIP3    H151937   4.481   1.192  11.753  1.4341 -3.0675  1.3912
10174TIP3    H251938   4.374   1.091  11.718  0.6040 -1.7639  0.0958
10175TIP3   OH251939   5.439   1.105  13.247  0.8472 -0.2839  0.1257
10175TIP3    H151940   5.363   1.081  13.194  0.2504 -1.7977  1.5887
10175TIP3    H251941   5.484   1.171  13.195 -0.9937  0.0255 -1.1752
10176TIP3   OH251942   3.831   1.704  12.964  0.0467  0.5855 -0.2140
10176TIP3    H151943   3.855   1.794  12.982 -0.0832  0.6354 -0.2872
10176TIP3    H251944   3.824   1.662  13.050  0.1454  0.6351 -0.1831
10177TIP3   OH251945   6.103   5.810   2.259  0.3868  0.6462  0.2058
10177TIP3    H151946   6.072   5.753   2.188  1.2883  0.3745  0.0222
10177TIP3    H251947   6.187   5.773   2.285  0.4428  1.2236  0.8757
10178TIP3   OH251948   3.499   4.514   5.472 -0.5332 -0.5914  0.5814
10178TIP3    H151949   3.593   4.495   5.474 -0.1890  0.9582  0.8362
10178TIP3    H251950   3.489   4.578   5.402 -1.4215 -0.8011  0.5050
10179TIP3   OH251951   0.914   1.427   5.323  0.1894  0.5133  0.4292
10179TIP3    H151952   0.870   1.442   5.407  0.2175 -1.9005  0.9656
10179TIP3    H251953   1.007   1.440   5.343  0.1727  0.2193  0.7080
10180TIP3   OH251954   3.152   6.665   1.831 -0.5454 -0.5996 -0.9227
10180TIP3    H151955   3.104   6.744   1.805  0.3908  0.2077 -0.2819
10180TIP3    H251956   3.243   6.684   1.810 -0.0777 -0.8590  0.6748
10181TIP3   OH251957   6.395   5.313  12.818 -0.3568 -0.7929  0.0831
10181TIP3    H151958   6.346   5.355  12.747  0.9086 -1.7218 -1.3943
10181TIP3    H251959   6.346   5.335  12.897 -1.4615  0.8168 -0.9906
10182TIP3   OH251960   3.247   0.087   3.278  0.5585 -0.6775 -0.1101
10182TIP3    H151961   3.303   0.059   3.206  1.6062 -0.6574  0.6820
10182TIP3    H251962   3.175   0.133   3.235  2.0145  0.8144 -1.0754
10183TIP3   OH251963   1.358   3.803  12.973  0.3043  0.0028  0.0396
10183TIP3    H151964   1.385   3.848  13.053  2.4504 -0.4618 -0.3652
10183TIP3    H251965   1.267   3.830  12.960  0.5386  1.7020  1.5075
10184TIP3   OH251966   5.702   0.896  12.876  0.4338 -0.0685  0.0360
10184TIP3    H151967   5.708   0.806  12.842 -0.3260  0.4324 -1.5246
10184TIP3    H251968   5.653   0.887  12.957 -1.5781 -0.8651 -1.1898
10185TIP3   OH251969   3.327   6.746   2.995  0.9544 -0.0242 -0.1388
10185TIP3    H151970   3.280   6.749   2.912  1.6423  0.5344 -0.5220
10185TIP3    H251971   3.354   6.655   3.005 -2.4266 -1.0160  1.3901
10186TIP3   OH251972   6.595   1.035  13.681  0.7208  0.5592 -0.1694
10186TIP3    H151973   6.523   0.973  13.670  2.1703 -0.8015 -3.1417
10186TIP3    H251974   6.553   1.115  13.715 -1.6904 -0.9958  0.7724
10187TIP3   OH251975   6.700   6.193   2.757  0.0936 -0.5335 -0.5602
10187TIP3    H151976   6.679   6.132   2.827 -0.5652  0.4336  0.1012
10187TIP3    H251977   6.796   6.201   2.760 -0.0482  1.0423  1.5820
10188TIP3   OH251978   0.474   3.262   0.191  0.2889  0.1242 -0.4394
10188TIP3    H151979   0.498   3.355   0.197 -0.4016  0.4344 -1.9948
10188TIP3    H251980   0.381   3.259   0.213  0.4501 -0.3070  0.2213
10189TIP3   OH251981   3.781   0.594  12.449  0.3347 -0.0309  0.1196
10189TIP3    H151982   3.715   0.621  12.386  0.6778 -3.4677 -1.9959
10189TIP3    H251983   3.747   0.512  12.485  0.9922  0.9116  3.1987
10190TIP3   OH251984   5.275   5.887  17.352  0.1599  0.0601  0.2180
10190TIP3    H151985   5.325   5.843  17.421  0.4541 -0.4805 -0.3266
10190TIP3    H251986   5.189   5.903  17.391 -0.0778 -1.3380  0.3282
10191TIP3   OH251987   1.263   2.408   1.367  0.2591 -0.0285  0.3712
10191TIP3    H151988   1.310   2.439   1.289 -0.4051  0.3803  0.1235
10191TIP3    H251989   1.269   2.313   1.363 -1.7494 -0.1633 -1.4769
10192TIP3   OH251990   6.148   6.206  14.400  0.5482 -0.5441 -0.6206
10192TIP3    H151991   6.118   6.252  14.479 -0.5226  1.7299 -2.2533
10192TIP3    H251992   6.075   6.214  14.339  1.9940 -0.7432 -2.4429
10193TIP3   OH251993   3.501   1.492   1.092 -0.1566 -0.5411 -0.3637
10193TIP3    H151994   3.524   1.440   1.014  1.0629 -0.5841  0.0120
10193TIP3    H251995   3.467   1.428   1.154 -1.8859 -0.4046 -1.1172
10194TIP3   OH251996   4.130   3.143   2.385  0.2626  0.2144  0.2363
10194TIP3    H151997   4.068   3.082   2.347  0.5232  0.2962 -0.3338
10194TIP3    H251998   4.087   3.175   2.465 -0.6486  0.6562 -0.4142
10195TIP3   OH251999   1.255   4.944   3.679 -0.2753  0.2989  0.2260
10195TIP3    H152000   1.234   4.858   3.644  0.0006  0.2542  0.1711
10195TIP3    H252001   1.343   4.964   3.645 -0.2630  0.5234  0.3830
10196TIP3   OH252002   5.940   0.914   2.210  0.2924  0.2043 -0.2631
10196TIP3    H152003   5.997   0.991   2.213 -0.3680  0.7660 -1.6400
10196TIP3    H252004   5.940   0.887   2.119  0.9790 -1.8193  0.2893
10197TIP3   OH252005   3.278   4.644   0.626  0.3408  0.2339  0.0721
10197TIP3    H152006   3.301   4.680   0.711 -1.8891 -0.2732  0.9625
10197TIP3    H252007   3.189   4.610   0.637 -0.5314  1.2641 -2.8027
10198TIP3   OH252008   0.730   3.457  13.155  0.2092 -0.7162 -0.3347
10198TIP3    H152009   0.669   3.428  13.087  0.2753 -0.8443 -0.3391
10198TIP3    H252010   0.675   3.486  13.227  0.0253  1.6259 -1.2981
10199TIP3   OH252011   3.291   1.057  15.032  0.6997  0.7600  0.1685
10199TIP3    H152012   3.373   1.101  15.051  1.1058 -0.4944  1.4740
10199TIP3    H252013   3.262   1.095  14.949  2.4468  1.4085 -0.1812
10200TIP3   OH252014   2.305   6.172   0.896  0.0600 -0.1620  0.2257
10200TIP3    H152015   2.308   6.077   0.884 -0.3366  0.0077 -1.4581
10200TIP3    H252016   2.300   6.184   0.991 -3.0185 -1.9209  0.4113
10201TIP3   OH252017   6.107   4.265  14.642  0.6009 -0.2439  0.5415
10201TIP3    H152018   6.130   4.350  14.680  1.0743 -0.7128  1.3514
10201TIP3    H252019   6.016   4.252  14.667  0.8085 -0.3948  1.2523
10202TIP3   OH252020   3.276   0.543   1.148  0.6314 -0.0368 -1.2683
10202TIP3    H152021   3.229   0.545   1.232  1.3676 -1.8544 -0.7446
10202TIP3    H252022   3.212   0.572   1.083  0.2122  1.9860 -0.0455
10203TIP3   OH252023   2.366   1.808  11.850  0.1127  0.0680 -0.3094
10203TIP3    H152024   2.421   1.730  11.856 -1.0196 -0.8182 -1.1458
10203TIP3    H252025   2.375   1.850  11.936  2.4566  0.2301 -0.5591
10204TIP3   OH252026   6.724   6.409  12.946  0.3661 -0.3721 -0.1670
10204TIP3    H152027   6.819   6.415  12.947  0.5051 -1.8595 -1.1122
10204TIP3    H252028   6.701   6.393  12.855 -0.7806 -0.3011  0.0845
10205TIP3   OH252029   3.918   3.164   2.090 -0.0577  0.7146 -0.2055
10205TIP3    H152030   3.892   3.082   2.050  0.1765  0.8442 -0.6325
10205TIP3    H252031   3.884   3.159   2.180 -0.8979  0.5718 -0.5187
10206TIP3   OH252032   5.614   3.624  12.453 -0.3136 -0.6788 -0.2612
10206TIP3    H152033   5.610   3.665  12.367 -0.0365  0.1952  0.1326
10206TIP3    H252034   5.526   3.588  12.466 -1.1966  1.4740  0.1743
10207TIP3   OH252035   2.160   4.460  13.783  0.1346 -0.3756 -0.6085
10207TIP3    H152036   2.178   4.503  13.866  2.1044 -1.0910 -0.6208
10207TIP3    H252037   2.159   4.367  13.804 -0.6951 -0.5036 -1.1629
10208TIP3   OH252038   1.819   5.970  13.648 -0.2406 -0.1069 -0.1796
10208TIP3    H152039   1.770   5.965  13.566 -1.6854 -1.8694  0.7159
10208TIP3    H252040   1.871   5.890  13.649  0.2593  0.2228  0.3239
10209TIP3   OH252041   4.222   6.143  13.083 -0.0395  0.0810  0.8129
10209TIP3    H152042   4.166   6.103  13.017  1.1541 -0.9885  0.4228
10209TIP3    H252043   4.179   6.122  13.166  0.2342 -1.5631  0.5811
10210TIP3   OH252044   4.002   6.142   2.501 -0.4437  0.2161  0.5345
10210TIP3    H152045   4.048   6.066   2.466 -0.9260 -0.4639  1.3218
10210TIP3    H252046   4.066   6.212   2.499 -0.5319  0.3129 -1.9553
10211TIP3   OH252047   3.185   4.209  15.674  0.2797  0.3822  0.0734
10211TIP3    H152048   3.100   4.220  15.716 -0.3672 -1.7110 -0.5352
10211TIP3    H252049   3.168   4.148  15.602  1.6969  2.3533 -2.0835
10212TIP3   OH252050   1.063   4.041  14.037 -0.6616  0.0784  0.0862
10212TIP3    H152051   1.005   4.116  14.046  0.6168  1.1858 -0.4791
10212TIP3    H252052   1.126   4.067  13.969  0.4862 -1.0522  0.6667
10213TIP3   OH252053   0.433   1.716  15.137  0.1113 -0.3792 -0.6677
10213TIP3    H152054   0.499   1.751  15.077  0.8200 -3.8247 -2.1275
10213TIP3    H252055   0.374   1.665  15.080 -1.2372 -0.9733  1.1674
10214TIP3   OH252056   3.232   0.620  14.187 -0.1535  0.1504  0.7564
10214TIP3    H152057   3.321   0.596  14.211 -0.3524 -1.6412 -0.1677
10214TIP3    H252058   3.208   0.688  14.250  1.8580  0.7087  0.9999
10215TIP3   OH252059   3.786   1.347   0.421 -0.2015  0.1686  0.1262
10215TIP3    H152060   3.724   1.398   0.473  0.6089 -0.5907  1.9163
10215TIP3    H252061   3.871   1.388   0.439  0.3657 -1.3284  1.0459
10216TIP3   OH252062   0.729   1.161   2.165 -0.2548  0.2837 -0.2567
10216TIP3    H152063   0.661   1.133   2.103 -0.0293  1.0989 -0.8880
10216TIP3    H252064   0.781   1.226   2.117 -0.1456  1.0313  0.8308
10217TIP3   OH252065   4.238   0.511  16.379  0.7571 -0.1753 -0.4458
10217TIP3    H152066   4.183   0.450  16.330  0.1456  0.1519 -0.1693
10217TIP3    H252067   4.306   0.456  16.417 -0.3869 -0.8643  0.6777
10218TIP3   OH252068   2.489   1.461   4.704 -1.1264 -0.8849  0.3801
10218TIP3    H152069   2.478   1.370   4.676 -1.7519 -1.0423  1.1247
10218TIP3    H252070   2.401   1.492   4.721 -0.9420 -0.0294 -0.1592
10219TIP3   OH252071   4.149   5.225  14.712 -0.7523 -0.3789  0.0427
10219TIP3    H152072   4.110   5.149  14.668 -1.2659 -0.3814  0.4936
10219TIP3    H252073   4.093   5.241  14.787  1.4401 -1.8613  2.1372
10220TIP3   OH252074   4.348   5.188  12.027 -0.2372  0.6581 -0.0347
10220TIP3    H152075   4.293   5.265  12.014  2.0040  2.4432  0.4063
10220TIP3    H252076   4.331   5.161  12.117 -0.9096  0.7180 -0.1379
10221TIP3   OH252077   5.753   6.050  13.113  0.0623  0.3280  0.3126
10221TIP3    H152078   5.843   6.022  13.132  0.3005  0.7027 -0.2344
10221TIP3    H252079   5.718   6.075  13.198  0.1514 -0.7401  0.6732
10222TIP3   OH252080   0.980   4.048  15.754 -0.0029  0.2674 -0.0290
10222TIP3    H152081   0.906   4.082  15.704 -0.8341 -0.2625  0.8170
10222TIP3    H252082   0.969   4.087  15.841 -0.5403 -1.5212  0.7375
10223TIP3   OH252083   3.870   6.717  15.713  0.2870 -0.0717 -0.7761
10223TIP3    H152084   3.881   6.786  15.778  0.5501 -1.0411  0.2235
10223TIP3    H252085   3.940   6.656  15.731  0.4610 -0.2783 -2.0899
10224TIP3   OH252086   2.077   2.379   2.159 -0.1809 -0.3205 -0.4332
10224TIP3    H152087   2.027   2.460   2.163 -1.2742 -0.9020 -1.4115
10224TIP3    H252088   2.167   2.407   2.146 -0.6036  0.7354 -1.2460
10225TIP3   OH252089   3.538   6.302  16.603  0.1226  0.1459  0.7263
10225TIP3    H152090   3.466   6.348  16.646  1.1442  2.2972  0.3102
10225TIP3    H252091   3.498   6.225  16.564 -1.5632  0.2475  2.1182
10226TIP3   OH252092   3.606   0.558  12.765  0.0814  0.6582  0.1739
10226TIP3    H152093   3.514   0.548  12.741 -0.1526 -0.8290  1.5148
10226TIP3    H252094   3.654   0.507  12.700 -0.0222  1.4307 -0.5240
10227TIP3   OH252095   0.226   6.404  13.055 -0.7019  0.5055 -0.2332
10227TIP3    H152096   0.271   6.465  12.995  1.3018 -0.4521  0.2138
10227TIP3    H252097   0.238   6.443  13.141 -2.4165  1.1894 -0.2705
10228TIP3   OH252098   4.110   2.734  13.874  0.4452 -0.1896  0.1639
10228TIP3    H152099   4.033   2.736  13.931 -1.0945  1.0678 -1.8394
10228TIP3    H252100   4.098   2.656  13.820  1.3078 -0.7360  0.7256
10229TIP3   OH252101   6.091   2.991  13.935 -0.0525  0.4297  1.1992
10229TIP3    H152102   6.000   2.981  13.963 -0.1542 -0.6076  0.5205
10229TIP3    H252103   6.120   3.072  13.978 -1.0397  0.3441  2.0647
10230TIP3   OH252104   2.979   0.212   3.925  0.4969  0.1701  0.2809
10230TIP3    H152105   2.960   0.301   3.895  1.0466  0.8439  1.8236
10230TIP3    H252106   3.074   0.206   3.924  0.4955 -0.0743  1.0677
10231TIP3   OH252107   1.411   6.012  16.820  0.1705  0.0376  0.6566
10231TIP3    H152108   1.354   6.085  16.798  1.4416  0.9461  0.2652
10231TIP3    H252109   1.407   5.954  16.743  0.4982  0.5769  0.2255
10232TIP3   OH252110   4.186   2.163   4.219  0.1413  0.1173  0.2025
10232TIP3    H152111   4.143   2.127   4.297 -1.4583 -0.4704 -0.9002
10232TIP3    H252112   4.257   2.101   4.201  1.4676  1.0426  1.9907
10233TIP3   OH252113   6.680   5.794   5.007  0.0039  0.5018 -0.2205
10233TIP3    H152114   6.644   5.710   4.979 -0.4908 -0.0455  1.8980
10233TIP3    H252115   6.659   5.800   5.100 -0.5987  3.2961 -0.4361
10234TIP3   OH252116   5.272   2.544   3.169  0.5568  0.7789 -0.1767
10234TIP3    H152117   5.287   2.638   3.158 -1.4772  1.2124  0.2558
10234TIP3    H252118   5.231   2.516   3.087  0.5512  0.4247 -0.0572
10235TIP3   OH252119   6.157   5.829  15.758  0.2935 -0.1306 -0.0555
10235TIP3    H152120   6.183   5.916  15.730  0.1024 -0.1305 -0.2373
10235TIP3    H252121   6.194   5.770  15.692  0.5406 -0.1971  0.1431
10236TIP3   OH252122   0.789   3.113   1.880  0.3669 -0.1231  0.0999
10236TIP3    H152123   0.873   3.129   1.923  0.0545  0.3807  0.5306
10236TIP3    H252124   0.731   3.182   1.914  0.7266  1.8513 -2.8682
10237TIP3   OH252125   0.616   5.903  17.347  0.3865  0.5813  0.0725
10237TIP3    H152126   0.667   5.976  17.312  2.8538 -1.4130 -0.8163
10237TIP3    H252127   0.664   5.875  17.425  0.9327 -1.5450 -0.9510
10238TIP3   OH252128   2.627   4.850  14.564 -0.0413  0.4125 -0.2564
10238TIP3    H152129   2.572   4.789  14.514  2.3506 -1.4656 -0.7823
10238TIP3    H252130   2.620   4.932  14.516 -1.8832  0.0978 -0.6263
10239TIP3   OH252131   4.189   0.343   5.679  0.3813  0.2456 -0.2049
10239TIP3    H152132   4.116   0.360   5.739  2.0654 -0.2535  2.1145
10239TIP3    H252133   4.169   0.396   5.601 -1.8076  1.0772  0.8413
10240TIP3   OH252134   2.429   2.804  14.296  0.3917  0.2761 -0.7958
10240TIP3    H152135   2.372   2.727  14.298  0.7471  0.0092  0.7938
10240TIP3    H252136   2.422   2.841  14.384  1.6345  1.0095 -0.9803
10241TIP3   OH252137   2.138   0.914  16.457  0.4786 -0.5667 -0.1375
10241TIP3    H152138   2.151   0.893  16.549  0.8439 -3.5656 -0.7548
10241TIP3    H252139   2.194   0.990  16.441  2.6784 -1.7402  1.4848
10242TIP3   OH252140   6.691   4.184   2.186  0.5792 -0.0041  0.2555
10242TIP3    H152141   6.732   4.244   2.123  0.9425 -0.8210 -0.2973
10242TIP3    H252142   6.674   4.105   2.136  0.2105 -0.4100  1.0106
10243TIP3   OH252143   2.008   6.653  11.883 -0.0542  0.4106 -0.2015
10243TIP3    H152144   2.040   6.716  11.818 -1.1335  1.5159  0.3169
10243TIP3    H252145   1.941   6.699  11.932 -0.9382 -1.1688  0.1617
10244TIP3   OH252146   0.866   3.388   4.548 -0.1531 -0.2951  0.0449
10244TIP3    H152147   0.867   3.299   4.511 -2.9661 -0.4512  0.1293
10244TIP3    H252148   0.874   3.375   4.642 -1.4657 -0.5634  0.1353
10245TIP3   OH252149   0.403   3.482   2.866 -0.8643 -0.6298 -0.0693
10245TIP3    H152150   0.497   3.481   2.852 -0.3710  0.8741  2.5425
10245TIP3    H252151   0.371   3.406   2.817  1.7067 -1.3426 -0.7905
10246TIP3   OH252152   0.526   1.112   2.974 -0.1310 -0.2294 -0.3376
10246TIP3    H152153   0.601   1.054   2.983  0.7485  0.8805 -0.2106
10246TIP3    H252154   0.474   1.097   3.054 -1.2165 -2.5320 -1.3817
10247TIP3   OH252155   0.785   2.582   5.183  0.4608  0.6648  0.1503
10247TIP3    H152156   0.748   2.494   5.175 -0.3291  1.0246 -0.2403
10247TIP3    H252157   0.742   2.619   5.260 -1.3674  1.7068 -1.2700
10248TIP3   OH252158   3.938   5.844   2.599  0.0859 -0.1589  0.1537
10248TIP3    H152159   3.963   5.848   2.507 -0.1828  1.5159  0.1282
10248TIP3    H252160   3.844   5.860   2.599 -0.4706 -2.9332  0.5323
10249TIP3   OH252161   2.881   4.381  13.159  0.7641 -0.7890  0.1484
10249TIP3    H152162   2.799   4.340  13.132  0.8710 -0.5681 -0.5124
10249TIP3    H252163   2.896   4.451  13.096  2.5880 -2.2116 -1.1028
10250TIP3   OH252164   5.925   2.178  14.212  0.3932 -0.3928 -0.0719
10250TIP3    H152165   5.900   2.180  14.305  0.2048 -0.7663 -0.1118
10250TIP3    H252166   5.841   2.183  14.165  0.4203 -1.1297 -0.2131
10251TIP3   OH252167   0.485   1.513  17.083 -0.3861 -0.3142 -0.5124
10251TIP3    H152168   0.449   1.449  17.021  1.3619 -0.5303 -1.3791
10251TIP3    H252169   0.447   1.490  17.167 -4.3997  1.1804 -1.6942
10252TIP3   OH252170   1.538   0.828  15.798 -0.0046 -0.5047  0.0004
10252TIP3    H152171   1.470   0.894  15.799 -0.3953 -0.8886  1.7638
10252TIP3    H252172   1.571   0.828  15.708 -3.1857 -1.1965 -1.2900
10253TIP3   OH252173   6.741   0.375   4.750  0.7647 -0.1579 -0.0556
10253TIP3    H152174   6.656   0.392   4.709 -1.3586  0.5822  4.1828
10253TIP3    H252175   6.768   0.459   4.786  0.4236 -1.3462  3.3548
10254TIP3   OH252176   2.608   5.947   5.087 -0.0057  0.0844  0.2928
10254TIP3    H152177   2.530   5.997   5.064  0.2494 -0.1628 -1.1849
10254TIP3    H252178   2.621   5.964   5.181 -1.8488  0.0920  0.5814
10255TIP3   OH252179   2.437   1.551   6.466  0.4798  0.0684 -0.3020
10255TIP3    H152180   2.505   1.608   6.501 -0.3388  1.0061 -0.1971
10255TIP3    H252181   2.375   1.541   6.538  0.1392 -0.1871 -0.6244
10256TIP3   OH252182   1.385   5.650  11.220  0.4624  0.3823 -0.0562
10256TIP3    H152183   1.346   5.644  11.133  0.2062  0.4747  0.0508
10256TIP3    H252184   1.310   5.659  11.279  0.5646 -0.8758  0.2943
10257TIP3   OH252185   5.660   1.730   5.835 -0.2852  0.7911  0.5795
10257TIP3    H152186   5.594   1.701   5.899  1.4837 -1.9475  1.3357
10257TIP3    H252187   5.609   1.753   5.757 -2.2067 -1.1453  1.1371
10258TIP3   OH252188   2.465   5.240   2.445 -1.3026  0.1697 -0.1950
10258TIP3    H152189   2.389   5.233   2.387 -0.9166 -0.3974 -0.6399
10258TIP3    H252190   2.486   5.149   2.469 -1.0698  0.3554  0.3259
10259TIP3   OH252191   4.666   4.030   6.342 -1.0533  0.8936  0.0715
10259TIP3    H152192   4.759   4.048   6.354 -1.3103  0.9455  2.2285
10259TIP3    H252193   4.640   4.088   6.271  0.7784  0.0255 -1.4199
10260TIP3   OH252194   4.899   4.959   0.690  0.3815 -0.2205 -0.0004
10260TIP3    H152195   4.884   4.932   0.599 -0.3157 -0.8129  0.2862
10260TIP3    H252196   4.834   4.911   0.741 -0.1780  1.1756  0.6593
10261TIP3   OH252197   6.285   5.401   6.353 -0.0323  0.3162 -0.2601
10261TIP3    H152198   6.295   5.404   6.448  0.2786 -0.8026 -0.2424
10261TIP3    H252199   6.359   5.452   6.320 -0.1227  0.6813  0.0865
10262TIP3   OH252200   5.728   5.677   4.698 -0.1555  0.1270 -0.2361
10262TIP3    H152201   5.820   5.701   4.712  0.1762 -0.4982 -1.2972
10262TIP3    H252202   5.727   5.631   4.614 -1.2719 -0.8587  0.2934
10263TIP3   OH252203   4.503   3.718  13.988  0.2261 -0.3596  0.3634
10263TIP3    H152204   4.544   3.699  14.072  1.0804 -3.0871 -0.5694
10263TIP3    H252205   4.577   3.734  13.928 -0.2716 -0.5261 -0.3128
10264TIP3   OH252206   1.714   3.152   1.373  0.0170  0.1088  0.4658
10264TIP3    H152207   1.729   3.080   1.435  1.6025 -0.5439 -0.6180
10264TIP3    H252208   1.745   3.230   1.420  0.2747 -0.2295  0.8706
10265TIP3   OH252209   4.213   6.032  13.454 -0.6733 -0.5194 -0.1261
10265TIP3    H152210   4.264   5.978  13.514  0.6434  0.9220  0.1308
10265TIP3    H252211   4.278   6.073  13.397 -1.8265 -1.1971 -2.0323
10266TIP3   OH252212   0.494   6.070   1.337 -0.2625 -0.3693 -0.2684
10266TIP3    H152213   0.536   6.128   1.400 -1.6511 -0.8005  1.1174
10266TIP3    H252214   0.419   6.120   1.305 -0.5603 -0.8097 -0.2634
10267TIP3   OH252215   2.202   1.913   0.858  0.7078  0.0564  0.4394
10267TIP3    H152216   2.225   1.967   0.783 -0.4997 -0.1923 -0.1451
10267TIP3    H252217   2.157   1.973   0.917 -1.0889 -0.3462 -0.4344
10268TIP3   OH252218   1.381   0.003   2.845 -0.1343 -0.0431 -0.2835
10268TIP3    H152219   1.446   0.007   2.775  0.2991  0.6248  0.1399
10268TIP3    H252220   1.428   0.032   2.923 -0.8284  0.0376  0.1149
10269TIP3   OH252221   1.082   1.264  17.055 -0.0039  0.2787  0.5017
10269TIP3    H152222   1.060   1.211  16.979  2.6474  1.0604 -0.9055
10269TIP3    H252223   1.003   1.260  17.110 -0.6056 -3.5565 -0.3524
10270TIP3   OH252224   6.744   4.548  11.751 -0.3179  0.1965 -0.2327
10270TIP3    H152225   6.680   4.482  11.780 -2.1907  0.5836 -3.0374
10270TIP3    H252226   6.811   4.497  11.705 -1.0767  0.1039 -1.2688
10271TIP3   OH252227   1.088   0.214   4.129  0.1337 -0.1332  0.0995
10271TIP3    H152228   1.166   0.209   4.185 -0.4038  2.5561  1.2590
10271TIP3    H252229   1.014   0.211   4.190 -0.4508  3.6253 -0.1419
10272TIP3   OH252230   3.004   4.293   5.911  0.2215  0.1629  0.0687
10272TIP3    H152231   3.001   4.388   5.912  1.5341  0.2422 -0.7109
10272TIP3    H252232   2.936   4.267   5.848  0.6188  0.6504 -0.5732
10273TIP3   OH252233   1.416   3.140  17.302  0.6317  0.3263  0.8090
10273TIP3    H152234   1.329   3.158  17.336  0.6993  1.1525  0.5816
10273TIP3    H252235   1.429   3.205  17.233  0.8399 -0.7605 -0.1983
10274TIP3   OH252236   0.256   6.547  12.617  0.1108 -0.1129  0.2902
10274TIP3    H152237   0.180   6.498  12.585 -0.8635  1.5931 -0.1407
10274TIP3    H252238   0.331   6.502  12.580 -0.7594 -1.1005 -0.3298
10275TIP3   OH252239   4.296   5.431  11.758  0.0585 -0.0590 -0.0839
10275TIP3    H152240   4.231   5.479  11.706  0.7087  0.5607 -0.3390
10275TIP3    H252241   4.379   5.446  11.713  0.4397 -0.5574  0.4363
10276TIP3   OH252242   0.939   5.197  13.883  0.1221  0.0697 -0.6899
10276TIP3    H152243   0.960   5.163  13.970  0.8900 -2.1181 -1.6638
10276TIP3    H252244   1.023   5.223  13.846 -0.0092 -0.3442 -1.2963
10277TIP3   OH252245   1.210   6.538  14.531 -0.2744 -0.1248  0.3743
10277TIP3    H152246   1.223   6.518  14.438 -0.4190 -0.1867  0.3670
10277TIP3    H252247   1.298   6.550  14.565 -0.2426  0.2999  0.1417
10278TIP3   OH252248   0.572   5.948   1.057  0.1017 -0.1576 -0.0467
10278TIP3    H152249   0.480   5.946   1.082 -0.6786 -0.3150 -2.6405
10278TIP3    H252250   0.595   6.040   1.055  0.1893 -0.1418  1.1537
10279TIP3   OH252251   6.613   0.968   5.831 -0.3815  0.1231  0.2158
10279TIP3    H152252   6.521   0.988   5.815 -0.2431  0.3934 -0.2748
10279TIP3    H252253   6.611   0.892   5.890 -0.9180 -0.1102 -0.0911
10280TIP3   OH252254   3.629   2.740  11.893 -0.4209  0.4750  0.7956
10280TIP3    H152255   3.648   2.709  11.804 -0.7578 -1.0757  1.2397
10280TIP3    H252256   3.716   2.756  11.931 -0.1340 -1.4962  1.0648
10281TIP3   OH252257   3.862   4.640   3.316  0.2639 -0.1210  0.3394
10281TIP3    H152258   3.858   4.626   3.410  0.0211 -0.0355  0.3427
10281TIP3    H252259   3.954   4.625   3.293  0.3954  0.2197  0.6453
10282TIP3   OH252260   3.756   3.990  12.228 -0.1230  0.3130 -0.0710
10282TIP3    H152261   3.776   4.045  12.304 -0.2220 -0.3390  0.4405
10282TIP3    H252262   3.840   3.951  12.204 -0.1267  0.3654 -0.1663
10283TIP3   OH252263   0.417   5.910  16.801 -0.6757 -0.5562  0.0619
10283TIP3    H152264   0.411   5.945  16.890 -0.8763  1.4400 -0.6860
10283TIP3    H252265   0.344   5.951  16.754  1.3148  1.0692 -1.8176
10284TIP3   OH252266   6.565   5.017   0.194  0.8881 -0.3944  0.0270
10284TIP3    H152267   6.659   5.024   0.207  1.0789  0.9544 -1.7289
10284TIP3    H252268   6.547   5.072   0.118 -1.2668 -0.9499  0.0707
10285TIP3   OH252269   2.596   4.375   5.372  0.3814 -0.1125  0.6001
10285TIP3    H152270   2.647   4.385   5.292  0.5285 -3.0743  0.1932
10285TIP3    H252271   2.656   4.401   5.442  0.7905  0.9882 -0.1297
10286TIP3   OH252272   4.698   5.274   1.037  0.6158  0.2062  0.0335
10286TIP3    H152273   4.783   5.238   1.013  0.9831  0.1960  1.2654
10286TIP3    H252274   4.698   5.363   1.001  1.5669  0.5649  0.8857
10287TIP3   OH252275   2.997   2.523  15.763 -0.2164  0.1941  0.3294
10287TIP3    H152276   3.048   2.475  15.829 -1.7928 -1.6524  0.2932
10287TIP3    H252277   3.063   2.568  15.710  1.2404 -0.4284  1.5398
10288TIP3   OH252278   1.653   4.407   0.189 -0.6177 -0.4907 -0.3615
10288TIP3    H152279   1.664   4.389   0.282 -1.6182  1.3326  0.1502
10288TIP3    H252280   1.562   4.433   0.180 -0.7485 -1.3908 -2.0043
10289TIP3   OH252281   2.945   3.612  14.682 -0.1495 -0.4908  0.0179
10289TIP3    H152282   2.925   3.520  14.699  0.2985 -0.8919 -1.4609
10289TIP3    H252283   2.877   3.641  14.621 -0.7797  0.4236  1.1144
10290TIP3   OH252284   6.269   5.489   3.521 -0.0240  0.2824 -0.0556
10290TIP3    H152285   6.337   5.440   3.474 -0.4635 -1.3079  0.8778
10290TIP3    H252286   6.215   5.421   3.561 -0.4898  1.5572  1.5727
10291TIP3   OH252287   3.084   4.710   3.472  0.0652 -0.3823 -0.0345
10291TIP3    H152288   3.088   4.698   3.567 -0.8262  1.2564  0.2525
10291TIP3    H252289   2.990   4.714   3.453  0.2304  1.2841 -0.6694
10292TIP3   OH252290   0.057   1.284  14.164  0.7502  0.0190 -0.5044
10292TIP3    H152291   0.131   1.342  14.144  1.0670 -0.5759 -1.0927
10292TIP3    H252292  -0.008   1.341  14.205  1.8967  0.3838  0.9124
10293TIP3   OH252293   0.419   6.041   2.399 -1.1503  0.0836  0.5416
10293TIP3    H152294   0.337   6.040   2.348  0.8241  0.5084 -2.9473
10293TIP3    H252295   0.458   5.955   2.383 -0.4687  0.2208  1.4066
10294TIP3   OH252296   0.267   4.446   0.243  0.5163  0.7137 -0.3072
10294TIP3    H152297   0.214   4.464   0.320 -1.2752 -1.5863 -0.8850
10294TIP3    H252298   0.338   4.390   0.275  0.9076  1.3573 -0.0311
10295TIP3   OH252299   5.227   6.536   1.411  0.3715  0.2930 -0.1745
10295TIP3    H152300   5.189   6.588   1.481 -0.9185  0.3281 -0.8576
10295TIP3    H252301   5.216   6.445   1.439  0.7277  0.3342  0.0947
10296TIP3   OH252302   5.195   0.540  15.833  0.2009  0.0652  0.5653
10296TIP3    H152303   5.180   0.453  15.797  1.0478 -0.4619  1.4223
10296TIP3    H252304   5.129   0.595  15.791  0.3300 -0.7625 -0.7924
10297TIP3   OH252305   4.456   0.305  14.353  0.1860 -0.2285 -0.3526
10297TIP3    H152306   4.402   0.363  14.299 -0.0950  1.2955  1.4579
10297TIP3    H252307   4.534   0.289  14.300 -0.6167  0.1643 -1.7136
10298TIP3   OH252308   4.194   2.769   0.084 -0.0927  0.2609  0.0429
10298TIP3    H152309   4.168   2.849   0.130  3.3006  1.2218  0.5826
10298TIP3    H252310   4.217   2.799  -0.004 -0.6459 -0.4834 -0.3658
10299TIP3   OH252311   3.841   5.564  17.311  0.0352  0.2128  0.0476
10299TIP3    H152312   3.860   5.553  17.218  3.7269  2.7080  0.3055
10299TIP3    H252313   3.894   5.498  17.355  0.7461  1.0251  0.4478
10300TIP3   OH252314   5.822   6.434  12.961  0.5727  0.0044  0.3260
10300TIP3    H152315   5.818   6.515  12.911 -2.6687  0.8427  1.6693
10300TIP3    H252316   5.794   6.366  12.899 -0.4132  0.5562  0.1423
10301TIP3   OH252317   2.887   6.336   2.213 -0.4624  0.3660 -0.3689
10301TIP3    H152318   2.904   6.406   2.150 -0.4164 -0.6766 -1.5294
10301TIP3    H252319   2.965   6.335   2.268  2.6199 -2.8500 -4.2133
10302TIP3   OH252320   0.125   1.194   3.467  0.7814 -0.1241 -0.2794
10302TIP3    H152321   0.115   1.125   3.533  2.3336 -0.3835 -0.2759
10302TIP3    H252322   0.045   1.189   3.415  1.2544 -2.6464 -0.9154
10303TIP3   OH252323   4.041   3.603   4.434 -0.5633 -0.0554 -0.4548
10303TIP3    H152324   3.955   3.642   4.421 -0.5015  0.1654 -0.2180
10303TIP3    H252325   4.023   3.512   4.460 -0.6651 -0.9404 -3.3360
10304TIP3   OH252326   0.899   5.401  12.821  0.0305 -0.2454  0.2432
10304TIP3    H152327   0.882   5.407  12.727  0.7472  2.3513  0.2222
10304TIP3    H252328   0.917   5.308  12.836 -0.9738 -0.8609 -2.0066
10305TIP3   OH252329   3.706   0.528  11.403  0.4956  0.5732 -0.2398
10305TIP3    H152330   3.688   0.466  11.333 -1.1267  1.6810 -0.8692
10305TIP3    H252331   3.750   0.477  11.471 -1.3990 -1.4473 -0.4309
10306TIP3   OH252332   0.045   6.021  15.938 -0.3719 -0.1851 -0.0662
10306TIP3    H152333   0.004   5.956  15.995 -1.0454  0.0418 -0.2816
10306TIP3    H252334  -0.028   6.073  15.904 -0.1606 -1.2172 -2.2955
10307TIP3   OH252335   5.897   1.844  16.097  0.0987 -0.2987 -0.5201
10307TIP3    H152336   5.872   1.752  16.096 -0.1454 -0.2454  0.4319
10307TIP3    H252337   5.849   1.883  16.024  1.4089 -1.2266 -1.9405
10308TIP3   OH252338   0.420   1.390  13.049  0.4731  0.4620 -0.1614
10308TIP3    H152339   0.457   1.366  13.134 -1.6141  1.3373  1.0661
10308TIP3    H252340   0.412   1.485  13.053 -3.5000  0.2661  0.4604
10309TIP3   OH252341   5.349   2.133   2.380  0.2250  0.2334 -0.5729
10309TIP3    H152342   5.321   2.129   2.288 -0.1324 -0.2072 -0.4498
10309TIP3    H252343   5.440   2.161   2.376 -0.1516  1.4582 -0.9928
10310TIP3   OH252344   0.904   6.706  11.940 -0.3217  0.5700 -0.1245
10310TIP3    H152345   0.874   6.710  11.849  2.0521 -1.8168 -1.1420
10310TIP3    H252346   0.995   6.679  11.934 -0.4967 -1.1783  3.0010
10311TIP3   OH252347   0.304   5.466   2.489 -0.1822 -0.0136  0.0069
10311TIP3    H152348   0.216   5.457   2.526 -0.3115 -0.3155 -0.3686
10311TIP3    H252349   0.291   5.467   2.395  0.1660  0.5508 -0.0386
10312TIP3   OH252350   3.182   4.754  16.724  0.4052 -0.0115  0.2162
10312TIP3    H152351   3.190   4.760  16.629 -1.8711 -0.8639 -0.0948
10312TIP3    H252352   3.123   4.680  16.738 -0.2122  0.8059  2.2350
10313TIP3   OH252353   4.087   4.176   6.068  0.7991  0.5622  0.3537
10313TIP3    H152354   4.107   4.088   6.099  0.0089  0.0775 -0.4566
10313TIP3    H252355   4.040   4.163   5.985  2.3550  1.7967 -0.7859
10314TIP3   OH252356   6.001   0.735  16.317  0.9396  0.2744  0.7318
10314TIP3    H152357   5.926   0.678  16.299  1.2263 -0.2874  1.2900
10314TIP3    H252358   6.067   0.710  16.253 -0.3947  2.9231 -1.9342
10315TIP3   OH252359   5.597   5.200   2.428 -0.0707 -0.0975 -0.8328
10315TIP3    H152360   5.666   5.205   2.495 -0.3621 -0.3858 -0.5072
10315TIP3    H252361   5.530   5.260   2.460  1.0311  2.0945 -2.3543
10316TIP3   OH252362   1.413   4.699   2.462 -0.5963 -0.1873 -0.1841
10316TIP3    H152363   1.491   4.694   2.517 -1.0271 -0.3793  0.4191
10316TIP3    H252364   1.389   4.792   2.464  0.0784  0.0153 -1.0349
10317TIP3   OH252365   3.097   3.697  16.664 -0.1117 -0.3434 -0.5313
10317TIP3    H152366   3.149   3.624  16.631 -0.0920 -0.1035 -1.0521
10317TIP3    H252367   3.124   3.772  16.610  1.7818  0.6664  1.6604
10318TIP3   OH252368   1.454   5.355  16.808  0.5115  0.1393 -0.0487
10318TIP3    H152369   1.459   5.440  16.851 -0.5785  1.2969 -2.0675
10318TIP3    H252370   1.364   5.349  16.777  0.9006 -1.2010 -1.0219
10319TIP3   OH252371   4.515   3.694  15.997  0.4738 -0.2752  0.0405
10319TIP3    H152372   4.479   3.608  15.975  1.2838  0.0536 -3.0544
10319TIP3    H252373   4.597   3.699  15.949  0.4517  2.2267  0.1144
10320TIP3   OH252374   1.492   5.304  13.044 -0.2017 -0.1977  0.2746
10320TIP3    H152375   1.551   5.261  12.982 -0.7377  1.7220 -1.6978
10320TIP3    H252376   1.406   5.264  13.028 -0.8480  1.8860 -2.0549
10321TIP3   OH252377   4.506   6.165  14.231  0.3222 -0.0656 -0.3681
10321TIP3    H152378   4.556   6.184  14.152 -1.0512 -0.0337 -1.2705
10321TIP3    H252379   4.571   6.163  14.301  1.6367 -0.5139 -1.5538
10322TIP3   OH252380   1.309   5.772  14.433  0.0825 -0.3440  0.0440
10322TIP3    H152381   1.348   5.738  14.513  0.4004 -2.9170 -1.0994
10322TIP3    H252382   1.367   5.843  14.406  1.1819 -0.8758  0.9513
10323TIP3   OH252383   3.471   2.718   3.361  0.1640 -0.8953 -0.1045
10323TIP3    H152384   3.481   2.754   3.273  1.1363  1.5710  0.9326
10323TIP3    H252385   3.378   2.726   3.380 -0.3827 -3.0769 -1.4778
10324TIP3   OH252386   4.337   1.007   4.820  0.0641 -0.4398 -0.6066
10324TIP3    H152387   4.276   1.066   4.776 -0.7898 -1.0641 -0.3112
10324TIP3    H252388   4.376   0.955   4.749  2.1538  1.6027 -1.0580
10325TIP3   OH252389   4.118   1.076   5.973  0.2310 -0.0665 -0.2792
10325TIP3    H152390   4.176   1.044   5.904  1.7364  0.3230  0.7606
10325TIP3    H252391   4.127   1.012   6.044 -0.1034  0.3572  0.1531
10326TIP3   OH252392   5.873   6.593   0.481  0.0427 -0.4634 -0.2827
10326TIP3    H152393   5.875   6.502   0.452  2.0573 -0.6399  0.2460
10326TIP3    H252394   5.804   6.634   0.428 -0.2414 -2.0608 -1.2000
10327TIP3   OH252395   5.037   0.601   0.070  0.0136 -0.7450 -0.9023
10327TIP3    H152396   4.946   0.614   0.097  0.2774  0.0763 -0.3931
10327TIP3    H252397   5.058   0.679   0.018  0.9107 -0.1493  0.3061
10328TIP3   OH252398   3.298   5.551  17.238  0.3897  0.3754  0.1243
10328TIP3    H152399   3.378   5.603  17.247 -0.1442  1.4123 -0.9349
10328TIP3    H252400   3.330   5.462  17.223  1.3608  0.8438 -0.7469
10329TIP3   OH252401   0.276   5.099  15.209 -0.1407 -0.4032 -0.0225
10329TIP3    H152402   0.355   5.090  15.261 -0.5119 -2.8687  0.2024
10329TIP3    H252403   0.272   5.020  15.156 -2.8136 -0.7449  0.5308
10330TIP3   OH252404   1.574   6.735  12.594 -0.4455  0.2554 -0.2185
10330TIP3    H152405   1.510   6.767  12.657  1.7539  0.7790  1.8802
10330TIP3    H252406   1.616   6.815  12.560 -2.3205  0.0758 -3.3063
10331TIP3   OH252407   5.295   3.456  12.853  0.0764  0.0260 -0.1965
10331TIP3    H152408   5.330   3.462  12.942 -1.0657  0.1743  0.2465
10331TIP3    H252409   5.202   3.474  12.862 -0.0593  0.0073 -1.4237
10332TIP3   OH252410   1.280   2.025   2.851  0.7527  0.3457 -0.1174
10332TIP3    H152411   1.217   2.012   2.922 -1.5627  2.8156 -1.4866
10332TIP3    H252412   1.227   2.022   2.771  3.0209 -0.9795 -1.6866
10333TIP3   OH252413   2.451   2.839   1.934 -0.3553  0.3712  0.5091
10333TIP3    H152414   2.415   2.752   1.951 -0.8376  0.3600 -0.4866
10333TIP3    H252415   2.483   2.869   2.019  2.7945 -2.0884  0.3721
10334TIP3   OH252416   2.373   2.827  15.874 -0.0541  0.6137  0.8175
10334TIP3    H152417   2.336   2.898  15.821  1.6522  0.7682 -0.2300
10334TIP3    H252418   2.297   2.788  15.918 -1.2995  1.6707 -0.3128
10335TIP3   OH252419   4.932   3.956   4.373 -0.4662  0.0791  0.3523
10335TIP3    H152420   4.987   4.034   4.381 -0.1009 -0.2449  1.2278
10335TIP3    H252421   4.845   3.990   4.355 -0.0624  0.6214 -0.6463
10336TIP3   OH252422   5.021   4.558   2.824 -1.1736  0.3628  0.4392
10336TIP3    H152423   5.032   4.557   2.728 -2.8283  0.9212  0.2152
10336TIP3    H252424   5.008   4.650   2.845  0.9607  0.4980  1.4802
10337TIP3   OH252425   2.799   0.626   5.383 -0.0195  0.2412  0.1688
10337TIP3    H152426   2.828   0.686   5.314 -2.4486  1.2241 -0.0900
10337TIP3    H252427   2.751   0.557   5.337  0.5187 -0.5154  0.7013
10338TIP3   OH252428   4.537   2.135   4.165 -0.0240  0.2723  0.7212
10338TIP3    H152429   4.514   2.227   4.179 -0.8644 -0.2309  2.9748
10338TIP3    H252430   4.619   2.123   4.213 -0.5675 -0.4279  1.5091
10339TIP3   OH252431   2.480   0.935  14.035  0.5929 -0.4182 -0.4090
10339TIP3    H152432   2.565   0.978  14.041 -0.0059  1.1945 -2.5204
10339TIP3    H252433   2.427   0.977  14.102  0.2038  1.8421 -2.0258
10340TIP3   OH252434   3.906   4.183  15.848 -0.0924 -0.0145  0.1946
10340TIP3    H152435   3.813   4.201  15.831 -0.1260  0.4013  0.7634
10340TIP3    H252436   3.907   4.094  15.884 -0.7090  1.1463  3.4130
10341TIP3   OH252437   1.036   2.951  13.069  0.1852  0.0117  0.1061
10341TIP3    H152438   1.073   2.961  13.157 -1.9649  0.0609  1.0596
10341TIP3    H252439   1.051   2.859  13.046  3.0897  0.5565 -0.6703
10342TIP3   OH252440   3.271   3.516  16.580  0.5261  0.3350  0.2857
10342TIP3    H152441   3.299   3.424  16.583  3.0739  1.0482  0.7417
10342TIP3    H252442   3.308   3.549  16.498 -1.5246  0.6840 -0.5715
10343TIP3   OH252443   1.507   2.922   2.174  0.6558 -0.6646 -0.0926
10343TIP3    H152444   1.468   2.974   2.245 -0.0189  2.1955 -2.3776
10343TIP3    H252445   1.469   2.835   2.185  2.3682 -1.1157  4.3813
10344TIP3   OH252446   5.110   2.607  15.108 -0.1469  0.0034 -0.2472
10344TIP3    H152447   5.015   2.599  15.119 -0.0449 -1.3505 -0.2260
10344TIP3    H252448   5.125   2.583  15.016 -0.1996  4.0627 -1.5441
10345TIP3   OH252449   5.430   3.025  11.321 -0.1532  0.2178 -0.8601
10345TIP3    H152450   5.434   2.931  11.337 -0.8246  0.1502 -1.0505
10345TIP3    H252451   5.395   3.032  11.232  1.0271  0.6253 -1.2999
10346TIP3   OH252452   4.587   1.903  15.900 -0.3219 -0.2976  0.3848
10346TIP3    H152453   4.669   1.926  15.856 -0.3726 -0.7804  0.0345
10346TIP3    H252454   4.611   1.892  15.992  0.0921 -0.8766  0.2100
10347TIP3   OH252455   2.422   1.828   3.573 -0.5079  0.0510  0.2017
10347TIP3    H152456   2.463   1.851   3.656 -1.1493 -0.2691  0.6217
10347TIP3    H252457   2.342   1.881   3.571 -0.4991  0.0459 -0.1988
10348TIP3   OH252458   0.450   2.651   0.117  0.0108  0.2047  0.4070
10348TIP3    H152459   0.487   2.616   0.036 -0.7301  0.6419 -0.1324
10348TIP3    H252460   0.514   2.716   0.147  0.4630 -0.2214  0.3777
10349TIP3   OH252461   5.274   6.379  13.657 -0.4378 -0.5871  0.1441
10349TIP3    H152462   5.339   6.405  13.591 -1.5958 -1.8311 -1.5478
10349TIP3    H252463   5.308   6.296  13.692 -0.6570 -0.7845 -0.1061
10350TIP3   OH252464   6.068   0.047  15.303 -0.4466 -0.5992 -0.4562
10350TIP3    H152465   5.983   0.091  15.309  0.4745  1.2447 -0.1843
10350TIP3    H252466   6.046  -0.046  15.294 -2.4837 -0.1496 -0.6944
10351TIP3   OH252467   2.610   4.121  11.556  0.7063  0.0226 -0.1818
10351TIP3    H152468   2.543   4.189  11.554  0.6326 -0.0554 -0.3671
10351TIP3    H252469   2.626   4.105  11.649 -0.1710 -0.5893 -0.1268
10352TIP3   OH252470   4.334   5.032   5.293  0.1023  0.4135 -0.8369
10352TIP3    H152471   4.324   5.127   5.290  0.4666  0.4375 -1.4519
10352TIP3    H252472   4.258   4.998   5.247 -0.3908  0.3786 -0.0095
10353TIP3   OH252473   6.008   6.183   4.887  0.6001 -0.0848 -0.0294
10353TIP3    H152474   5.914   6.170   4.879  0.8210 -2.0299  0.0504
10353TIP3    H252475   6.019   6.233   4.968 -0.3776  0.8907 -0.4772
10354TIP3   OH252476   3.586   2.071  13.560  0.2389 -0.3981 -0.0436
10354TIP3    H152477   3.492   2.052  13.561  0.1379  0.1147  0.2853
10354TIP3    H252478   3.618   2.036  13.643  0.2431 -0.0907  0.0839
10355TIP3   OH252479   5.426   6.039  15.195 -0.1870 -0.4280 -0.4101
10355TIP3    H152480   5.433   5.987  15.275 -0.2562  0.1586 -0.0123
10355TIP3    H252481   5.341   6.015  15.158 -1.2275  0.9978  0.9472
10356TIP3   OH252482   2.958   1.420  16.163 -0.4335  0.8015 -0.5480
10356TIP3    H152483   3.048   1.426  16.131 -0.4890 -0.7330 -1.0521
10356TIP3    H252484   2.904   1.425  16.085 -0.6148 -1.7554 -0.6786
10357TIP3   OH252485   0.508   2.137  12.725  0.0578  0.5611 -0.0821
10357TIP3    H152486   0.546   2.050  12.742 -0.1286  0.4173 -0.3949
10357TIP3    H252487   0.572   2.198  12.762  0.6685  0.3236 -0.7072
10358TIP3   OH252488   6.490   6.094  13.446 -0.3678  0.0501 -0.1771
10358TIP3    H152489   6.497   6.065  13.355  1.6773 -0.8691  0.2199
10358TIP3    H252490   6.544   6.172  13.451 -0.9862  0.4721  0.1372
10359TIP3   OH252491   1.315   6.513   1.062  0.1980 -0.5189  0.0753
10359TIP3    H152492   1.409   6.531   1.053  0.0181  1.4350  1.4141
10359TIP3    H252493   1.304   6.481   1.151 -0.3495 -1.2611 -0.2498
10360TIP3   OH252494   1.379   5.213  12.786  0.1035  0.7302  0.2139
10360TIP3    H152495   1.449   5.218  12.721  1.2347  0.7347  1.4105
10360TIP3    H252496   1.311   5.272  12.752  0.0070 -0.3912 -1.7051
10361TIP3   OH252497   0.823   3.126  15.293  0.1049  0.8340  0.5558
10361TIP3    H152498   0.915   3.109  15.272  0.2010  0.2446  1.4047
10361TIP3    H252499   0.784   3.154  15.210  1.0975  1.3178  0.2374
10362TIP3   OH252500   6.093   3.676   5.494  0.1708  0.3614 -0.0635
10362TIP3    H152501   6.162   3.738   5.469  0.8445 -1.3683 -3.0769
10362TIP3    H252502   6.134   3.590   5.484 -1.0438 -0.6894  2.9344
10363TIP3   OH252503   5.277   2.529  16.261  0.3444 -0.2196  0.4302
10363TIP3    H152504   5.362   2.515  16.220  1.2396  0.8266  1.8568
10363TIP3    H252505   5.257   2.621  16.245 -1.1084 -0.7118 -0.8764
10364TIP3   OH252506   3.586   4.114  15.994 -0.1422  0.5333 -0.1643
10364TIP3    H152507   3.641   4.046  15.954 -0.3127 -0.0690  0.6033
10364TIP3    H252508   3.611   4.194  15.949 -0.5959 -0.1764 -1.7341
10365TIP3   OH252509   4.830   3.842   3.661  0.3185 -0.3835  0.0734
10365TIP3    H152510   4.803   3.885   3.742  1.5888 -1.3052  1.0312
10365TIP3    H252511   4.750   3.801   3.627 -0.5502  1.2852  0.0121
10366TIP3   OH252512   0.500   2.413   5.854  0.3623  0.4550 -0.1964
10366TIP3    H152513   0.507   2.400   5.948 -3.0461  0.9682  0.2666
10366TIP3    H252514   0.483   2.507   5.844 -1.3027  0.1041 -1.0690
10367TIP3   OH252515   6.350   6.362   5.250 -0.3513 -0.2623  0.0216
10367TIP3    H152516   6.437   6.393   5.275 -0.7906  0.1849  1.0793
10367TIP3    H252517   6.365   6.278   5.208  0.9376  1.4354 -3.3104
10368TIP3   OH252518   0.529   2.573   0.429  0.0370  0.4856 -0.5529
10368TIP3    H152519   0.555   2.612   0.512  0.2162 -0.7827  0.0047
10368TIP3    H252520   0.583   2.617   0.364 -0.3732  1.7683 -0.0643
10369TIP3   OH252521   5.356   5.812  11.915  0.3735 -0.3680  0.6667
10369TIP3    H152522   5.425   5.779  11.857  1.6039  0.4279  1.5981
10369TIP3    H252523   5.347   5.744  11.982 -1.4804 -1.5686 -0.7320
10370TIP3   OH252524   3.500   1.585  13.262 -0.9861  0.0335  0.2830
10370TIP3    H152525   3.423   1.528  13.264 -0.7391 -0.2843  0.8549
10370TIP3    H252526   3.464   1.672  13.245 -1.5268 -0.0403  0.9789
10371TIP3   OH252527   0.266   0.951   2.778 -0.5513 -0.6438 -0.1533
10371TIP3    H152528   0.254   1.011   2.852 -1.4194 -1.5426  0.4602
10371TIP3    H252529   0.275   0.865   2.818 -3.0431 -1.4496 -1.1116
10372TIP3   OH252530   1.526   1.478  14.340  0.0256 -0.1068 -0.2319
10372TIP3    H152531   1.620   1.498  14.341  0.2292 -0.7240 -2.0828
10372TIP3    H252532   1.493   1.526  14.264 -1.4379  1.0829  1.0845
10373TIP3   OH252533   1.360   0.843  14.656  0.3626 -0.7664  0.3478
10373TIP3    H152534   1.369   0.902  14.581 -0.4079 -1.8285 -0.5996
10373TIP3    H252535   1.388   0.758  14.623 -0.9958 -1.4649  0.9503
10374TIP3   OH252536   6.028   5.596  13.334  0.2629 -0.7512 -0.0729
10374TIP3    H152537   5.959   5.660  13.351  0.3458 -0.5001 -0.6599
10374TIP3    H252538   6.058   5.615  13.245  2.6785  0.6753  0.9265
10375TIP3   OH252539   4.287   0.271   1.606 -0.1290 -0.1245  0.2882
10375TIP3    H152540   4.253   0.212   1.674 -0.8756 -0.8926 -0.7277
10375TIP3    H252541   4.218   0.274   1.540  1.1465 -0.5535 -1.1374
10376TIP3   OH252542   3.123   5.579  12.766 -0.8887  0.3727  0.2540
10376TIP3    H152543   3.113   5.650  12.830 -0.6320 -0.5048  1.2884
10376TIP3    H252544   3.140   5.501  12.819 -0.9648 -0.4311 -0.8790
10377TIP3   OH252545   2.432   2.847  12.057 -0.1996  0.3348  0.0904
10377TIP3    H152546   2.406   2.786  11.988  0.0646  0.1162  0.1839
10377TIP3    H252547   2.448   2.930  12.012  0.7988 -0.0263 -0.2219
10378TIP3   OH252548   2.975   6.409  16.869 -0.7033 -0.3385 -0.6196
10378TIP3    H152549   3.036   6.467  16.824 -2.2392  0.1735 -2.1781
10378TIP3    H252550   3.003   6.321  16.845 -0.2731 -0.1276 -0.9047
10379TIP3   OH252551   3.648   6.240   4.331 -0.2028 -0.4263  0.3544
10379TIP3    H152552   3.589   6.172   4.365  0.4061 -1.7239 -1.0385
10379TIP3    H252553   3.614   6.259   4.244  0.4434  0.0495  0.1997
10380TIP3   OH252554   1.234   0.671  13.414 -0.7197  0.0072 -0.5120
10380TIP3    H152555   1.177   0.737  13.454 -1.0976 -0.2241 -0.6583
10380TIP3    H252556   1.293   0.643  13.485 -1.3048 -0.3150 -0.1432
10381TIP3   OH252557   6.083   1.769   2.166 -0.7133 -0.5556  0.6464
10381TIP3    H152558   6.083   1.841   2.228  0.4338  1.3357 -1.4333
10381TIP3    H252559   6.173   1.764   2.133 -1.3413 -1.2211 -1.1333
10382TIP3   OH252560   4.802   2.388  10.939 -0.2284  0.0333  0.0342
10382TIP3    H152561   4.819   2.301  10.905  0.6149  0.2039  0.0070
10382TIP3    H252562   4.733   2.423  10.883 -1.1550 -0.9158  0.5561
10383TIP3   OH252563   1.691   5.315  12.370 -0.4505 -0.0151 -0.1538
10383TIP3    H152564   1.774   5.360  12.354 -0.7366  0.4451 -0.3862
10383TIP3    H252565   1.689   5.245  12.304 -0.5402  0.3823 -0.5800
10384TIP3   OH252566   3.457   0.384  11.672  0.3872  0.2058 -0.4781
10384TIP3    H152567   3.473   0.356  11.762 -0.3060  0.3483 -0.3034
10384TIP3    H252568   3.475   0.478  11.673  0.6586  0.1556 -0.5594
10385TIP3   OH252569   6.608   4.774  11.666  0.4841  0.3286 -0.2028
10385TIP3    H152570   6.521   4.748  11.697 -0.0145  0.5090 -1.4144
10385TIP3    H252571   6.664   4.699  11.687  0.1841  0.4535  1.1446
10386TIP3   OH252572   3.487   5.670   1.007  0.0584  0.0156 -0.0268
10386TIP3    H152573   3.462   5.581   0.985 -0.8365  0.2318  0.0850
10386TIP3    H252574   3.428   5.695   1.078  2.6129 -0.5555  2.5024
10387TIP3   OH252575   3.433   2.275  14.073 -0.8551 -0.4979  0.0476
10387TIP3    H152576   3.392   2.361  14.072 -2.3281 -1.0849  1.9883
10387TIP3    H252577   3.472   2.268  14.161  1.3944 -0.9113 -0.9159
10388TIP3   OH252578   5.819   1.040  12.158  0.2559 -0.3296 -0.4829
10388TIP3    H152579   5.813   1.063  12.251 -0.3915  2.0873 -1.0418
10388TIP3    H252580   5.745   0.982  12.142  1.0469 -1.7395  0.7130
10389TIP3   OH252581   2.724   0.979   0.617  0.1536 -0.4133 -0.0569
10389TIP3    H152582   2.682   0.988   0.532 -1.5980 -0.4002  0.7541
10389TIP3    H252583   2.661   1.015   0.679 -0.0388 -3.2465  1.5948
10390TIP3   OH252584   0.034   3.420  12.513  0.0938  0.3401 -0.4430
10390TIP3    H152585   0.058   3.512  12.503 -0.0082  0.2125 -2.0605
10390TIP3    H252586  -0.059   3.422  12.535 -0.2561  0.6096 -1.8451
10391TIP3   OH252587   4.995   3.084  12.947 -0.3189 -0.6101  0.3432
10391TIP3    H152588   4.921   3.131  12.910  0.2638 -0.6120 -0.8741
10391TIP3    H252589   4.955   3.018  13.005 -1.3685 -1.5279 -1.3273
10392TIP3   OH252590   6.344   6.363   0.077  0.4090 -0.0803 -0.9900
10392TIP3    H152591   6.314   6.414   0.153 -1.7034 -2.6175  0.0231
10392TIP3    H252592   6.431   6.331   0.103 -0.4913 -1.3464  0.6854
10393TIP3   OH252593   4.744   6.347   0.584  0.3147  0.2291 -0.2056
10393TIP3    H152594   4.755   6.365   0.491  0.6590  1.0631 -0.0180
10393TIP3    H252595   4.788   6.420   0.628 -0.0725 -0.0090  0.6086
10394TIP3   OH252596   0.995   5.537  17.047  0.2584 -0.4221  0.1477
10394TIP3    H152597   0.934   5.598  17.005 -0.1076 -0.7530  0.1812
10394TIP3    H252598   1.076   5.586  17.057 -0.2835  0.3349  0.9483
10395TIP3   OH252599   6.374   4.817  15.556 -0.1389  0.8818 -0.0752
10395TIP3    H152600   6.284   4.785  15.558  0.6425 -1.6465 -1.6058
10395TIP3    H252601   6.393   4.830  15.463  0.6816  2.7060  0.3094
10396TIP3   OH252602   2.512   5.354   4.745  0.3981 -0.3666 -0.3001
10396TIP3    H152603   2.454   5.349   4.669  2.6016  1.0422 -2.2053
10396TIP3    H252604   2.593   5.311   4.715  0.6931 -1.5271  1.9705
10397TIP3   OH252605   0.897   4.841  12.822 -0.0975  0.0402 -0.3660
10397TIP3    H152606   0.971   4.805  12.870 -0.1844  2.0726  1.4534
10397TIP3    H252607   0.823   4.788  12.849 -0.0001  0.6408  1.2029
10398TIP3   OH252608   0.024   2.789   3.396  0.2358  0.1008 -0.1750
10398TIP3    H152609  -0.024   2.807   3.315 -1.1942 -0.1260  0.5987
10398TIP3    H252610  -0.005   2.702   3.422 -0.7987  0.9200  1.5726
10399TIP3   OH252611   4.906   3.161   0.794 -0.1255 -0.1986 -0.0125
10399TIP3    H152612   4.995   3.169   0.760  0.2779 -1.3820  0.7246
10399TIP3    H252613   4.851   3.202   0.727  1.0258  1.3408 -0.0824
10400TIP3   OH252614   4.146   5.963   1.288 -0.2950 -0.5261 -0.5329
10400TIP3    H152615   4.227   5.913   1.301 -0.0517  0.5093  2.6850
10400TIP3    H252616   4.168   6.025   1.218  1.4636 -0.7733 -0.2490
10401TIP3   OH252617   6.272   1.506   4.300  0.5667  0.3993  0.0746
10401TIP3    H152618   6.291   1.514   4.207  0.9301 -0.6096  0.0435
10401TIP3    H252619   6.204   1.438   4.304  1.4834 -0.5207  0.6141
10402TIP3   OH252620   6.184   2.447   0.911  0.4653 -0.0087  0.6644
10402TIP3    H152621   6.243   2.471   0.982  0.3909 -1.1485  1.1232
10402TIP3    H252622   6.161   2.531   0.870  1.5811  0.5371  1.1205
10403TIP3   OH252623   4.866   3.431  11.173 -0.2182 -0.5347  0.3494
10403TIP3    H152624   4.847   3.339  11.152 -1.0616 -0.0436 -1.1829
10403TIP3    H252625   4.919   3.426  11.253 -1.5129 -2.2888  1.2025
10404TIP3   OH252626   6.557   1.439   6.291  0.0928  0.2576 -0.1465
10404TIP3    H152627   6.517   1.457   6.207 -1.0833 -3.3252 -0.5377
10404TIP3    H252628   6.620   1.369   6.273 -0.3579 -0.7744  1.9223
10405TIP3   OH252629   0.617   4.790   3.152 -0.4364  0.0837  0.0442
10405TIP3    H152630   0.675   4.722   3.118 -1.8958 -1.8185  1.1679
10405TIP3    H252631   0.591   4.758   3.238  0.4955  3.1385  1.5845
10406TIP3   OH252632   4.398   0.771  13.392  0.3867  0.4898  0.1483
10406TIP3    H152633   4.321   0.716  13.408  0.0243  0.5306 -1.3289
10406TIP3    H252634   4.399   0.783  13.298  3.3028 -1.1232 -0.1408
10407TIP3   OH252635   5.452   2.619  15.505  0.4128 -0.0214 -0.0576
10407TIP3    H152636   5.429   2.659  15.422 -1.1172 -0.8761 -0.0735
10407TIP3    H252637   5.431   2.685  15.571 -0.1545 -0.0360 -0.2231
10408TIP3   OH252638   0.148   1.631  16.594 -0.0332  0.4869  0.6783
10408TIP3    H152639   0.130   1.705  16.536 -0.5201  0.3501  0.6516
10408TIP3    H252640   0.074   1.573  16.583  1.0381 -0.7218 -0.4134
10409TIP3   OH252641   2.676   5.589  11.228 -0.2784 -0.1806  0.4401
10409TIP3    H152642   2.625   5.516  11.193  0.7304 -0.3164 -0.8116
10409TIP3    H252643   2.681   5.651  11.155  1.5157 -0.2634  0.4652
10410TIP3   OH252644   5.237   3.432   2.783  0.2663  0.5282  0.5239
10410TIP3    H152645   5.283   3.385   2.713 -1.9387 -2.0308  0.6507
10410TIP3    H252646   5.305   3.488   2.822  3.0789 -2.2779  0.1026
10411TIP3   OH252647   0.703   3.679   5.621  0.0345  0.1434 -0.0671
10411TIP3    H152648   0.733   3.660   5.531 -0.9583  2.6569 -1.0195
10411TIP3    H252649   0.784   3.689   5.671  0.6295 -0.4083 -0.8827
10412TIP3   OH252650   5.718   6.220   2.660  0.5598  0.1643 -0.2215
10412TIP3    H152651   5.788   6.158   2.680  0.5955  0.3164  0.1223
10412TIP3    H252652   5.755   6.306   2.677 -0.0258  0.2079  0.9894
10413TIP3   OH252653   5.723   1.451  13.717 -0.2931  0.2264 -0.6182
10413TIP3    H152654   5.768   1.402  13.648  1.2495  0.8609 -0.1203
10413TIP3    H252655   5.794   1.491  13.768 -1.2039 -1.8464  2.6189
10414TIP3   OH252656   0.558   0.989  11.181 -1.0349 -0.1348  0.3983
10414TIP3    H152657   0.514   0.990  11.096 -1.2315 -0.2639  0.4978
10414TIP3    H252658   0.647   0.960  11.162  0.4752  4.2600 -0.5099
10415TIP3   OH252659   5.817   3.707  10.761  0.3673  0.0659 -0.1118
10415TIP3    H152660   5.739   3.676  10.807 -0.5117  0.7384 -1.0932
10415TIP3    H252661   5.813   3.803  10.769  1.3204  0.0885  0.1841
10416TIP3   OH252662   6.641   4.942   2.637 -0.4441  0.2720 -0.1337
10416TIP3    H152663   6.685   4.867   2.597 -0.1045  0.8946 -0.9476
10416TIP3    H252664   6.708   5.011   2.638 -1.3748  1.2329 -1.3769
10417TIP3   OH252665   5.179   5.132   2.922 -0.5439  0.8970 -0.0107
10417TIP3    H152666   5.250   5.130   2.986  0.0030  2.0957 -0.5405
10417TIP3    H252667   5.101   5.105   2.971  0.1353  0.3226  0.7662
10418TIP3   OH252668   3.866   2.553  10.815  0.2765  0.7068 -0.7751
10418TIP3    H152669   3.920   2.525  10.741 -0.4944 -0.4503 -0.9218
10418TIP3    H252670   3.864   2.478  10.874 -0.4616  1.0259 -0.3772
10419TIP3   OH252671   0.770   1.101   5.299  0.2512 -0.1846 -0.3945
10419TIP3    H152672   0.683   1.064   5.315  0.9106 -2.8042 -2.2422
10419TIP3    H252673   0.824   1.066   5.370 -0.1134  1.4120  0.7308
10420TIP3   OH252674   2.506   5.798  11.786  0.6321  0.5796 -0.1343
10420TIP3    H152675   2.461   5.833  11.710  2.0828 -0.9785 -1.7935
10420TIP3    H252676   2.577   5.861  11.802 -0.0068  1.2047  0.3268
10421TIP3   OH252677   6.294   3.384   4.287 -0.2670 -0.0919 -0.0832
10421TIP3    H152678   6.338   3.318   4.235  0.6539 -0.7363  1.4469
10421TIP3    H252679   6.221   3.337   4.329 -0.9736  0.4057 -0.7282
10422TIP3   OH252680   4.913   6.050  10.954 -0.0784 -0.1683  0.0904
10422TIP3    H152681   4.846   6.116  10.933  0.7678  0.2737 -1.3797
10422TIP3    H252682   4.897   5.979  10.891 -0.6103 -1.1382  1.2748
10423TIP3   OH252683   0.760   5.956  15.845 -0.8846  0.4095 -0.1050
10423TIP3    H152684   0.808   5.877  15.821 -0.0557  0.3366  1.6643
10423TIP3    H252685   0.821   6.006  15.899 -1.0262  2.7644 -1.9331
10424TIP3   OH252686   5.462   4.063   6.198 -0.1917  0.8489 -0.3734
10424TIP3    H152687   5.479   4.144   6.245 -1.4882  0.9231  0.0138
10424TIP3    H252688   5.499   3.995   6.254 -2.0135  0.9004  0.9974
10425TIP3   OH252689   0.040   0.196   5.233  0.5985 -0.0995 -0.4263
10425TIP3    H152690   0.069   0.222   5.320 -1.0754  2.2543 -0.4648
10425TIP3    H252691   0.034   0.278   5.183  2.3603 -1.4432 -3.1109
10426TIP3   OH252692   4.952   1.600   3.129  0.3153 -0.0023  0.4786
10426TIP3    H152693   4.928   1.524   3.181 -0.9808  0.1964  0.2048
10426TIP3    H252694   4.945   1.674   3.190 -0.7452  0.1729  0.1618
10427TIP3   OH252695   0.873   0.720   1.958  0.2070 -0.1670 -0.0486
10427TIP3    H152696   0.893   0.692   2.047 -1.1989 -0.1715  0.2812
10427TIP3    H252697   0.875   0.815   1.962 -0.3463 -0.1628  0.1016
10428TIP3   OH252698   0.903   0.573  14.473 -0.1642  0.0552  0.3371
10428TIP3    H152699   0.987   0.577  14.519 -0.4948 -0.7347  1.0347
10428TIP3    H252700   0.839   0.601  14.537 -0.5573 -0.4512  0.1744
10429TIP3   OH252701   5.487   5.844   4.957 -0.8083 -0.5372 -0.2353
10429TIP3    H152702   5.423   5.904   4.917  0.7264  0.7963 -0.7840
10429TIP3    H252703   5.467   5.759   4.918 -1.2443  0.1712 -1.6292
10430TIP3   OH252704   3.380   1.869  15.204 -0.3125 -0.0204 -0.1697
10430TIP3    H152705   3.444   1.920  15.154  1.8426 -3.0277 -0.7709
10430TIP3    H252706   3.339   1.812  15.139 -1.5365 -0.1543  0.6849
10431TIP3   OH252707   2.802   5.576   1.627 -0.0385  0.6293 -0.1657
10431TIP3    H152708   2.737   5.565   1.558 -0.3668  0.4942  0.1607
10431TIP3    H252709   2.772   5.518   1.698  0.6199  0.3012 -0.1457
10432TIP3   OH252710   2.247   0.049  11.459 -0.4066  0.4214 -0.1868
10432TIP3    H152711   2.196   0.026  11.382  0.6991 -1.0470 -0.5175
10432TIP3    H252712   2.300   0.124  11.432 -0.5214  0.3358 -0.6486
10433TIP3   OH252713   1.803   2.789   5.480  0.5711  0.6035 -0.2997
10433TIP3    H152714   1.811   2.827   5.568 -2.9183 -2.5648  1.6669
10433TIP3    H252715   1.851   2.706   5.486  1.6136  1.0391 -1.9960
10434TIP3   OH252716   4.784   5.915  12.850 -0.2527  0.8479 -0.0987
10434TIP3    H152717   4.737   5.883  12.927  0.9051  0.2607  0.3956
10434TIP3    H252718   4.827   5.995  12.881  0.8441  0.1915  0.1028
10435TIP3   OH252719   1.298   0.621  12.520 -0.0182 -0.1381 -0.6498
10435TIP3    H152720   1.377   0.670  12.541  0.1539  0.1009 -1.7927
10435TIP3    H252721   1.227   0.685  12.532 -0.2128 -0.6951  1.6286
10436TIP3   OH252722   4.030   3.737   5.510  0.1165  0.1840 -0.2108
10436TIP3    H152723   4.063   3.647   5.510  0.7403  0.3874 -1.3318
10436TIP3    H252724   4.035   3.764   5.602  1.8789 -0.2478 -0.1314
10437TIP3   OH252725   4.908   0.651  11.486  0.1489  0.1010  0.5497
10437TIP3    H152726   4.892   0.578  11.426  2.1604 -0.0142  0.0871
10437TIP3    H252727   4.951   0.717  11.432  0.5801  0.6380  1.5298
10438TIP3   OH252728   5.700   1.959  17.280  0.0469 -0.4677 -0.1846
10438TIP3    H152729   5.734   1.957  17.369 -1.5817 -0.4585  0.4708
10438TIP3    H252730   5.778   1.969  17.225  1.0361  0.1573  1.2553
10439TIP3   OH252731   4.317   3.814   6.022 -0.1235 -0.1205 -0.0266
10439TIP3    H152732   4.338   3.858   6.105 -0.8289 -1.3591  0.8336
10439TIP3    H252733   4.396   3.766   6.000 -0.1424 -0.2963  0.2742
10440TIP3   OH252734   0.022   4.516   3.509 -0.0908  0.0248 -0.0247
10440TIP3    H152735   0.079   4.442   3.489 -0.2620 -0.1822  0.2448
10440TIP3    H252736  -0.002   4.552   3.423  1.1720  0.6864 -0.1311
10441TIP3   OH252737   2.388   0.977   2.764 -0.1702 -0.2367  0.2965
10441TIP3    H152738   2.352   1.064   2.782  2.4693  1.2423 -1.0299
10441TIP3    H252739   2.331   0.917   2.813 -2.5582  2.1207  0.6305
10442TIP3   OH252740   5.151   0.658   1.393  0.1184  0.0655 -0.1184
10442TIP3    H152741   5.131   0.613   1.312  3.0118  0.0532 -0.9148
10442TIP3    H252742   5.231   0.707   1.375 -0.1161  1.4952  2.2176
10443TIP3   OH252743   2.582   4.821  12.822 -0.0325 -0.0546  0.1829
10443TIP3    H152744   2.672   4.823  12.789 -0.1299 -1.1732 -0.1857
10443TIP3    H252745   2.590   4.843  12.914  0.4221  1.5578 -0.2048
10444TIP3   OH252746   1.795   3.043   6.282  0.1254 -0.4350 -0.8278
10444TIP3    H152747   1.735   3.024   6.354  1.1770 -0.4543  0.0726
10444TIP3    H252748   1.828   2.958   6.255 -1.0256 -0.5234 -2.0395
10445TIP3   OH252749   0.110   3.165  11.959  0.0077  0.7164  0.6329
10445TIP3    H152750   0.169   3.209  12.020  0.0138  1.7330 -0.0844
10445TIP3    H252751   0.128   3.206  11.875  0.7538 -1.4015 -0.2947
10446TIP3   OH252752   4.311   6.716  13.218 -0.5627  0.1382  0.0590
10446TIP3    H152753   4.302   6.646  13.282 -0.1376  0.9016  0.9607
10446TIP3    H252754   4.287   6.796  13.265 -1.1317  0.6019 -0.9825
10447TIP3   OH252755   6.228   2.228  14.384  0.0046 -0.3029 -0.0204
10447TIP3    H152756   6.232   2.261  14.473  0.1800  1.9789 -0.8191
10447TIP3    H252757   6.143   2.256  14.352 -0.1635 -1.3289 -0.5109
10448TIP3   OH252758   6.536   3.977  13.605 -0.4582 -0.0009  0.2186
10448TIP3    H152759   6.442   3.958  13.609 -0.4634 -0.5860 -1.6519
10448TIP3    H252760   6.578   3.891  13.614 -0.0655  0.2860  1.3068
10449TIP3   OH252761   3.356   6.274   0.895 -0.3848  0.1241  0.5584
10449TIP3    H152762   3.369   6.361   0.856 -2.1837 -0.5072 -1.6739
10449TIP3    H252763   3.436   6.259   0.946  0.8063  2.3032 -0.4939
10450TIP3   OH252764   3.562   2.281   2.457  0.9048  0.0169  0.0025
10450TIP3    H152765   3.490   2.259   2.515  0.7602 -1.3842 -0.6597
10450TIP3    H252766   3.573   2.203   2.402  0.9206  1.3288 -1.9561
10451TIP3   OH252767   2.521   5.190  11.394 -0.3200 -0.4330  0.0952
10451TIP3    H152768   2.482   5.110  11.431 -0.8855 -1.5032 -2.5798
10451TIP3    H252769   2.448   5.234  11.350  0.4052  0.4309 -0.2773
10452TIP3   OH252770   0.274   0.839   2.537 -0.1466 -0.0087  0.2137
10452TIP3    H152771   0.200   0.795   2.494  0.0117 -2.3658  2.1257
10452TIP3    H252772   0.234   0.882   2.613  0.3150 -0.8782  0.9752
10453TIP3   OH252773   1.142   3.906  16.362 -0.1769 -0.3571  0.8786
10453TIP3    H152774   1.186   3.901  16.277 -1.5002 -0.5147  0.1833
10453TIP3    H252775   1.170   3.990  16.399 -1.4894  0.8744 -0.8022
10454TIP3   OH252776   5.324   2.282   0.988  0.2828  0.3626 -0.2068
10454TIP3    H152777   5.334   2.264   0.894 -0.2795  0.1720 -0.2336
10454TIP3    H252778   5.234   2.256   1.008  0.7445 -0.6847  0.6381
10455TIP3   OH252779   3.012   5.441   0.223 -0.5512  0.2658  0.3147
10455TIP3    H152780   3.015   5.440   0.128 -1.0281 -0.7016  0.2987
10455TIP3    H252781   3.014   5.534   0.246 -0.8534  0.5212 -0.6511
10456TIP3   OH252782   4.362   0.100   1.998  0.1297  0.1676  0.5358
10456TIP3    H152783   4.416   0.104   2.077  0.5129 -1.5527  0.4076
10456TIP3    H252784   4.326   0.188   1.989  1.3940  0.8467  1.6922
10457TIP3   OH252785   3.549   3.298  12.227 -0.5470  0.0959  0.2066
10457TIP3    H152786   3.549   3.303  12.323 -1.3869 -0.4522  0.2424
10457TIP3    H252787   3.641   3.282  12.205 -0.4115 -0.2053  0.9427
10458TIP3   OH252788   0.211   1.883  11.386  0.7115 -0.3748  0.7128
10458TIP3    H152789   0.119   1.872  11.363  0.8780 -1.0237  0.3380
10458TIP3    H252790   0.251   1.921  11.308  0.8229 -0.3869  0.7636
10459TIP3   OH252791   6.714   1.673   2.104 -0.0833 -0.0082  0.5976
10459TIP3    H152792   6.797   1.652   2.148  0.7735  0.2170 -0.8610
10459TIP3    H252793   6.670   1.734   2.165  0.0194 -1.4324  2.1664
10460TIP3   OH252794   3.221   6.317   3.767 -0.3469 -0.0656 -0.1008
10460TIP3    H152795   3.188   6.373   3.837  1.5108  2.4456 -1.0494
10460TIP3    H252796   3.165   6.240   3.768 -1.8967  0.9901  2.5216
10461TIP3   OH252797   4.227   4.939  16.219  0.4634 -0.5503  0.1702
10461TIP3    H152798   4.215   4.848  16.191 -0.3012 -0.5502  0.4816
10461TIP3    H252799   4.298   4.935  16.283 -0.0199 -1.0291  0.6814
10462TIP3   OH252800   6.518   1.034   3.822  0.1156 -0.0639 -0.3350
10462TIP3    H152801   6.515   1.123   3.857  0.4595 -0.1792 -0.0066
10462TIP3    H252802   6.426   1.013   3.803 -0.0761  0.0323  0.4362
10463TIP3   OH252803   0.591   5.412  16.982 -0.2180 -0.7584  0.2197
10463TIP3    H152804   0.556   5.327  16.954 -0.2339 -0.7175  0.1152
10463TIP3    H252805   0.677   5.391  17.019 -1.2599 -1.1692  2.5638
10464TIP3   OH252806   2.039   3.613   3.059 -0.5278  0.2619 -0.1480
10464TIP3    H152807   2.006   3.605   3.148  0.2050 -2.3837 -0.0500
10464TIP3    H252808   2.042   3.708   3.043 -3.2387  0.7455  1.6221
10465TIP3   OH252809   0.341   3.979   1.759  0.5309  0.3846 -0.6729
10465TIP3    H152810   0.433   3.955   1.750  0.1592 -1.2444 -0.3251
10465TIP3    H252811   0.292   3.904   1.726 -0.6795  0.6980  0.3160
10466TIP3   OH252812   6.637   2.765   4.274  0.2526  0.1899  0.3497
10466TIP3    H152813   6.693   2.770   4.196 -0.7332  1.7369 -0.3036
10466TIP3    H252814   6.698   2.775   4.347  0.9900  0.6034 -0.2925
10467TIP3   OH252815   1.747   1.291  16.874 -0.2642  0.2529 -0.3071
10467TIP3    H152816   1.658   1.324  16.860 -0.1290  0.4034 -0.8417
10467TIP3    H252817   1.754   1.280  16.969 -0.5336  1.1441 -0.1733
10468TIP3   OH252818   5.141   0.677   5.688  0.0530  0.6030 -0.7005
10468TIP3    H152819   5.203   0.604   5.686 -1.0370 -0.3211 -1.4034
10468TIP3    H252820   5.104   0.674   5.776  1.0936  1.2704 -0.2115
10469TIP3   OH252821   1.111   5.675   0.554  0.2737  0.1340  0.2648
10469TIP3    H152822   1.178   5.619   0.514  0.0745  0.1575 -0.1073
10469TIP3    H252823   1.145   5.695   0.640 -0.3927 -1.9359  1.0801
10470TIP3   OH252824   1.884   5.883  16.728  0.3668 -0.2953  0.0449
10470TIP3    H152825   1.843   5.912  16.646  1.5726 -1.2137 -0.9225
10470TIP3    H252826   1.810   5.865  16.786 -0.6658 -1.9403 -1.6458
10471TIP3   OH252827   2.870   5.661  14.912 -0.4024  0.2818  0.4249
10471TIP3    H152828   2.857   5.738  14.967  0.8330  1.2135 -0.5090
10471TIP3    H252829   2.965   5.657  14.898 -0.6858  0.4229 -2.0438
10472TIP3   OH252830   2.269   1.314   5.267 -0.5657 -0.2885 -0.4929
10472TIP3    H152831   2.235   1.296   5.354 -0.7095  0.3093 -0.4219
10472TIP3    H252832   2.283   1.228   5.228  0.4676 -0.5829  0.4862
10473TIP3   OH252833   3.819   4.043   6.921 -0.8609 -0.2369  0.2287
10473TIP3    H152834   3.736   4.011   6.887 -0.4211 -0.9203 -0.2261
10473TIP3    H252835   3.882   3.975   6.898  0.6370  2.0037 -3.0698
10474TIP3   OH252836   1.093   2.321  11.667  0.4369  0.5797  0.3607
10474TIP3    H152837   1.146   2.261  11.719  0.0421  1.1308  1.4221
10474TIP3    H252838   1.075   2.273  11.586 -0.2000 -0.9015  1.3370
10475TIP3   OH252839   2.176   3.133   1.846  0.4491 -0.4972 -0.7157
10475TIP3    H152840   2.185   3.204   1.784  1.5769  1.8957  1.9734
10475TIP3    H252841   2.089   3.145   1.886  1.3815  0.6551  1.0942
10476TIP3   OH252842   1.518   4.993  11.965 -0.0851  0.1362  0.6019
10476TIP3    H152843   1.604   4.965  11.932 -0.0253  0.2979  0.6216
10476TIP3    H252844   1.463   4.915  11.957  0.8111 -0.8785  3.2878
10477TIP3   OH252845   3.870   2.556   3.506 -0.2830  0.1783  0.1368
10477TIP3    H152846   3.804   2.605   3.458 -0.4954  0.7605  0.9955
10477TIP3    H252847   3.949   2.610   3.501  0.5383 -1.0916 -1.9512
10478TIP3   OH252848   5.975   3.535  12.257  0.2000  0.6689  0.5068
10478TIP3    H152849   5.992   3.442  12.245 -1.0855  0.2281  1.8414
10478TIP3    H252850   5.954   3.567  12.169  1.5702 -0.0835 -0.1152
10479TIP3   OH252851   1.295   4.492   1.290 -0.3511 -0.6140  0.5699
10479TIP3    H152852   1.361   4.430   1.320  0.7867 -0.1044 -0.7693
10479TIP3    H252853   1.308   4.570   1.344  0.1010 -0.5447  0.3633
10480TIP3   OH252854   5.910   5.457   3.888 -0.1476 -0.7606 -0.2220
10480TIP3    H152855   5.900   5.475   3.982 -1.0721 -0.3749 -0.3843
10480TIP3    H252856   5.852   5.383   3.872  0.0692 -0.8737 -0.4761
10481TIP3   OH252857   4.103   2.445  11.084  0.5520  0.5373  0.2250
10481TIP3    H152858   4.109   2.540  11.067 -1.4654  0.5134 -0.8554
10481TIP3    H252859   4.035   2.414  11.025  0.5283 -1.4642  1.2224
10482TIP3   OH252860   1.810   2.568   5.724 -0.1675  0.5176 -0.1481
10482TIP3    H152861   1.818   2.525   5.639 -1.3066  0.5571 -0.3039
10482TIP3    H252862   1.724   2.541   5.756 -0.4135  1.7155  0.2834
10483TIP3   OH252863   3.022   2.661  12.885  0.0430  0.4261  0.1360
10483TIP3    H152864   3.004   2.714  12.808 -2.6770 -0.6103 -0.0624
10483TIP3    H252865   2.964   2.697  12.953 -0.9906 -1.4370  0.3235
10484TIP3   OH252866   4.892   4.048   1.730  0.1862 -0.6848 -0.1623
10484TIP3    H152867   4.812   4.008   1.696  1.3745 -2.0925 -1.4042
10484TIP3    H252868   4.905   4.125   1.675 -0.2167 -0.5303 -0.0479
10485TIP3   OH252869   2.366   4.105  16.870 -0.0171 -0.2349 -0.2446
10485TIP3    H152870   2.412   4.091  16.787  0.3026  1.3596 -0.3652
10485TIP3    H252871   2.301   4.173  16.850  0.0047  0.1034  0.7924
10486TIP3   OH252872   1.965   0.716   4.316  0.7229  0.1563 -0.1267
10486TIP3    H152873   2.031   0.649   4.335  0.7174 -0.3244 -1.6564
10486TIP3    H252874   1.993   0.792   4.366  0.4822 -1.0798  2.0305
10487TIP3   OH252875   1.484   4.079  12.289 -0.5568 -0.1493  0.1011
10487TIP3    H152876   1.476   4.061  12.195 -2.4942 -0.2404  0.2554
10487TIP3    H252877   1.576   4.103  12.300 -0.1982 -0.4788 -1.7523
10488TIP3   OH252878   3.307   0.918   6.237 -0.2195 -0.0995  0.5225
10488TIP3    H152879   3.377   0.984   6.234 -1.3518  1.2052  1.4523
10488TIP3    H252880   3.298   0.896   6.329 -0.0087 -1.4257  0.2449
10489TIP3   OH252881   1.133   3.200  14.757 -0.3128  0.3591 -0.7430
10489TIP3    H152882   1.050   3.185  14.711 -0.6226  1.5628 -0.6183
10489TIP3    H252883   1.134   3.295  14.772  0.0823  0.0801  1.1667
10490TIP3   OH252884   5.505   4.133   1.195 -0.3787  0.3644  0.5273
10490TIP3    H152885   5.539   4.056   1.150 -1.0810  0.4341 -0.1610
10490TIP3    H252886   5.582   4.178   1.228  0.1247 -0.0198 -0.0915
10491TIP3   OH252887   4.956   0.359  13.435 -0.4468  0.1900  0.1779
10491TIP3    H152888   4.908   0.314  13.366 -2.0540  1.3753  0.4644
10491TIP3    H252889   4.931   0.314  13.515 -1.1275  0.8202  0.3300
10492TIP3   OH252890   3.992   4.070  13.732  0.3277 -0.2644 -0.1474
10492TIP3    H152891   4.021   4.002  13.793  0.3734 -1.5429 -1.5348
10492TIP3    H252892   4.057   4.068  13.662 -0.9316 -0.4176 -1.3501
10493TIP3   OH252893   3.405   2.901  11.902 -0.2696  0.4154  0.0864
10493TIP3    H152894   3.333   2.840  11.911 -0.9514  0.7496 -2.3092
10493TIP3    H252895   3.483   2.849  11.922 -0.9969 -0.6090  0.3382
10494TIP3   OH252896   4.760   4.001  12.813 -0.0551 -0.0546 -0.2776
10494TIP3    H152897   4.785   3.926  12.868 -1.2754 -1.1717 -1.1991
10494TIP3    H252898   4.725   4.065  12.875  2.2214  0.3626  0.6927
10495TIP3   OH252899   4.064   3.384   2.126 -0.5966 -0.0686  0.2093
10495TIP3    H152900   4.151   3.366   2.090 -0.5552 -0.9372  0.6976
10495TIP3    H252901   4.016   3.301   2.115 -2.0616  0.9691 -1.9242
10496TIP3   OH252902   1.287   0.259   5.645  0.0691  0.2580 -0.1482
10496TIP3    H152903   1.325   0.292   5.564  0.4386  0.3399  0.0554
10496TIP3    H252904   1.193   0.259   5.629  0.1658 -0.1827 -0.7468
10497TIP3   OH252905   4.184   0.482  16.834 -0.2775 -0.2864  0.1750
10497TIP3    H152906   4.249   0.549  16.812  1.1619 -1.8255 -0.4837
10497TIP3    H252907   4.207   0.455  16.923 -1.3956  0.6570  0.7761
10498TIP3   OH252908   4.130   3.391  16.282 -0.3914 -0.2574  0.3367
10498TIP3    H152909   4.113   3.469  16.336 -1.2392 -0.8038  0.8796
10498TIP3    H252910   4.118   3.422  16.192 -1.1281  0.1577  0.5650
10499TIP3   OH252911   1.881   5.068   5.392  0.6027 -0.2483 -0.1801
10499TIP3    H152912   1.813   5.089   5.456  0.5129 -1.1636  0.0418
10499TIP3    H252913   1.962   5.065   5.443  0.1934 -3.7125  0.5380
10500TIP3   OH252914   1.076   1.456  15.681 -0.1551  0.8682  0.2984
10500TIP3    H152915   1.072   1.523  15.613 -1.8351 -0.9374 -1.4921
10500TIP3    H252916   0.986   1.427  15.693  0.5660 -1.6109  0.4085
10501TIP3   OH252917   1.785   3.336  12.948  0.7368  0.5205  0.6641
10501TIP3    H152918   1.699   3.299  12.930 -0.9231  3.4753  1.8525
10501TIP3    H252919   1.839   3.307  12.874 -1.2491 -1.3561 -0.1681
10502TIP3   OH252920   4.415   3.025   2.552 -0.1375  0.2662 -0.0243
10502TIP3    H152921   4.368   2.972   2.488 -1.7454  2.3429 -0.6891
10502TIP3    H252922   4.349   3.086   2.586  1.7140  2.3720  0.0488
10503TIP3   OH252923   1.839   4.124  14.354  0.2292 -0.2020  0.2097
10503TIP3    H152924   1.793   4.051  14.313 -1.1978 -0.0302  1.4056
10503TIP3    H252925   1.875   4.086  14.435  2.2372 -0.3252 -0.6898
10504TIP3   OH252926   3.621   1.549   4.272  0.4291 -0.4139 -0.6909
10504TIP3    H152927   3.534   1.531   4.309 -0.6046  2.8113 -1.2683
10504TIP3    H252928   3.622   1.500   4.190 -0.9004 -0.4179 -0.7315
10505TIP3   OH252929   5.899   4.663  15.111  0.0584 -0.3552  0.8109
10505TIP3    H152930   5.871   4.667  15.019  2.6054  0.4422 -0.0078
10505TIP3    H252931   5.889   4.752  15.143  4.0629  0.7737 -0.4177
10506TIP3   OH252932   1.107   5.449  14.201  0.2898  0.3245 -0.0003
10506TIP3    H152933   1.069   5.533  14.225  1.3816  0.3997  1.6231
10506TIP3    H252934   1.153   5.466  14.119  2.0439  1.8163  1.2224
10507TIP3   OH252935   4.929   0.660   1.945 -0.0120 -0.0527  0.1293
10507TIP3    H152936   4.873   0.643   1.869  0.3054  0.7015 -0.2810
10507TIP3    H252937   4.936   0.576   1.989 -1.3025 -0.2096  0.0678
10508TIP3   OH252938   0.144   0.486   2.689 -0.2382 -0.7957 -0.2670
10508TIP3    H152939   0.109   0.467   2.776 -0.6533  0.4552 -0.1425
10508TIP3    H252940   0.133   0.581   2.679 -1.4528 -1.1096 -2.2343
10509TIP3   OH252941   0.931   4.724  13.941  0.4652  0.0555 -0.2322
10509TIP3    H152942   0.893   4.645  13.904  2.9973 -0.1997 -2.5783
10509TIP3    H252943   0.856   4.782  13.957 -1.4871 -2.8073  1.8408
10510TIP3   OH252944   3.397   3.469   4.199 -0.5015  0.1858 -0.2825
10510TIP3    H152945   3.374   3.390   4.151 -1.4337  0.5529 -0.4470
10510TIP3    H252946   3.400   3.538   4.133 -2.4964  0.8347  0.2457
10511TIP3   OH252947   5.268   2.239  12.198 -0.5188  0.8382  0.2352
10511TIP3    H152948   5.311   2.314  12.156  1.4216 -0.2364  0.1869
10511TIP3    H252949   5.187   2.275  12.234  1.5042  3.6003  2.5043
10512TIP3   OH252950   0.386   0.648   3.799  0.3116 -0.9157  0.3520
10512TIP3    H152951   0.368   0.672   3.890  1.0635 -1.8600  0.7760
10512TIP3    H252952   0.397   0.553   3.802  1.0952 -0.8653 -0.5987
10513TIP3   OH252953   0.813   0.275   4.559 -0.4257  0.1652 -0.1605
10513TIP3    H152954   0.860   0.222   4.624 -1.3949 -2.3872 -1.4000
10513TIP3    H252955   0.739   0.310   4.608 -0.4691 -0.7000  0.4383
10514TIP3   OH252956   4.414   2.556   2.775 -0.4225 -0.1690  0.1080
10514TIP3    H152957   4.389   2.592   2.860  0.3432  0.9397 -0.1136
10514TIP3    H252958   4.461   2.627   2.732  0.7418 -1.2916 -0.5487
10515TIP3   OH252959   1.067   0.943  11.317  0.8428 -0.1572 -0.3033
10515TIP3    H152960   1.141   0.928  11.257  1.4873  0.0788  0.4232
10515TIP3    H252961   1.068   1.038  11.332 -1.9565  0.5310 -3.2650
10516TIP3   OH252962   5.020   5.022   2.117 -0.2458 -0.7714  0.5223
10516TIP3    H152963   4.946   4.961   2.116  0.7717 -2.0516  0.0468
10516TIP3    H252964   5.017   5.064   2.030 -3.0541  2.6374  2.0147
10517TIP3   OH252965   5.664   4.437  15.092 -0.2923  0.6552 -0.5162
10517TIP3    H152966   5.740   4.443  15.151 -0.0650  0.7799 -0.8200
10517TIP3    H252967   5.651   4.343  15.080 -0.0964  0.6352 -0.5761
10518TIP3   OH252968   1.223   6.596  13.437 -0.0576  0.2790 -0.2697
10518TIP3    H152969   1.206   6.600  13.342 -3.7790  0.0868  0.2511
10518TIP3    H252970   1.216   6.687  13.465  0.9427  0.3208 -0.1291
10519TIP3   OH252971   3.066   4.781  15.261 -0.4768 -0.4102  0.0774
10519TIP3    H152972   3.048   4.786  15.168 -1.7256 -0.9947  0.2699
10519TIP3    H252973   3.044   4.691  15.285 -2.6011  0.3800  1.4021
10520TIP3   OH252974   5.580   1.639  12.530 -0.6253 -0.6317 -0.3720
10520TIP3    H152975   5.550   1.549  12.518  1.5579 -1.2985 -1.4834
10520TIP3    H252976   5.515   1.693  12.485 -0.7193 -1.8962 -1.8473
10521TIP3   OH252977   4.694   4.078   4.257 -0.0834  0.2138 -0.0203
10521TIP3    H152978   4.743   4.135   4.197 -0.3028  1.2841  0.7876
10521TIP3    H252979   4.603   4.086   4.228  0.1210 -1.6014 -1.3803
10522TIP3   OH252980   1.885   4.720   5.614  0.8503 -0.3756  0.3430
10522TIP3    H152981   1.974   4.685   5.612  1.3307  0.8493 -0.7514
10522TIP3    H252982   1.842   4.681   5.537  1.0805  0.6005 -0.3001
10523TIP3   OH252983   5.602   4.788  16.670  0.1420  0.0318 -0.3649
10523TIP3    H152984   5.522   4.735  16.670  1.5837 -2.2812 -0.3222
10523TIP3    H252985   5.578   4.868  16.717 -2.2902 -0.3217 -0.8837
10524TIP3   OH252986   5.032   1.063  14.307  0.1688 -0.0408 -0.7396
10524TIP3    H152987   5.007   0.987  14.360  0.8754  1.1081  1.3736
10524TIP3    H252988   4.950   1.111  14.294  0.4390  1.7607  2.9379
10525TIP3   OH252989   3.193   6.754  12.457 -0.2132 -0.2007  0.5767
10525TIP3    H152990   3.219   6.803  12.378  1.0734 -0.9526  0.5080
10525TIP3    H252991   3.106   6.721  12.437 -0.2842  0.3962 -0.1597
10526TIP3   OH252992   1.979   6.466  11.464 -0.6453  0.4111  0.4896
10526TIP3    H152993   2.074   6.467  11.476 -0.4316 -0.0050 -0.9903
10526TIP3    H252994   1.944   6.435  11.547  0.6490 -1.5095  0.3769
10527TIP3   OH252995   3.102   6.284   4.346 -0.3928 -0.1640  0.0940
10527TIP3    H152996   3.090   6.351   4.279  0.3188  0.0505  0.1742
10527TIP3    H252997   3.148   6.328   4.417  0.7204 -0.8924 -0.1411
10528TIP3   OH252998   2.558   0.642  14.585 -0.6737  0.2858  0.6372
10528TIP3    H152999   2.482   0.700  14.591  0.0600  1.2355  0.8381
10528TIP3    H253000   2.576   0.636  14.491 -0.6493  0.5249  0.6258
10529TIP3   OH253001   1.549   6.279   0.906 -0.0583 -0.0416  0.3109
10529TIP3    H153002   1.518   6.364   0.936 -0.6904 -0.1645  0.0184
10529TIP3    H253003   1.639   6.274   0.937  0.4325  1.2931 -0.7773
10530TIP3   OH253004   0.823   4.957   1.977 -0.0357  0.0319  0.0012
10530TIP3    H153005   0.891   4.942   1.912 -1.3360  0.1569 -1.4396
10530TIP3    H253006   0.856   4.915   2.057  1.0778 -1.1548 -1.0461
10531TIP3   OH253007   4.618   4.762  16.395  0.2700 -0.4084  0.3830
10531TIP3    H153008   4.548   4.798  16.449  1.4823  0.2828  1.5771
10531TIP3    H253009   4.684   4.731  16.458  1.9408  0.8363 -0.6536
10532TIP3   OH253010   1.505   1.224   1.133 -0.0725  0.2707  0.2629
10532TIP3    H153011   1.597   1.249   1.128 -0.2068  0.8595  0.6078
10532TIP3    H253012   1.460   1.287   1.075 -0.2629  0.0286  0.1461
10533TIP3   OH253013   5.956   1.596   2.362  0.1195  0.5951 -0.2133
10533TIP3    H153014   6.005   1.569   2.440  0.4492  0.0701 -0.6010
10533TIP3    H253015   6.020   1.645   2.309  0.5343 -0.9421 -1.1923
10534TIP3   OH253016   3.940   2.472  14.657  0.2918 -0.6176 -0.4664
10534TIP3    H153017   3.926   2.470  14.751  1.3443  0.3254 -0.2704
10534TIP3    H253018   3.886   2.546  14.626  1.1053  0.0370 -0.3686
10535TIP3   OH253019   5.697   1.221   1.993 -0.2703 -0.4069  0.2023
10535TIP3    H153020   5.665   1.271   1.918 -0.5878 -0.5766  0.2256
10535TIP3    H253021   5.650   1.258   2.068 -0.0331 -0.3100  0.3034
10536TIP3   OH253022   1.349   5.659   1.562  0.7809  0.7181 -0.2253
10536TIP3    H153023   1.348   5.637   1.655  1.5103 -0.7452 -0.5357
10536TIP3    H253024   1.261   5.689   1.543 -0.0954 -1.2810  0.4251
10537TIP3   OH253025   0.860   0.127   5.958 -0.0152 -0.0296  0.1030
10537TIP3    H153026   0.814   0.085   5.885  1.1246  1.3080 -1.4568
10537TIP3    H253027   0.945   0.084   5.960  0.1833  0.3676  0.2260
10538TIP3   OH253028   5.974   6.059   2.011  0.7736 -0.0092  0.0816
10538TIP3    H153029   5.977   6.132   1.950  2.4537  0.0259  0.1771
10538TIP3    H253030   6.014   5.986   1.964 -1.2653 -1.0561 -0.1758
10539TIP3   OH253031   3.310   4.247   5.390 -0.9361  0.8415  0.2758
10539TIP3    H153032   3.291   4.340   5.402 -0.6563  1.2763 -2.1462
10539TIP3    H253033   3.395   4.246   5.346 -1.9071 -0.4272 -1.7097
10540TIP3   OH253034   3.544   6.137   1.612  0.1155 -0.7143 -0.2787
10540TIP3    H153035   3.594   6.194   1.670  0.0655  1.0319 -1.8472
10540TIP3    H253036   3.498   6.077   1.671 -0.0097  1.0110  1.4801
10541TIP3   OH253037   3.629   3.592  14.610 -0.1725 -0.4660  0.2307
10541TIP3    H153038   3.651   3.541  14.688  1.1721  0.8452  0.7444
10541TIP3    H253039   3.633   3.683  14.639 -0.9206  0.0050 -1.0653
10542TIP3   OH253040   3.878   2.556   1.532 -0.1599 -0.1347 -0.4366
10542TIP3    H153041   3.894   2.480   1.477 -0.6099  0.3246 -1.2205
10542TIP3    H253042   3.856   2.626   1.471  1.3628  0.9410  0.1805
10543TIP3   OH253043   2.503   4.454  16.318  0.2906 -0.2637  0.3691
10543TIP3    H153044   2.511   4.363  16.348  0.4188 -1.3408 -2.5555
10543TIP3    H253045   2.586   4.473  16.275 -1.1722 -0.4072 -2.8378
10544TIP3   OH253046   3.702   0.373  12.579  0.9395  0.5549 -0.3763
10544TIP3    H153047   3.772   0.313  12.604  1.4646  0.7542 -1.3005
10544TIP3    H253048   3.629   0.316  12.556  0.9138  0.3322  0.2392
10545TIP3   OH253049   2.807   1.947   5.225  0.1931  0.5157  0.2341
10545TIP3    H153050   2.754   1.998   5.164  1.0697  1.8682  0.5288
10545TIP3    H253051   2.897   1.964   5.197  0.5194 -0.8669  0.3888
10546TIP3   OH253052   0.624   3.642   1.147 -0.1186  0.0616  0.3924
10546TIP3    H153053   0.626   3.639   1.243 -2.0470 -0.2754  0.4710
10546TIP3    H253054   0.638   3.734   1.125 -2.7690  0.7657  1.2129
10547TIP3   OH253055   4.258   2.897  15.406 -0.2227  0.3995 -0.1656
10547TIP3    H153056   4.240   2.939  15.490  1.3424  1.3506 -0.2639
10547TIP3    H253057   4.279   2.806  15.428 -2.0396  0.0311  0.2128
10548TIP3   OH253058   3.100   0.691  15.284 -0.1365 -0.1196 -0.0099
10548TIP3    H153059   3.180   0.738  15.260  0.2513 -0.8794 -0.2230
10548TIP3    H253060   3.095   0.619  15.221  0.4056 -1.6225  1.5877
10549TIP3   OH253061   1.963   2.747  11.411 -0.1047  0.2017 -0.1994
10549TIP3    H153062   1.916   2.755  11.494 -2.2426  0.2458 -1.3272
10549TIP3    H253063   2.047   2.709  11.435 -1.0231 -0.7233  1.8842
10550TIP3   OH253064   5.963   1.691   0.911  0.4694  0.4090  0.0656
10550TIP3    H153065   6.015   1.706   0.832 -0.8355  0.5450 -0.8074
10550TIP3    H253066   5.873   1.683   0.879  0.0537 -0.7589  1.4130
10551TIP3   OH253067   6.326   2.512  15.321 -0.5755 -0.4011 -0.0815
10551TIP3    H153068   6.231   2.513  15.326 -0.6315 -2.0052 -0.2936
10551TIP3    H253069   6.352   2.603  15.335 -2.0952 -0.0577  0.6745
10552TIP3   OH253070   4.313   1.056   5.287  0.4020 -0.4952  0.2548
10552TIP3    H153071   4.360   1.106   5.219 -0.2915 -0.2311 -0.0372
10552TIP3    H253072   4.355   0.970   5.287 -0.1496 -0.7932 -1.1241
10553TIP3   OH253073   6.142   2.590  11.615  0.6594 -0.1575 -0.3502
10553TIP3    H153074   6.084   2.666  11.612 -0.7941 -1.2155 -0.3111
10553TIP3    H253075   6.220   2.617  11.567  0.3839  1.5103  0.0690
10554TIP3   OH253076   6.288   5.402  15.916 -0.2958  0.0154 -0.3854
10554TIP3    H153077   6.317   5.323  15.962  0.9042  0.7505  0.1691
10554TIP3    H253078   6.233   5.369  15.845  2.0527 -1.5116 -1.6286
10555TIP3   OH253079   0.077   0.327   1.488  0.0080  0.5117  0.1351
10555TIP3    H153080   0.091   0.238   1.454 -0.9665  0.2077  0.4966
10555TIP3    H253081   0.161   0.371   1.475  1.5581 -1.3802  2.7866
10556TIP3   OH253082   1.531   0.880  15.520  0.5874 -0.9297 -0.0198
10556TIP3    H153083   1.494   0.929  15.446 -1.7377 -1.2581  0.8453
10556TIP3    H253084   1.552   0.794  15.484 -0.7374 -1.1632 -0.2757
10557TIP3   OH253085   0.413   5.899  12.436 -0.0140  0.2862 -0.8274
10557TIP3    H153086   0.377   5.916  12.523 -1.4832  0.0558 -1.3504
10557TIP3    H253087   0.494   5.949  12.432  0.9294 -0.9687  1.2491
10558TIP3   OH253088   5.379   3.631   2.947 -0.0472 -0.1040  0.0140
10558TIP3    H153089   5.315   3.699   2.968  0.7901  0.9570 -0.7543
10558TIP3    H253090   5.401   3.592   3.032 -3.0306 -1.8126  0.1536
10559TIP3   OH253091   6.521   5.717  13.103  0.3059 -0.3395  0.1821
10559TIP3    H153092   6.459   5.651  13.135  0.0742 -1.8595 -2.9844
10559TIP3    H253093   6.607   5.678  13.119  0.2853 -0.1300  0.8177
10560TIP3   OH253094   6.326   0.499  12.477 -0.2188  0.0901  0.1230
10560TIP3    H153095   6.414   0.508  12.514 -0.8644  0.7093  1.6143
10560TIP3    H253096   6.301   0.588  12.452 -0.1609 -0.1877 -0.9704
10561TIP3   OH253097   4.553   3.866  16.240 -0.0189  0.9712  0.3091
10561TIP3    H153098   4.491   3.810  16.194 -0.1233 -1.1429  2.8055
10561TIP3    H253099   4.628   3.872  16.181 -0.5927 -0.6287 -0.6566
10562TIP3   OH253100   6.112   6.007  14.108  0.2628  0.7864  0.7593
10562TIP3    H153101   6.206   6.007  14.092  0.2611 -0.3700  0.6276
10562TIP3    H253102   6.073   6.016  14.021  0.2351  1.9811  0.8784
10563TIP3   OH253103   6.498   3.013  17.079  0.4168 -0.4046 -0.3169
10563TIP3    H153104   6.543   2.970  17.006  1.6229 -0.6613  0.5354
10563TIP3    H253105   6.495   3.106  17.054  1.5840 -0.3522 -0.3493
10564TIP3   OH253106   5.286   5.747  13.209 -0.0560 -0.2314  0.0335
10564TIP3    H153107   5.352   5.699  13.158  0.2021 -0.5440  0.6525
10564TIP3    H253108   5.234   5.679  13.251 -0.3578  0.0265  0.0819
10565TIP3   OH253109   0.675   3.597   0.879  0.4605 -0.0117  0.1372
10565TIP3    H153110   0.683   3.589   0.974 -0.2030 -2.5092  0.0556
10565TIP3    H253111   0.622   3.522   0.853  0.9574  0.3852 -2.2652
10566TIP3   OH253112   3.258   0.681   5.314 -0.0259  0.0691 -0.5643
10566TIP3    H153113   3.207   0.609   5.351  0.1782 -0.1968 -0.8055
10566TIP3    H253114   3.339   0.683   5.365 -0.0357  0.1366 -0.5503
10567TIP3   OH253115   1.011   1.685   0.295  0.2435 -0.5535  0.5896
10567TIP3    H153116   0.988   1.605   0.247  0.2035 -0.0952 -0.1676
10567TIP3    H253117   0.989   1.756   0.235 -0.4190  0.0711  1.5422
10568TIP3   OH253118   0.096   0.836  17.099  0.0193 -0.1263  0.0436
10568TIP3    H153119   0.129   0.762  17.048  0.1541 -0.5485  0.7328
10568TIP3    H253120   0.162   0.904  17.089 -0.5034  0.2297 -1.2880
10569TIP3   OH253121   1.959   6.353  15.822 -0.1863  0.2379 -0.4793
10569TIP3    H153122   1.970   6.370  15.729  1.8742 -1.3120 -0.5944
10569TIP3    H253123   2.036   6.392  15.863 -1.4553  1.5905  0.7085
10570TIP3   OH253124   0.441   5.909   4.840  0.0080 -0.4525 -0.1198
10570TIP3    H153125   0.354   5.888   4.875 -0.6696 -1.1463 -2.1192
10570TIP3    H253126   0.440   6.005   4.831 -1.2691 -0.5774 -1.7912
10571TIP3   OH253127   2.975   3.858  15.661  0.2568  0.4741  0.0096
10571TIP3    H153128   2.940   3.915  15.593  1.8065  0.4356 -0.8724
10571TIP3    H253129   2.915   3.784  15.664 -0.7012  1.2287 -0.2063
10572TIP3   OH253130   4.751   0.745  13.417  0.4648  0.0322  0.1674
10572TIP3    H153131   4.720   0.686  13.485 -0.1716 -0.5859 -0.6394
10572TIP3    H253132   4.832   0.706  13.386  0.0710 -0.4170 -0.3298
10573TIP3   OH253133   1.478   0.519   5.062  0.2728 -0.1048 -0.0950
10573TIP3    H153134   1.447   0.569   5.138 -1.2896  0.5879 -1.1555
10573TIP3    H253135   1.499   0.433   5.098 -2.5459 -0.5171  0.8417
10574TIP3   OH253136   1.782   4.219   1.763  0.0624 -0.1254 -0.0261
10574TIP3    H153137   1.724   4.161   1.712 -1.4553  1.6833 -0.4639
10574TIP3    H253138   1.848   4.246   1.700 -1.3435  1.4603 -0.9057
10575TIP3   OH253139   2.446   0.842  16.832 -0.1899  0.2213 -0.1458
10575TIP3    H153140   2.527   0.891  16.848  1.1384 -2.1412  0.9380
10575TIP3    H253141   2.473   0.767  16.780 -1.8936 -0.0850 -0.6491
10576TIP3   OH253142   3.980   6.015  14.298  0.6472 -0.3373  0.1782
10576TIP3    H153143   3.967   5.930  14.257  2.1790 -1.5225  1.9898
10576TIP3    H253144   4.047   6.058  14.245  1.8791 -1.4340  0.7863
10577TIP3   OH253145   6.706   0.336  16.772  0.2668  0.3305 -0.5513
10577TIP3    H153146   6.764   0.348  16.698 -1.9393 -0.7485 -2.6019
10577TIP3    H253147   6.637   0.277  16.740  0.2775 -1.9439  2.9780
10578TIP3   OH253148   4.004   2.452  14.286  0.4853 -0.5886  0.5793
10578TIP3    H153149   4.036   2.400  14.213  2.1914 -1.0789  1.6338
10578TIP3    H253150   3.909   2.439  14.284  0.6992 -2.3799 -0.2255
10579TIP3   OH253151   1.446   5.075   3.218 -1.1301  0.6614 -0.7679
10579TIP3    H153152   1.366   5.081   3.270 -0.6644  0.7352 -0.0432
10579TIP3    H253153   1.488   5.160   3.229 -1.0226  0.6782 -1.2702
10580TIP3   OH253154   4.691   5.241   4.082 -0.3691 -0.2844  0.4331
10580TIP3    H153155   4.763   5.201   4.130  0.7625  1.0694 -0.0657
10580TIP3    H253156   4.613   5.220   4.133  0.2508 -2.4415  0.5859
10581TIP3   OH253157   2.973   2.328  11.518 -0.7307  0.5695  0.3136
10581TIP3    H153158   2.904   2.290  11.463 -1.4985  1.3744  0.7063
10581TIP3    H253159   3.036   2.366  11.456 -0.0960 -1.0215 -0.0848
10582TIP3   OH253160   4.175   0.590   3.413  0.1797  0.4965 -0.0826
10582TIP3    H153161   4.191   0.573   3.320 -0.8183  0.5155 -0.2672
10582TIP3    H253162   4.173   0.504   3.453 -3.5306  0.0479 -0.7999
10583TIP3   OH253163   6.246   4.059   1.098 -0.1881  1.1065 -0.1633
10583TIP3    H153164   6.315   4.117   1.066 -0.0896  1.4502  0.6486
10583TIP3    H253165   6.283   4.018   1.176 -0.3790  0.1961 -0.5471
10584TIP3   OH253166   2.266   2.786   0.210  0.3650 -0.3217 -0.1227
10584TIP3    H153167   2.341   2.837   0.180 -0.3548  0.8568  0.0006
10584TIP3    H253168   2.301   2.730   0.279  1.0085  0.6893  0.3937
10585TIP3   OH253169   3.091   0.361   5.386  0.2231 -0.5093  0.4271
10585TIP3    H153170   2.997   0.380   5.383 -0.0061 -1.5169  0.8648
10585TIP3    H253171   3.110   0.320   5.302  0.5359  0.7980 -0.1590
10586TIP3   OH253172   1.397   6.432  13.623  0.5045 -0.3316  1.1210
10586TIP3    H153173   1.350   6.513  13.603 -1.0307 -1.1687  1.1859
10586TIP3    H253174   1.482   6.442  13.579  0.6129  1.5723  1.6859
10587TIP3   OH253175   0.526   3.214   4.843 -0.3045  0.5529  0.1336
10587TIP3    H153176   0.510   3.238   4.934  1.9685 -0.6655  0.9291
10587TIP3    H253177   0.447   3.166   4.817 -0.5129 -0.1168  1.8675
10588TIP3   OH253178   5.141   5.244  13.238  0.5308  0.5688 -0.4491
10588TIP3    H153179   5.176   5.195  13.312  0.1761  0.4486 -0.3585
10588TIP3    H253180   5.080   5.306  13.277 -0.5460 -0.2724 -0.7168
10589TIP3   OH253181   5.458   4.265  14.245 -0.2911 -0.4291 -0.3435
10589TIP3    H153182   5.553   4.269  14.233 -0.2407 -2.4073 -0.9869
10589TIP3    H253183   5.423   4.260  14.156 -0.9738 -0.1978 -0.0960
10590TIP3   OH253184   0.360   3.767   0.094 -0.3089 -0.0931 -0.0981
10590TIP3    H153185   0.450   3.739   0.108 -0.9391 -3.8148 -2.2442
10590TIP3    H253186   0.365   3.825   0.018  0.1762 -1.2716 -0.9849
10591TIP3   OH253187   2.239   5.254   5.507 -0.6061 -1.0168  0.5664
10591TIP3    H153188   2.304   5.196   5.547 -0.8588 -1.6940  0.0140
10591TIP3    H253189   2.159   5.202   5.504 -0.3681 -1.3536 -1.6465
10592TIP3   OH253190   0.542   6.701  11.459 -0.5408  0.1927 -0.1140
10592TIP3    H153191   0.458   6.655  11.452 -0.4893  0.3424 -2.2035
10592TIP3    H253192   0.606   6.638  11.424  0.0230  0.6009  0.1707
10593TIP3   OH253193   5.440   4.036  14.414 -0.3806 -0.2086 -0.3564
10593TIP3    H153194   5.450   4.125  14.382  0.5766 -0.6125 -1.2397
10593TIP3    H253195   5.428   3.983  14.336  1.6550 -1.1721 -0.0995
10594TIP3   OH253196   4.851   0.168  11.310  0.1952  0.5275 -0.0423
10594TIP3    H153197   4.846   0.261  11.286  0.1609  0.3519 -0.7515
10594TIP3    H253198   4.922   0.163  11.374  2.3733  0.6144 -2.2815
10595TIP3   OH253199   1.847   0.924   2.822  0.9970 -0.2906  0.2083
10595TIP3    H153200   1.890   0.906   2.906 -0.9495 -3.7748  0.6034
10595TIP3    H253201   1.760   0.955   2.846  0.2239 -1.8697 -0.4845
10596TIP3   OH253202   6.311   2.526   6.105  0.3962 -0.1929  0.0580
10596TIP3    H153203   6.304   2.597   6.169 -0.5487 -0.7273  0.5768
10596TIP3    H253204   6.314   2.446   6.158 -0.1182 -0.6298 -0.5584
10597TIP3   OH253205   5.927   0.398  14.293 -0.6730  0.4587  0.4246
10597TIP3    H153206   5.994   0.379  14.359 -0.9379 -0.6459  0.4021
10597TIP3    H253207   5.974   0.400  14.210 -0.5187  0.6893  0.5171
10598TIP3   OH253208   6.240   2.557   3.069  0.2607  0.1712  0.0062
10598TIP3    H153209   6.278   2.497   3.005  1.4194 -0.6028  1.3546
10598TIP3    H253210   6.270   2.524   3.154  0.2134  2.1460  0.8628
10599TIP3   OH253211   3.278   2.647  12.129  0.0222  0.3415 -0.3399
10599TIP3    H153212   3.229   2.698  12.064  0.7662  1.0976 -0.3256
10599TIP3    H253213   3.306   2.712  12.194  1.0206 -0.0811 -0.3390
10600TIP3   OH253214   4.874   2.883  16.479 -0.2696  0.2311  0.4749
10600TIP3    H153215   4.817   2.959  16.466 -0.8330 -0.1708  0.5932
10600TIP3    H253216   4.956   2.920  16.513  0.0414  0.9603 -0.9835
10601TIP3   OH253217   6.572   0.291  12.624 -0.0245  0.0514 -0.4042
10601TIP3    H153218   6.637   0.241  12.674  1.4262  0.7713 -1.5009
10601TIP3    H253219   6.535   0.228  12.562 -2.7027 -1.1752  2.1685
10602TIP3   OH253220   4.319   4.407  12.691  0.4624  0.2227 -0.6830
10602TIP3    H153221   4.292   4.354  12.616  1.2886  1.7824 -2.1585
10602TIP3    H253222   4.400   4.449  12.662  1.0547  0.5138  1.2816
10603TIP3   OH253223   1.429   2.409  11.400 -0.1981 -0.1588  0.3302
10603TIP3    H153224   1.425   2.498  11.366 -1.4728 -0.7011 -1.0204
10603TIP3    H253225   1.415   2.353  11.324  0.0984 -1.5180  1.2343
10604TIP3   OH253226   2.854   0.742   4.234 -0.1145  0.4999  0.4273
10604TIP3    H153227   2.890   0.804   4.171  0.8180 -1.0854 -0.6830
10604TIP3    H253228   2.816   0.796   4.304  1.4957  2.2753 -0.0154
10605TIP3   OH253229   2.591   5.775   0.730 -0.7131  0.2833  0.3126
10605TIP3    H153230   2.560   5.685   0.728  1.4060 -0.5656  1.9407
10605TIP3    H253231   2.627   5.790   0.642  1.6101 -1.5679  0.8480
10606TIP3   OH253232   3.214   4.280   3.165 -0.6711 -0.0177 -0.3490
10606TIP3    H153233   3.241   4.189   3.181 -0.8027  0.4575  3.7967
10606TIP3    H253234   3.153   4.274   3.092  2.1115 -2.6317 -2.7563
10607TIP3   OH253235   5.723   6.473  12.150  0.0044 -0.8482  0.0102
10607TIP3    H153236   5.772   6.497  12.228  1.1298 -0.5241 -0.7746
10607TIP3    H253237   5.714   6.378  12.155 -0.1317 -0.8086  0.6306
10608TIP3   OH253238   5.930   6.182  13.900 -0.4753 -0.0035 -0.2503
10608TIP3    H153239   5.939   6.249  13.967 -1.6529  0.3372 -0.4130
10608TIP3    H253240   5.839   6.154  13.906 -1.2122  1.4571 -2.9897
10609TIP3   OH253241   3.933   4.712  12.413 -0.0383  0.0466 -0.2043
10609TIP3    H153242   3.917   4.620  12.433 -0.2925 -0.2834 -1.7692
10609TIP3    H253243   4.020   4.712  12.373 -0.2552  0.3982 -0.6854
10610TIP3   OH253244   1.102   4.839  12.201  0.4277  0.0508 -0.2676
10610TIP3    H153245   1.136   4.821  12.113 -3.0218  1.1520 -2.0309
10610TIP3    H253246   1.070   4.754  12.232  0.9066 -0.1936 -0.4338
10611TIP3   OH253247   5.412   5.963  14.040  0.6896 -0.1623 -0.3053
10611TIP3    H153248   5.368   5.921  13.966 -1.3113  0.5085  0.4296
10611TIP3    H253249   5.412   5.895  14.108 -0.3487  0.2038  0.0836
10612TIP3   OH253250   3.909   1.171   6.101  0.4822 -0.0462 -0.0161
10612TIP3    H153251   3.994   1.159   6.058  0.4937  0.5213 -0.1648
10612TIP3    H253252   3.923   1.245   6.159  0.4045 -0.6789  0.8236
10613TIP3   OH253253   2.133   4.656   5.338 -0.2201 -0.2057  0.3169
10613TIP3    H153254   2.104   4.593   5.272  1.7376  0.8263 -1.6635
10613TIP3    H253255   2.225   4.635   5.354 -0.3837  0.2098  1.9964
10614TIP3   OH253256   6.278   1.807   1.239 -0.3826 -0.0760  0.0595
10614TIP3    H153257   6.291   1.757   1.319  0.8728 -0.3127 -0.2683
10614TIP3    H253258   6.366   1.835   1.214 -0.8822  0.9067 -0.6556
10615TIP3   OH253259   4.843   0.789   5.863  0.0842 -0.1517  0.0784
10615TIP3    H153260   4.884   0.807   5.779  1.6654  2.2135  1.2282
10615TIP3    H253261   4.763   0.742   5.842  0.8776 -0.4279 -2.6478
10616TIP3   OH253262   3.909   0.578  13.893  0.6941  0.0451 -0.1498
10616TIP3    H153263   3.872   0.587  13.806 -0.9274  1.7913  0.6438
10616TIP3    H253264   3.981   0.641  13.895  2.3371 -1.7027 -0.9359
10617TIP3   OH253265   2.811   0.225   2.614  0.0818  0.0027 -0.0952
10617TIP3    H153266   2.778   0.163   2.549 -0.2733 -1.1514  1.1456
10617TIP3    H253267   2.894   0.187   2.643  0.1391  0.4030  0.2652
10618TIP3   OH253268   1.240   1.692  12.718  0.2387  0.1660 -0.1804
10618TIP3    H153269   1.208   1.724  12.802 -0.2814  2.0110 -1.0187
10618TIP3    H253270   1.194   1.609  12.705 -1.6224  1.0727  0.2240
10619TIP3   OH253271   3.408   0.992   5.763  0.2644 -0.0687 -0.4124
10619TIP3    H153272   3.383   1.073   5.807 -2.7303 -1.4630  0.7213
10619TIP3    H253273   3.409   0.927   5.833  0.6332 -1.3955 -1.6053
10620TIP3   OH253274   2.115   3.026  14.860  0.1827  0.1930  0.1626
10620TIP3    H153275   2.157   3.023  14.946 -0.2987  0.3224  0.4039
10620TIP3    H253276   2.025   3.000  14.876  0.2793 -0.5478 -0.4297
10621TIP3   OH253277   6.010   3.718  17.309  0.0194  0.7822 -0.0776
10621TIP3    H153278   5.919   3.704  17.282  0.3245  0.9626 -1.2495
10621TIP3    H253279   6.036   3.798  17.263  0.3344  1.5390  1.3719
10622TIP3   OH253280   4.978   2.929   4.203 -0.5240  0.2385 -0.2910
10622TIP3    H153281   4.903   2.959   4.151  0.0032  1.6326 -0.2714
10622TIP3    H253282   5.052   2.982   4.172  0.4182 -0.9492 -0.1394
10623TIP3   OH253283   0.086   3.936  11.806  0.2707 -0.1320  0.4265
10623TIP3    H153284   0.103   3.996  11.879 -1.7170  2.5981 -1.1631
10623TIP3    H253285   0.163   3.944  11.751  0.2211  0.6398  0.4579
10624TIP3   OH253286   2.935   3.405   5.625 -0.6727 -0.7556  0.0221
10624TIP3    H153287   2.896   3.491   5.640  1.0286 -0.1744  1.5431
10624TIP3    H253288   2.893   3.373   5.545 -3.1826  0.3631  0.7862
10625TIP3   OH253289   6.079   4.904  14.861  0.7059  0.2367 -0.2906
10625TIP3    H153290   6.079   4.811  14.884 -0.1349  0.7900  2.2530
10625TIP3    H253291   5.992   4.920  14.824  0.6707  0.1163 -0.2583
10626TIP3   OH253292   4.058   0.254  12.117 -0.0775 -0.5393  0.7637
10626TIP3    H153293   4.095   0.313  12.184 -0.4821  1.0322 -0.3353
10626TIP3    H253294   4.123   0.255  12.047 -1.3632  0.9038 -0.4693
10627TIP3   OH253295   2.261   5.849   3.968  0.1493 -0.4086  0.0077
10627TIP3    H153296   2.266   5.942   3.944 -0.5561 -0.0439  1.1676
10627TIP3    H253297   2.296   5.802   3.892  0.2515  0.7900 -0.7085
10628TIP3   OH253298   2.351   3.737   5.233 -0.0160 -0.3277  0.4772
10628TIP3    H153299   2.380   3.810   5.179  0.9038  0.2705  1.7439
10628TIP3    H253300   2.430   3.708   5.279 -0.1347 -2.7311 -0.6413
10629TIP3   OH253301   1.767   5.963   3.230 -0.4081  0.3540  0.5507
10629TIP3    H153302   1.780   6.048   3.273 -0.4705 -0.1840  1.6890
10629TIP3    H253303   1.675   5.942   3.248 -0.4077  0.0783  0.2277
10630TIP3   OH253304   5.117   2.863  13.907  0.7955 -0.4125 -0.1694
10630TIP3    H153305   5.154   2.891  13.822 -1.5869  2.8925 -0.3241
10630TIP3    H253306   5.183   2.890  13.971  2.5055 -2.7020 -0.8421
10631TIP3   OH253307   3.710   5.392  16.025 -0.0607  0.3086 -0.0510
10631TIP3    H153308   3.614   5.389  16.034  0.0657  1.0046  2.0884
10631TIP3    H253309   3.734   5.301  16.007 -1.2907  0.5676 -4.0459
10632TIP3   OH253310   6.319   1.766  13.385  0.4438  0.1363  0.1924
10632TIP3    H153311   6.395   1.803  13.431  1.5334 -0.6436 -0.9011
10632TIP3    H253312   6.334   1.790  13.293 -0.5752 -0.1532 -0.0532
10633TIP3   OH253313   0.806   6.714   1.798 -0.0894 -0.3299 -0.1347
10633TIP3    H153314   0.848   6.629   1.782  1.5961 -0.2357  3.0213
10633TIP3    H253315   0.713   6.696   1.797  0.2376 -2.3416  0.8219
10634TIP3   OH253316   0.881   3.239   1.644  0.2754  0.6133  0.1002
10634TIP3    H153317   0.814   3.197   1.697  1.6739 -0.8728  0.7821
10634TIP3    H253318   0.890   3.327   1.681 -1.5745  1.0083 -0.3027
10635TIP3   OH253319   0.735   4.424  11.466 -0.9204  0.0186 -0.4593
10635TIP3    H153320   0.780   4.399  11.547  0.8160 -1.9715 -1.9174
10635TIP3    H253321   0.787   4.496  11.432 -0.1966 -0.7124 -0.9476
10636TIP3   OH253322   4.043   5.501  13.278 -0.3040 -0.5684  0.2785
10636TIP3    H153323   4.102   5.426  13.277  1.4274  0.7426  0.0366
10636TIP3    H253324   4.051   5.538  13.366 -0.6443 -0.2837  0.1930
10637TIP3   OH253325   0.479   0.322  12.305  0.3992 -0.4375 -0.0110
10637TIP3    H153326   0.429   0.404  12.308  1.0860 -0.0150  0.2462
10637TIP3    H253327   0.565   0.349  12.271  0.6044 -1.0663  0.0083
10638TIP3   OH253328   0.120   4.876  16.624 -0.1817  0.3585  0.6535
10638TIP3    H153329   0.106   4.863  16.718  0.6336 -0.0082  0.7351
10638TIP3    H253330   0.202   4.926  16.619 -1.7379  3.0570  0.2370
10639TIP3   OH253331   6.318   1.541   5.679  0.3488  0.2507  0.3288
10639TIP3    H153332   6.297   1.548   5.772 -0.3993  0.6286  0.1390
10639TIP3    H253333   6.382   1.470   5.674 -0.4972 -0.5797  0.9923
10640TIP3   OH253334   6.169   2.726   5.671 -0.2587  0.0321  0.3416
10640TIP3    H153335   6.146   2.641   5.631 -2.6348  1.0745 -0.7034
10640TIP3    H253336   6.159   2.789   5.599  1.0194  1.2937  1.2192
10641TIP3   OH253337   5.900   0.173   3.308 -0.3649 -0.0002  0.0279
10641TIP3    H153338   5.911   0.176   3.403 -1.0020  0.5925  0.0895
10641TIP3    H253339   5.836   0.103   3.294 -0.5440  0.1515  0.0710
10642TIP3   OH253340   6.758   1.107   0.605 -0.1325  0.0982 -0.2966
10642TIP3    H153341   6.765   1.036   0.669 -1.2119  0.1399 -0.1138
10642TIP3    H253342   6.788   1.185   0.651 -1.4510  0.2384  0.3758
10643TIP3   OH253343   5.253   1.621  14.196  0.7931 -0.1366  0.0601
10643TIP3    H153344   5.333   1.596  14.151 -0.4193 -1.9349 -1.2597
10643TIP3    H253345   5.202   1.540  14.201 -1.3491  1.1179 -0.0889
10644TIP3   OH253346   1.077   1.386  12.971 -0.0523 -0.1823  0.0390
10644TIP3    H153347   1.117   1.300  12.962 -0.8738 -0.6660  0.8447
10644TIP3    H253348   1.124   1.426  13.045 -0.0348 -0.1552  0.0134
10645TIP3   OH253349   3.797   1.052   5.721  0.6771  0.4591 -0.8114
10645TIP3    H153350   3.849   1.109   5.778 -0.0945  0.9496 -0.5749
10645TIP3    H253351   3.842   1.055   5.637  1.4138  0.3162 -0.4279
10646TIP3   OH253352   6.591   5.679  16.347  0.0163  0.5853  0.2482
10646TIP3    H153353   6.591   5.601  16.402 -1.0768 -0.5727 -1.3123
10646TIP3    H253354   6.681   5.686  16.315 -0.3048 -1.2854 -1.2267
10647TIP3   OH253355   1.111   0.415   6.484 -0.0861  0.1922 -0.6318
10647TIP3    H153356   1.147   0.428   6.572  0.1383 -1.4232 -0.4641
10647TIP3    H253357   1.123   0.322   6.466 -1.0672  0.2887 -1.9636
10648TIP3   OH253358   5.129   2.416  13.787  0.7555 -0.0779  0.0493
10648TIP3    H153359   5.189   2.342  13.796  0.3578 -0.4303 -0.1858
10648TIP3    H253360   5.187   2.491  13.767  1.0470 -0.6083 -1.2483
10649TIP3   OH253361   2.655   1.819  12.063 -0.0582 -0.0748 -0.5189
10649TIP3    H153362   2.682   1.910  12.050 -0.6949  0.4104  1.2126
10649TIP3    H253363   2.723   1.783  12.121 -1.2504  0.1511  1.0758
10650TIP3   OH253364   4.333   2.756   2.971 -0.4380  0.4024  0.1341
10650TIP3    H153365   4.388   2.801   3.035 -1.0630 -0.2911  1.1772
10650TIP3    H253366   4.267   2.711   3.023 -0.7552 -0.4588 -0.9803
10651TIP3   OH253367   2.486   2.757  16.428  0.5433 -0.3194  0.1185
10651TIP3    H153368   2.525   2.733  16.344 -0.8603  0.8743 -0.9512
10651TIP3    H253369   2.493   2.852  16.432 -2.7415  0.0861 -0.5190
10652TIP3   OH253370   2.460   4.081  13.012  0.5116 -0.2756  0.1589
10652TIP3    H153371   2.425   4.037  13.089  0.0868  0.6535  0.5022
10652TIP3    H253372   2.517   4.015  12.972  1.4471 -0.4852  1.7390
10653TIP3   OH253373   4.382   6.629   0.924  0.8379  0.0801  0.0307
10653TIP3    H153374   4.397   6.697   0.989 -1.5762  1.6020 -0.8430
10653TIP3    H253375   4.351   6.554   0.974 -0.7750  1.1567  0.7374
10654TIP3   OH253376   6.007   1.684  14.185  0.0668 -0.1026 -0.3578
10654TIP3    H153377   6.060   1.695  14.263 -1.8717 -1.9144  1.3427
10654TIP3    H253378   5.965   1.769  14.172  1.7864  0.7590 -0.5916
10655TIP3   OH253379   1.570   0.905   2.538  0.3907 -0.2086  0.0363
10655TIP3    H153380   1.637   0.845   2.571  0.1672 -0.2103  0.4983
10655TIP3    H253381   1.487   0.863   2.561  0.2028  1.0458  1.8720
10656TIP3   OH253382   6.435   4.519  16.754 -0.3922 -0.0770 -0.0782
10656TIP3    H153383   6.382   4.500  16.677 -1.1213 -1.1290  0.6560
10656TIP3    H253384   6.379   4.572  16.810  0.1369  0.6857 -0.2473
10657TIP3   OH253385   6.626   2.880  16.856 -0.2972  0.3227 -0.1225
10657TIP3    H153386   6.602   2.835  16.775 -1.2722 -0.9654  0.8098
10657TIP3    H253387   6.721   2.879  16.858 -0.2732  0.1827 -1.1544
10658TIP3   OH253388   4.320   1.921   0.334  0.4593  0.5126 -0.0270
10658TIP3    H153389   4.340   1.876   0.416  0.2561  0.5726  0.0551
10658TIP3    H253390   4.293   2.009   0.360 -1.9724 -0.1745  0.0371
10659TIP3   OH253391   3.401   4.625   4.676 -0.2023 -0.5148  0.1082
10659TIP3    H153392   3.371   4.572   4.750  0.3994 -0.4240  0.4260
10659TIP3    H253393   3.483   4.664   4.706 -0.4020  0.2365 -0.2918
10660TIP3   OH253394   2.531   5.526   2.302  0.4371  0.1931  0.0945
10660TIP3    H153395   2.489   5.441   2.289  0.1927  0.1668  0.9977
10660TIP3    H253396   2.525   5.542   2.396  1.1806  0.8528  0.0404
10661TIP3   OH253397   2.975   2.461   0.328  0.2423 -0.4165 -0.6783
10661TIP3    H153398   2.892   2.463   0.280 -0.2820 -0.3507  0.1936
10661TIP3    H253399   3.008   2.372   0.318  0.0402 -0.4528 -1.0018
10662TIP3   OH253400   3.719   6.189  13.648  0.3591  0.3657 -0.0514
10662TIP3    H153401   3.778   6.150  13.712 -1.0115  0.8520  1.5875
10662TIP3    H253402   3.652   6.122  13.634 -0.8038  1.2314  1.1074
10663TIP3   OH253403   3.883   1.906  14.015  0.2356  0.8881  0.2222
10663TIP3    H153404   3.963   1.883  13.969 -1.5828  0.5357 -3.0316
10663TIP3    H253405   3.853   1.823  14.053  1.3619  1.0404  1.5493
10664TIP3   OH253406   4.877   0.205  12.727  0.6014 -0.2297  0.0256
10664TIP3    H153407   4.860   0.257  12.805 -0.7401 -0.5320 -0.0406
10664TIP3    H253408   4.827   0.124  12.740 -2.0280  0.8369 -2.3221
10665TIP3   OH253409   6.482   2.491   4.583 -0.6140  0.0979  0.6021
10665TIP3    H153410   6.533   2.551   4.637 -0.5800  0.1315  0.5322
10665TIP3    H253411   6.474   2.412   4.637 -1.6354  0.5670  1.1712
10666TIP3   OH253412   5.903   4.446  12.953  0.4339 -0.0684  0.9083
10666TIP3    H153413   5.852   4.366  12.939 -0.8548  0.6369  1.4236
10666TIP3    H253414   5.847   4.501  13.008  0.4356  1.9788 -0.9928
10667TIP3   OH253415   5.935   3.589  15.641 -0.7517  0.0006 -0.2462
10667TIP3    H153416   5.901   3.678  15.639 -0.3851  0.1268 -0.9329
10667TIP3    H253417   5.859   3.534  15.619 -1.0080  0.1287  0.3102
10668TIP3   OH253418   2.076   3.284   3.715 -0.3147  0.0485 -0.2263
10668TIP3    H153419   2.031   3.263   3.797 -0.6978 -2.6417 -1.0486
10668TIP3    H253420   2.165   3.250   3.728  0.2802  1.5002 -0.2178
10669TIP3   OH253421   4.334   6.193  11.199  0.2810  0.2381  0.3330
10669TIP3    H153422   4.326   6.122  11.135  2.1149  0.9964 -0.8009
10669TIP3    H253423   4.248   6.236  11.198  0.3636  0.4544 -1.9100
10670TIP3   OH253424   1.035   0.716   5.879 -0.4664 -0.1070  0.0235
10670TIP3    H153425   1.075   0.629   5.874  1.6828  0.6368  2.2211
10670TIP3    H253426   0.953   0.702   5.925  0.4673 -0.8883  1.5573
10671TIP3   OH253427   4.815   5.147  16.308  0.4420 -0.4705 -0.4041
10671TIP3    H153428   4.765   5.219  16.271 -1.3875 -1.2019  0.5272
10671TIP3    H253429   4.905   5.163  16.280  0.0768  2.1035 -0.2959
10672TIP3   OH253430   3.614   4.299  11.514 -0.2832 -0.0669  0.3982
10672TIP3    H153431   3.647   4.288  11.425 -0.8258 -0.5088  0.2439
10672TIP3    H253432   3.610   4.210  11.549 -0.9878  0.0103  0.5242
10673TIP3   OH253433   2.852   3.741  14.430  0.6154  0.4578 -0.4911
10673TIP3    H153434   2.795   3.792  14.489  0.7209  0.0963 -0.0675
10673TIP3    H253435   2.791   3.697  14.370  0.3777 -0.5668  0.4671
10674TIP3   OH253436   2.370   4.755   2.884  0.2766 -1.1791 -0.0438
10674TIP3    H153437   2.461   4.758   2.853  0.4562 -0.0617  0.5367
10674TIP3    H253438   2.320   4.724   2.809  0.9182 -0.1619 -0.9190
10675TIP3   OH253439   1.379   3.565  13.209 -0.0385  0.2132  0.0239
10675TIP3    H153440   1.413   3.475  13.214  1.1833  0.6625  0.0864
10675TIP3    H253441   1.457   3.620  13.203 -0.7303  1.3417  0.8717
10676TIP3   OH253442   0.047   4.590  13.373  0.2976 -0.2215 -0.6838
10676TIP3    H153443  -0.021   4.540  13.418 -0.9559  1.5706 -0.4800
10676TIP3    H253444   0.007   4.618  13.291  1.3201 -0.3852 -1.2531
10677TIP3   OH253445   2.886   3.441  14.982 -0.2211  0.0758 -0.0838
10677TIP3    H153446   2.873   3.430  14.888  0.7393 -1.0515 -0.1131
10677TIP3    H253447   2.809   3.401  15.022 -0.2256 -0.2118 -0.3783
10678TIP3   OH253448   5.154   1.267   2.807  0.8833  0.0838  0.3137
10678TIP3    H153449   5.064   1.284   2.836  0.8859  0.4190  0.1234
10678TIP3    H253450   5.171   1.334   2.740  1.6759  0.7660  1.1731
10679TIP3   OH253451   6.168   0.527  11.407  0.0878  0.2206  0.3582
10679TIP3    H153452   6.183   0.563  11.320  0.7093  2.3352  1.2802
10679TIP3    H253453   6.092   0.576  11.441 -0.3345 -0.7750  0.9214
10680TIP3   OH253454   2.453   2.444  13.039 -0.2594 -0.0034  0.4762
10680TIP3    H153455   2.531   2.405  13.078 -0.7977 -1.1780  0.4283
10680TIP3    H253456   2.381   2.410  13.090 -0.9403 -1.1361 -1.1489
10681TIP3   OH253457   0.082   5.622  13.069 -0.4289 -0.0677 -0.2086
10681TIP3    H153458   0.060   5.641  13.160 -0.3803 -0.1201 -0.1861
10681TIP3    H253459   0.150   5.555  13.074  0.2277  0.5876 -0.2629
10682TIP3   OH253460   0.669   1.476   4.931  0.6343  1.2153  0.0479
10682TIP3    H153461   0.659   1.409   4.999 -1.4319 -0.4565 -1.8074
10682TIP3    H253462   0.764   1.491   4.927  0.9416  0.2126  2.1679
10683TIP3   OH253463   4.445   6.216  13.861 -0.2538  0.3701 -0.2719
10683TIP3    H153464   4.496   6.297  13.854  0.7672 -0.1247  0.9474
10683TIP3    H253465   4.362   6.244  13.900 -0.1648  0.9147 -0.4547
10684TIP3   OH253466   0.944   3.401   5.753 -0.4592  0.1236 -0.4689
10684TIP3    H153467   0.874   3.341   5.777  1.7232 -1.9758  1.2001
10684TIP3    H253468   1.005   3.398   5.827  0.1777  3.9244 -0.6044
10685TIP3   OH253469   0.395   2.410   3.555  0.4301 -0.3795 -0.3011
10685TIP3    H153470   0.327   2.343   3.555  1.6052 -1.6237 -1.0204
10685TIP3    H253471   0.382   2.458   3.636 -1.9503  0.1160 -0.9058
10686TIP3   OH253472   6.483   3.043   3.589  0.1245  0.3808 -0.0142
10686TIP3    H153473   6.467   2.957   3.549  2.5414  0.0900 -0.4979
10686TIP3    H253474   6.512   3.023   3.678 -0.7655  0.8225  0.4000
10687TIP3   OH253475   0.865   3.522   0.571  0.3116  0.2508 -0.4811
10687TIP3    H153476   0.773   3.520   0.545  0.1668 -2.3011 -0.0843
10687TIP3    H253477   0.879   3.436   0.612  3.0716  0.2266 -1.3063
10688TIP3   OH253478   6.096   3.924   5.734  0.2777 -0.4289  0.3001
10688TIP3    H153479   6.116   3.864   5.806 -0.8571 -1.0038  0.1590
10688TIP3    H253480   6.038   3.874   5.677 -1.0635  0.9620  0.3965
10689TIP3   OH253481   6.627   3.286   2.589  0.1825  0.2568 -0.3429
10689TIP3    H153482   6.661   3.230   2.659 -2.0947  0.3143  0.8954
10689TIP3    H253483   6.700   3.295   2.528  1.9831 -0.5161  1.5809
10690TIP3   OH253484   3.106   4.958  12.908  0.1980 -0.2266 -0.1809
10690TIP3    H153485   3.186   4.954  12.962 -0.3736 -1.0949  0.6250
10690TIP3    H253486   3.039   4.915  12.961 -1.3356  2.2667  0.0487
10691TIP3   OH253487   6.595   1.184  11.863 -0.2190  0.1550  0.5506
10691TIP3    H153488   6.563   1.132  11.788 -1.0330  0.2684  0.8129
10691TIP3    H253489   6.671   1.230  11.829 -1.1147  0.9120 -0.4819
10692TIP3   OH253490   3.888   2.300   1.412  0.3107 -0.2839 -0.0025
10692TIP3    H153491   3.953   2.253   1.464  0.0760 -0.6680 -0.0532
10692TIP3    H253492   3.859   2.237   1.346  0.2995  0.0657 -0.3371
10693TIP3   OH253493   5.266   3.115  17.051 -0.1569 -0.3759  0.5112
10693TIP3    H153494   5.242   3.208  17.056 -1.3463 -0.6612  0.2079
10693TIP3    H253495   5.308   3.106  16.966 -0.5810 -0.2336  0.2825
10694TIP3   OH253496   5.373   1.186   1.545 -0.6818  0.3263 -0.2788
10694TIP3    H153497   5.308   1.257   1.544 -2.5170 -1.2770 -0.1442
10694TIP3    H253498   5.417   1.193   1.460 -0.7551  1.6670 -0.2266
10695TIP3   OH253499   0.291   6.544   5.079  0.1373 -0.1975 -0.2975
10695TIP3    H153500   0.249   6.626   5.054 -0.6156 -0.2758  0.6547
10695TIP3    H253501   0.290   6.491   4.999 -2.7459 -0.6855 -0.0408
10696TIP3   OH253502   0.958   1.403  16.020 -0.2068  0.4117 -0.0924
10696TIP3    H153503   1.053   1.411  16.021 -0.2527  1.0802 -0.4935
10696TIP3    H253504   0.938   1.357  15.938 -0.1894 -0.3277  0.3154
10697TIP3   OH253505   3.922   4.057  16.628 -0.2758  0.3214 -0.3355
10697TIP3    H153506   3.989   4.014  16.575 -0.8701  1.7536 -2.3958
10697TIP3    H253507   3.869   3.985  16.663  0.1302 -0.7109 -1.7510
10698TIP3   OH253508   0.222   4.414  11.262  0.0266  0.4683 -0.5761
10698TIP3    H153509   0.139   4.394  11.220 -0.8424  3.3122 -0.4405
10698TIP3    H253510   0.274   4.456  11.194  0.6866  0.2798 -0.1990
10699TIP3   OH253511   1.369   5.180  14.281 -0.1386  0.3184 -0.0982
10699TIP3    H153512   1.446   5.230  14.309  0.4875 -1.0154  0.6975
10699TIP3    H253513   1.370   5.102  14.337 -2.1460  0.3096 -0.0115
10700TIP3   OH253514   1.223   4.556  14.526  0.3327 -0.0369 -0.0655
10700TIP3    H153515   1.316   4.579  14.514  0.2769  0.5185  0.4774
10700TIP3    H253516   1.224   4.487  14.593  0.6501 -3.1896 -3.0499
10701TIP3   OH253517   6.595   4.362  11.400 -0.4962 -0.2223  0.5556
10701TIP3    H153518   6.663   4.427  11.420 -0.2090  0.2249 -1.6086
10701TIP3    H253519   6.551   4.346  11.483  2.0644 -0.3116  1.9888
10702TIP3   OH253520   0.146   5.244   3.037 -0.0516 -0.1710  0.5588
10702TIP3    H153521   0.213   5.201   2.985 -1.7784 -0.5430 -1.5089
10702TIP3    H253522   0.192   5.315   3.082  1.5568  0.2605 -1.5852
10703TIP3   OH253523   0.814   2.887   0.725 -0.7559 -0.3674  0.2615
10703TIP3    H153524   0.907   2.911   0.717 -0.3362 -2.2678 -1.3411
10703TIP3    H253525   0.811   2.832   0.803 -0.7778  0.5741  0.9499
10704TIP3   OH253526   6.241   4.417  17.174  0.1668 -0.5810 -0.3914
10704TIP3    H153527   6.218   4.510  17.171  0.1603 -0.5924 -0.6540
10704TIP3    H253528   6.308   4.412  17.242 -1.3848 -0.7093  1.2224
10705TIP3   OH253529   3.068   1.532   0.122  0.1128 -0.1896  0.1669
10705TIP3    H153530   3.009   1.456   0.126 -1.0152  0.5860 -0.8379
10705TIP3    H253531   3.099   1.533   0.031 -1.1558  1.4142 -0.3127
10706TIP3   OH253532   4.515   6.397   1.354 -0.4127  0.4956 -0.1373
10706TIP3    H153533   4.610   6.411   1.348 -0.1566  0.0144  2.0120
10706TIP3    H253534   4.501   6.314   1.307  0.5385 -0.3425  0.9788
10707TIP3   OH253535   3.054   5.238   5.406  0.1016 -0.6075 -0.1885
10707TIP3    H153536   3.115   5.255   5.479 -0.3177 -0.9618  0.2501
10707TIP3    H253537   3.082   5.299   5.338  1.3345 -1.1654 -0.2200
10708TIP3   OH253538   6.418   6.145  12.550 -0.0978  0.0166 -0.0584
10708TIP3    H153539   6.380   6.059  12.567 -0.4333  0.3610  0.9992
10708TIP3    H253540   6.481   6.130  12.480  0.6173 -1.3049  0.8319
10709TIP3   OH253541   2.960   1.383   0.980 -0.2025  0.0704  0.6839
10709TIP3    H153542   3.005   1.307   0.943 -1.3545 -0.5344  0.4658
10709TIP3    H253543   2.992   1.458   0.928 -0.6186 -0.5499 -0.5133
10710TIP3   OH253544   3.165   3.993   5.386  0.4324 -0.1680  0.3936
10710TIP3    H153545   3.196   4.084   5.382  0.0770  0.0814  2.4934
10710TIP3    H253546   3.210   3.955   5.461 -1.0333 -1.0891  0.8382
10711TIP3   OH253547   2.889   3.412   2.009  0.0219  0.2114 -0.1836
10711TIP3    H153548   2.840   3.344   2.055  0.2127 -0.1626 -0.5297
10711TIP3    H253549   2.943   3.453   2.076 -1.6257  1.4456  0.4797
10712TIP3   OH253550   6.505   3.790   5.600  0.7556 -0.2557  0.7675
10712TIP3    H153551   6.591   3.811   5.635  0.6649 -0.7618  1.3083
10712TIP3    H253552   6.504   3.694   5.594 -0.4553 -0.3987  2.5553
10713TIP3   OH253553   5.239   5.550  16.516 -0.1956 -0.2642 -0.1478
10713TIP3    H153554   5.184   5.485  16.472 -2.2383  0.9016  0.5772
10713TIP3    H253555   5.239   5.523  16.608 -2.1296  1.3922  0.3998
10714TIP3   OH253556   3.611   4.679   4.471  0.7553  0.0512  0.5834
10714TIP3    H153557   3.656   4.763   4.479  1.4497 -0.1308 -1.0332
10714TIP3    H253558   3.524   4.701   4.439  0.7117  0.1853  0.7884
10715TIP3   OH253559   3.046   2.482   3.838  0.4526 -0.2149 -0.3069
10715TIP3    H153560   2.952   2.475   3.850  0.5828 -1.7307  0.1393
10715TIP3    H253561   3.069   2.570   3.867 -0.8396  0.2319 -0.6054
10716TIP3   OH253562   6.168   4.403   3.350 -0.3097 -0.4379 -0.1266
10716TIP3    H153563   6.143   4.312   3.368 -0.9770 -0.3023 -0.3411
10716TIP3    H253564   6.251   4.397   3.303  0.5623 -0.8749  1.4002
10717TIP3   OH253565   5.047   6.317   5.206  0.0386  0.5030  0.4285
10717TIP3    H153566   5.079   6.244   5.259 -0.4970 -0.1047 -0.0833
10717TIP3    H253567   4.963   6.341   5.245 -0.3071  0.1231 -0.0729
10718TIP3   OH253568   0.105   1.773   4.617 -0.3940 -0.4641 -0.0781
10718TIP3    H153569   0.026   1.757   4.668 -1.1808  1.1224 -0.7203
10718TIP3    H253570   0.177   1.767   4.680 -1.1296 -0.8313  0.7402
10719TIP3   OH253571   3.743   5.319   4.446 -0.3075  0.0990  0.6539
10719TIP3    H153572   3.664   5.296   4.396 -0.0609 -0.2021  0.4014
10719TIP3    H253573   3.749   5.414   4.439 -1.2647  0.2473  1.5927
10720TIP3   OH253574   2.316   4.439   6.726  0.5038  0.4068 -0.1533
10720TIP3    H153575   2.348   4.528   6.741 -1.5041  1.4560 -1.6040
10720TIP3    H253576   2.241   4.430   6.785 -0.0036  0.1175 -0.8328
10721TIP3   OH253577   0.907   6.503   0.454 -0.4013 -0.1186  0.1964
10721TIP3    H153578   0.839   6.470   0.514 -0.3771 -0.9529 -0.2251
10721TIP3    H253579   0.923   6.592   0.484 -0.8753 -0.2923  1.0170
10722TIP3   OH253580   0.831   4.160  16.381  0.1958  0.4140 -0.0507
10722TIP3    H153581   0.736   4.173  16.372 -0.0711 -1.3771 -0.2921
10722TIP3    H253582   0.868   4.248  16.376 -1.5370  1.2956  1.2536
10723TIP3   OH253583   3.189   6.259  13.740  0.1404  0.3076  0.1627
10723TIP3    H153584   3.175   6.166  13.754 -0.7578  0.3788 -0.1994
10723TIP3    H253585   3.117   6.286  13.683 -0.0599  1.3839  0.8974
10724TIP3   OH253586   3.378   6.197   1.166 -0.0117 -0.0191 -0.1604
10724TIP3    H153587   3.460   6.223   1.207 -0.5923 -0.4427  1.3059
10724TIP3    H253588   3.392   6.107   1.139 -0.0945 -0.1851  0.3522
10725TIP3   OH253589   1.038   0.178   4.717 -0.1138  0.4421 -0.6091
10725TIP3    H153590   1.066   0.115   4.651 -1.5813  1.2873 -2.1322
10725TIP3    H253591   1.076   0.261   4.688  0.8881  0.4772  0.7564
10726TIP3   OH253592   4.133   6.445   2.851  0.0482  0.4783 -0.0384
10726TIP3    H153593   4.212   6.470   2.898 -1.3138  1.1902  2.0107
10726TIP3    H253594   4.097   6.529   2.821 -0.7788  0.3296  0.5145
10727TIP3   OH253595   3.045   2.623   1.458 -0.2524 -0.0773 -0.5914
10727TIP3    H153596   3.019   2.715   1.456  1.6692  0.6109  1.4982
10727TIP3    H253597   3.095   2.610   1.377 -0.8831  0.5826 -1.0942
10728TIP3   OH253598   5.355   2.961   1.863 -0.1775  0.0224 -0.4734
10728TIP3    H153599   5.355   2.868   1.884 -1.4114  0.1185  0.0489
10728TIP3    H253600   5.282   2.997   1.913  0.4838  1.3381 -0.4002
10729TIP3   OH253601   6.525   4.109   4.858 -0.1321  0.8523 -0.2973
10729TIP3    H153602   6.526   4.043   4.927 -0.4027  0.6655 -0.4680
10729TIP3    H253603   6.603   4.161   4.873  0.0341  0.5491 -0.1028
10730TIP3   OH253604   4.281   4.652  11.537 -0.6435 -0.2178  1.0653
10730TIP3    H153605   4.357   4.696  11.575 -0.7074  1.0023 -0.1254
10730TIP3    H253606   4.206   4.705  11.566 -1.0620 -1.2993  2.0740
10731TIP3   OH253607   6.622   6.503  16.311 -0.1474 -0.0021 -0.3156
10731TIP3    H153608   6.573   6.507  16.229 -2.3444  0.2146  0.9243
10731TIP3    H253609   6.582   6.571  16.365 -0.2030 -1.5444  1.6667
10732TIP3   OH253610   5.186   0.825   2.583 -0.3425 -0.6609  0.4303
10732TIP3    H153611   5.123   0.793   2.648  0.3879 -1.1920  0.8948
10732TIP3    H253612   5.259   0.764   2.589  1.0789  1.0401  1.3055
10733TIP3   OH253613   6.186   0.483  16.462  0.0295 -0.7948 -0.3260
10733TIP3    H153614   6.096   0.452  16.476 -1.2274  1.7286 -2.0773
10733TIP3    H253615   6.187   0.572  16.497  1.9743 -0.8601 -0.0908
10734TIP3   OH253616   4.681   3.148   2.745 -0.5322 -0.1769 -0.2643
10734TIP3    H153617   4.676   3.124   2.652  0.8328 -2.0795  0.1097
10734TIP3    H253618   4.744   3.087   2.782 -0.8719  0.7162  1.8918
10735TIP3   OH253619   3.997   2.656   5.149 -0.2399 -0.3013  0.1724
10735TIP3    H153620   4.077   2.604   5.157  0.5847  0.4642 -2.1705
10735TIP3    H253621   4.027   2.746   5.139 -1.6021  0.5908  3.0402
10736TIP3   OH253622   2.077   1.022   1.318 -0.2220  0.2867  0.0232
10736TIP3    H153623   2.166   1.053   1.302  1.1135 -3.3298 -0.6194
10736TIP3    H253624   2.073   1.005   1.412  0.4169 -1.0880 -0.1718
10737TIP3   OH253625   1.568   2.774   3.257  0.1310  0.3754 -0.1801
10737TIP3    H153626   1.489   2.814   3.220 -0.7393 -1.9188 -0.9517
10737TIP3    H253627   1.540   2.688   3.287  2.2086 -0.2507  0.1374
10738TIP3   OH253628   6.668   2.064  16.116 -0.7252 -0.4057 -0.2140
10738TIP3    H153629   6.732   2.010  16.163  0.6667  2.7401  1.7954
10738TIP3    H253630   6.584   2.041  16.156 -0.1660 -1.0511  0.6339
10739TIP3   OH253631   0.103   0.218  12.607  0.2045 -0.1024  0.2529
10739TIP3    H153632   0.194   0.243  12.588  0.0546 -0.1671 -0.5598
10739TIP3    H253633   0.071   0.181  12.525 -0.5072 -0.2320  0.5891
10740TIP3   OH253634   5.066   2.375   5.779 -0.0324  0.0013  0.3428
10740TIP3    H153635   5.085   2.349   5.869 -0.7288  0.2877  0.5867
10740TIP3    H253636   5.075   2.295   5.728 -0.9275 -0.4704  0.8841
10741TIP3   OH253637   6.110   4.500   3.964 -0.2576 -0.2229  0.6672
10741TIP3    H153638   6.065   4.563   4.019  0.3707  2.2106 -1.4069
10741TIP3    H253639   6.056   4.422   3.967 -1.8554  0.8716  2.2265
10742TIP3   OH253640   4.762   5.586  15.920 -0.5653  0.4962  0.7606
10742TIP3    H153641   4.699   5.520  15.893  0.7969 -0.7732  0.5635
10742TIP3    H253642   4.800   5.552  16.001  1.7530 -0.1166 -0.5061
10743TIP3   OH253643   6.526   2.944  16.353  0.3317  0.0480  0.4664
10743TIP3    H153644   6.618   2.969  16.346 -0.1404  1.7000 -0.2964
10743TIP3    H253645   6.478   3.021  16.324 -1.2984 -0.9106  0.5068
10744TIP3   OH253646   1.149   1.815  13.901  0.2372  0.2599 -0.6985
10744TIP3    H153647   1.194   1.816  13.816 -1.9887  0.3732 -1.9582
10744TIP3    H253648   1.124   1.907  13.915 -0.0838  0.1141 -0.3016
10745TIP3   OH253649   0.795   4.140  13.149 -0.5321 -0.8879 -0.0146
10745TIP3    H153650   0.780   4.224  13.193 -2.0306  0.3609 -2.6660
10745TIP3    H253651   0.856   4.093  13.207  2.2638  2.9133  0.5296
10746TIP3   OH253652   2.402   1.286  12.649 -0.6169  0.7576  0.0176
10746TIP3    H153653   2.462   1.330  12.589 -1.0425  0.6956 -0.4638
10746TIP3    H253654   2.458   1.229  12.702 -0.3509 -0.0821 -1.1251
10747TIP3   OH253655   2.839   0.046   2.931 -0.3046  0.3504  0.0925
10747TIP3    H153656   2.745   0.053   2.944 -0.0610  2.9029  0.9045
10747TIP3    H253657   2.849   0.017   2.841 -1.8573  0.2653 -0.0709
10748TIP3   OH253658   1.558   5.727   2.270  0.2975 -0.0872  0.4877
10748TIP3    H153659   1.609   5.646   2.262 -0.2682 -0.2692 -1.8531
10748TIP3    H253660   1.474   5.707   2.230  0.3372  1.8143 -0.6663
10749TIP3   OH253661   1.422   4.462   4.935 -0.1355 -0.0739  0.0267
10749TIP3    H153662   1.458   4.546   4.908  1.0319 -1.1572 -2.0295
10749TIP3    H253663   1.329   4.469   4.918 -0.0965  0.8913  0.1549
10750TIP3   OH253664   1.269   1.172  13.252  0.4238  0.2602  0.0905
10750TIP3    H153665   1.356   1.148  13.283  0.4613  0.3574  0.0608
10750TIP3    H253666   1.277   1.263  13.224  0.2157  0.3895  0.4453
10751TIP3   OH253667   5.361   6.194  14.608  0.1160 -0.0573  0.0175
10751TIP3    H153668   5.394   6.130  14.671 -2.3749 -1.0119  0.4912
10751TIP3    H253669   5.322   6.142  14.538  0.5568  0.9891 -1.0450
10752TIP3   OH253670   6.221   5.513  14.439  0.1709  0.4862  0.2383
10752TIP3    H153671   6.267   5.429  14.440  1.9645  1.3729 -0.9592
10752TIP3    H253672   6.167   5.512  14.518  0.4762 -1.5894  0.4815
10753TIP3   OH253673   5.784   6.604  17.180  0.3867 -0.6296  0.5810
10753TIP3    H153674   5.753   6.519  17.148  0.8950 -0.8786  0.7338
10753TIP3    H253675   5.723   6.668  17.142  0.3720 -1.0064 -0.0466
10754TIP3   OH253676   4.947   5.116  14.322 -0.2641 -0.5461 -0.1217
10754TIP3    H153677   4.958   5.184  14.389  0.0887 -1.1475  0.4422
10754TIP3    H253678   4.853   5.100  14.320 -0.2935 -0.4030  0.1095
10755TIP3   OH253679   5.301   0.639  16.622 -0.2082  0.0721  0.2806
10755TIP3    H153680   5.284   0.554  16.581  1.5079 -0.4444  0.5705
10755TIP3    H253681   5.371   0.678  16.569  0.7049  0.2267  1.5544
10756TIP3   OH253682   6.112   0.748  15.682 -0.2404 -0.7712  0.4471
10756TIP3    H153683   6.113   0.727  15.588 -1.4325  0.6207  0.0814
10756TIP3    H253684   6.187   0.806  15.695 -1.9925  1.9264 -0.4689
10757TIP3   OH253685   3.894   6.208   0.181 -0.0901 -0.0053  0.0563
10757TIP3    H153686   3.888   6.251   0.096 -0.4926  2.1377  1.1032
10757TIP3    H253687   3.803   6.196   0.208  0.0047 -1.6802 -0.2412
10758TIP3   OH253688   1.619   2.158  17.011 -0.4409  0.0180  0.6138
10758TIP3    H153689   1.664   2.228  16.965  0.2637 -1.0747 -0.4222
10758TIP3    H253690   1.563   2.203  17.075 -0.7086  1.5409 -0.6299
10759TIP3   OH253691   0.396   3.063   0.901 -0.0967 -0.3685 -0.2946
10759TIP3    H153692   0.487   3.092   0.892 -0.0210 -0.4988  0.0201
10759TIP3    H253693   0.376   3.020   0.818  0.3169 -0.8447 -0.1504
10760TIP3   OH253694   5.160   5.291   0.688 -0.2660  0.0778 -0.4729
10760TIP3    H153695   5.069   5.303   0.661 -0.6266  0.6928  0.9197
10760TIP3    H253696   5.172   5.354   0.759  1.6532  0.9541 -1.5090
10761TIP3   OH253697   3.525   1.229  12.025  0.0939 -0.5736 -0.0256
10761TIP3    H153698   3.507   1.145  12.068  0.3756 -1.1381 -0.9705
10761TIP3    H253699   3.580   1.205  11.951  0.7224  0.5360  0.0677
10762TIP3   OH253700   1.016   4.876   2.615 -0.1004 -0.0875  0.2503
10762TIP3    H153701   0.928   4.901   2.587  1.1398  3.3407 -1.1867
10762TIP3    H253702   1.016   4.891   2.709 -0.3736  2.7794 -0.1074
10763TIP3   OH253703   2.737   6.503   1.246 -0.3383 -0.4170  0.9044
10763TIP3    H153704   2.746   6.408   1.259 -1.1659 -0.5848  0.3285
10763TIP3    H253705   2.733   6.513   1.151 -1.8396  0.0297  0.9891
10764TIP3   OH253706   3.762   5.958   5.185 -0.3614  0.4196  0.0801
10764TIP3    H153707   3.710   5.877   5.176  0.2985 -0.0465  0.3997
10764TIP3    H253708   3.848   5.935   5.151  0.5292  0.2738  2.2749
10765TIP3   OH253709   3.097   1.464  15.451 -0.0121 -0.5260  0.1770
10765TIP3    H153710   3.160   1.516  15.403  0.2916 -0.4829  0.6140
10765TIP3    H253711   3.097   1.501  15.539 -0.4572 -0.6902  0.2492
10766TIP3   OH253712   5.462   2.226  13.398 -0.4096  0.6797 -0.7104
10766TIP3    H153713   5.534   2.165  13.414 -0.1403  0.7809 -1.5136
10766TIP3    H253714   5.479   2.262  13.311 -0.7931  1.5974 -0.4173
10767TIP3   OH253715   4.419   0.824   0.323  0.4295  0.7630  0.4917
10767TIP3    H153716   4.337   0.860   0.288  1.2201  1.1549 -1.0913
10767TIP3    H253717   4.451   0.768   0.253  0.0259 -1.8869  2.2954
10768TIP3   OH253718   6.364   3.968  15.910  0.2643 -1.0561  0.2183
10768TIP3    H153719   6.329   3.879  15.916 -0.1331 -0.9198 -0.0554
10768TIP3    H253720   6.303   4.021  15.961 -1.1520 -0.4719 -1.9546
10769TIP3   OH253721   0.948   6.535  17.049 -0.2917  0.0662  0.2721
10769TIP3    H153722   1.019   6.485  17.089 -0.3689 -0.2928 -0.0417
10769TIP3    H253723   0.976   6.626  17.057  0.2660 -0.0811  0.0367
10770TIP3   OH253724   5.993   6.606   6.522 -0.2447 -0.3068  0.4167
10770TIP3    H153725   5.954   6.682   6.566  0.2612 -0.4460  1.1206
10770TIP3    H253726   5.922   6.570   6.469 -0.4823  0.6698  0.0562
10771TIP3   OH253727   2.304   4.065   3.102 -0.1602  0.5575 -0.2807
10771TIP3    H153728   2.212   4.075   3.124 -0.5019 -1.4544 -0.5597
10771TIP3    H253729   2.311   4.094   3.011  0.2890  4.2239  0.7730
10772TIP3   OH253730   5.886   6.197  16.561 -0.2933 -0.0989 -0.8843
10772TIP3    H153731   5.954   6.252  16.520 -1.0369  0.6055 -1.1900
10772TIP3    H253732   5.861   6.136  16.491  1.7104 -2.0031 -0.0663
10773TIP3   OH253733   4.548   5.994  13.219  0.2797 -0.5161  0.9213
10773TIP3    H153734   4.548   5.908  13.177  1.0530 -0.2715  0.3817
10773TIP3    H253735   4.548   6.055  13.145  0.4132 -0.0624  1.2963
10774TIP3   OH253736   1.931   3.248  12.680  0.0521 -0.0459  0.2044
10774TIP3    H153737   2.007   3.229  12.625 -0.3421 -1.0284 -0.0242
10774TIP3    H253738   1.891   3.162  12.696 -0.2773  0.3171  1.3884
10775TIP3   OH253739   2.049   0.514   1.127 -0.1812 -0.2067 -1.1353
10775TIP3    H153740   2.124   0.471   1.168  0.1532  0.5835 -0.8988
10775TIP3    H253741   1.976   0.452   1.139  0.0419 -0.2469  0.1370
10776TIP3   OH253742   1.456   3.147  10.941 -0.6549  0.0741 -0.5087
10776TIP3    H153743   1.547   3.131  10.966 -1.1348 -0.2147  1.1452
10776TIP3    H253744   1.415   3.060  10.943 -1.0326  0.2334 -1.0208
10777TIP3   OH253745   0.018   1.344  12.057 -0.1079 -0.4654  0.6216
10777TIP3    H153746   0.101   1.389  12.071 -0.1521 -0.2888  0.3207
10777TIP3    H253747   0.043   1.255  12.030 -0.0017 -0.1803 -0.2670
10778TIP3   OH253748   3.475   3.379  17.384  0.5265 -0.3888 -0.4822
10778TIP3    H153749   3.493   3.443  17.315 -0.0421  0.3575  0.0433
10778TIP3    H253750   3.387   3.348  17.366  1.0861 -1.6237 -1.1831
10779TIP3   OH253751   1.740   1.250   3.641  0.0714 -0.2814  1.0768
10779TIP3    H153752   1.761   1.241   3.548  1.4919 -1.3697  1.4667
10779TIP3    H253753   1.707   1.339   3.649  0.7660  0.1423 -0.3270
10780TIP3   OH253754   4.932   1.768   1.500  0.0897 -0.1439 -0.1116
10780TIP3    H153755   4.890   1.829   1.561 -0.5424  1.3504 -1.9297
10780TIP3    H253756   4.866   1.753   1.432  1.0461 -1.0998 -0.8663
10781TIP3   OH253757   5.461   5.443   1.996 -0.4359  0.2937  0.1564
10781TIP3    H153758   5.400   5.376   2.025 -0.1723 -1.5961 -3.1289
10781TIP3    H253759   5.543   5.422   2.041 -1.5186  1.5722  2.9534
10782TIP3   OH253760   5.726   1.700   0.087  0.0254  0.1026 -0.1217
10782TIP3    H153761   5.689   1.777   0.130 -1.5004 -0.9091  0.4505
10782TIP3    H253762   5.805   1.680   0.138  0.1736  0.9942  0.0135
10783TIP3   OH253763   0.418   0.305   2.315  0.0622 -0.4716  0.2700
10783TIP3    H153764   0.507   0.318   2.282 -0.5351 -0.5910 -1.5132
10783TIP3    H253765   0.375   0.252   2.248 -1.0673 -1.3177  1.5998
10784TIP3   OH253766   4.776   6.253  12.692 -0.1274  0.1350 -0.7363
10784TIP3    H153767   4.783   6.349  12.687  0.3714  0.2537  1.4674
10784TIP3    H253768   4.697   6.233  12.642 -1.6119  1.9504  0.7385
10785TIP3   OH253769   0.132   3.364  16.722 -0.0217  0.4862 -0.3109
10785TIP3    H153770   0.094   3.305  16.786 -1.9908  2.3491  0.3329
10785TIP3    H253771   0.226   3.361  16.740 -0.3450 -0.3835  1.4620
10786TIP3   OH253772   5.459   3.880   3.421 -0.0141  0.1327  0.0737
10786TIP3    H153773   5.409   3.866   3.502  0.2740  0.5864  0.3342
10786TIP3    H253774   5.520   3.950   3.443 -0.0757  0.4030 -0.6070
10787TIP3   OH253775   1.176   0.516  16.427 -0.2002 -0.8562 -0.5690
10787TIP3    H153776   1.154   0.607  16.447 -0.9713 -1.0134 -0.6828
10787TIP3    H253777   1.272   0.515  16.420 -0.2364  0.1069 -1.3750
10788TIP3   OH253778   1.801   1.322   0.178  0.4551 -0.1302 -0.3803
10788TIP3    H153779   1.807   1.381   0.254  0.4273 -0.5057 -0.0834
10788TIP3    H253780   1.777   1.379   0.105  0.6463  0.2612 -0.1384
10789TIP3   OH253781   1.399   3.626   3.492 -0.0714  0.1157  0.0322
10789TIP3    H153782   1.397   3.650   3.585 -1.0912 -0.3473  0.1429
10789TIP3    H253783   1.471   3.678   3.456 -0.0571  0.7682  0.9510
10790TIP3   OH253784   4.828   3.285   2.324 -0.5478 -0.5020  0.6499
10790TIP3    H153785   4.759   3.221   2.340  1.0661 -2.4311  0.2297
10790TIP3    H253786   4.898   3.262   2.385  0.2835  0.5459  0.1396
10791TIP3   OH253787   0.053   0.344   2.199 -0.1978  0.3415  0.1169
10791TIP3    H153788   0.005   0.268   2.165  3.2826 -1.4002 -1.4396
10791TIP3    H253789   0.129   0.352   2.141  1.3006  3.0210  2.2226
10792TIP3   OH253790   4.691   4.979   3.956 -0.5221  0.3225  0.0091
10792TIP3    H153791   4.679   5.072   3.972  2.0673  0.9642 -1.3092
10792TIP3    H253792   4.606   4.949   3.923 -0.3137  3.2900 -3.9049
10793TIP3   OH253793   0.874   3.194  14.635  0.6466 -0.3831  0.2429
10793TIP3    H153794   0.834   3.171  14.551  0.2689  0.2496  0.2434
10793TIP3    H253795   0.826   3.143  14.700  0.8425 -0.7634  0.0888
10794TIP3   OH253796   2.951   3.576   0.826  1.3267  0.3553 -0.2977
10794TIP3    H153797   3.016   3.646   0.822  1.0815  0.5473 -0.9115
10794TIP3    H253798   3.002   3.499   0.852  1.3864  0.9967  1.6409
10795TIP3   OH253799   4.973   2.812  14.473  0.2728 -0.0799  0.0260
10795TIP3    H153800   4.896   2.849  14.516 -0.6479 -0.7074 -1.0269
10795TIP3    H253801   4.940   2.735  14.427  1.4113 -0.0016 -0.9716
10796TIP3   OH253802   4.766   4.174  14.613 -0.1363  0.4673 -0.1606
10796TIP3    H153803   4.738   4.208  14.698  0.2418 -0.4287  0.3317
10796TIP3    H253804   4.835   4.235  14.585  1.3604 -0.4953  1.2645
10797TIP3   OH253805   2.457   4.135  10.596  0.0433 -0.1001  0.2135
10797TIP3    H153806   2.479   4.164  10.684  0.7774  1.0724 -0.3260
10797TIP3    H253807   2.365   4.162  10.583  1.0328  3.3748 -0.7175
10798TIP3   OH253808   5.632   6.631   4.362  0.9185  0.2290 -0.5183
10798TIP3    H153809   5.614   6.640   4.268  0.6502  0.2994 -0.4604
10798TIP3    H253810   5.598   6.711   4.401  1.1001  0.2337 -0.3700
10799TIP3   OH253811   2.824   5.557   1.958 -0.0508 -0.1348 -0.2800
10799TIP3    H153812   2.742   5.510   1.972  0.1627 -0.7604 -1.0570
10799TIP3    H253813   2.827   5.621   2.029 -0.9283 -0.4892  0.0952
10800TIP3   OH253814   5.886   3.639  16.675  0.3516  0.0694 -0.1786
10800TIP3    H153815   5.843   3.571  16.622  0.3958 -0.3720  0.3476
10800TIP3    H253816   5.870   3.719  16.626  0.2433 -0.3070 -0.7797
10801TIP3   OH253817   0.041   1.473   5.782 -0.4893 -0.2297  0.1649
10801TIP3    H153818  -0.039   1.430   5.751  0.4186 -1.1489 -0.9577
10801TIP3    H253819   0.089   1.405   5.828 -0.2486  0.2803  0.6924
10802TIP3   OH253820   3.108   3.636  10.763 -0.1618 -0.1886  0.1168
10802TIP3    H153821   3.039   3.570  10.766 -0.8636  0.5600  1.7362
10802TIP3    H253822   3.189   3.586  10.765 -0.6226 -1.0806 -1.7479
10803TIP3   OH253823   1.426   2.952  16.468  0.0014 -0.4879 -0.0388
10803TIP3    H153824   1.337   2.917  16.460  0.0113 -0.6746  0.6221
10803TIP3    H253825   1.443   2.953  16.562  0.2119  0.7771 -0.0787
10804TIP3   OH253826   5.309   6.366   3.317  0.1179 -0.3258  0.3531
10804TIP3    H153827   5.354   6.283   3.331  0.2454 -0.5419 -1.1540
10804TIP3    H253828   5.377   6.425   3.284 -0.2916 -0.0957 -0.1027
10805TIP3   OH253829   3.222   2.844   0.601  0.2408 -0.1567  0.3835
10805TIP3    H153830   3.300   2.788   0.604  0.0639 -0.4464 -0.2019
10805TIP3    H253831   3.235   2.907   0.672 -0.1290 -1.6865  1.8887
10806TIP3   OH253832   3.265   1.792  12.609  0.3635  0.1315 -0.2014
10806TIP3    H153833   3.171   1.777  12.600  0.3795 -0.2097  0.2147
10806TIP3    H253834   3.293   1.818  12.521  0.1394 -1.1749 -0.6723
10807TIP3   OH253835   3.108   0.042   3.704 -0.2197 -0.0352 -0.2249
10807TIP3    H153836   3.184   0.084   3.665 -0.7830  0.5963 -0.6697
10807TIP3    H253837   3.134  -0.050   3.714 -0.1621 -0.3245 -2.4426
10808TIP3   OH253838   0.052   4.831   1.039 -0.1084  0.2032  0.1434
10808TIP3    H153839  -0.003   4.889   0.988 -0.3414  1.7579  2.0401
10808TIP3    H253840   0.059   4.873   1.125  0.9505 -1.8336  1.1481
10809TIP3   OH253841   6.390   4.412   4.013 -0.0341  0.4377  0.6931
10809TIP3    H153842   6.302   4.424   3.977  0.2701 -0.0456 -0.2515
10809TIP3    H253843   6.441   4.485   3.977  0.2341  0.0369  0.2352
10810TIP3   OH253844   2.807   3.956   6.513 -0.3315  0.3934  0.1014
10810TIP3    H153845   2.767   4.006   6.443  0.2486  0.5323 -0.1338
10810TIP3    H253846   2.822   4.020   6.583 -0.6400  0.3135  0.2441
10811TIP3   OH253847   4.356   2.642  14.541 -0.7361  0.8690 -1.2920
10811TIP3    H153848   4.286   2.579  14.523  0.3156 -0.7479  0.0285
10811TIP3    H253849   4.421   2.593  14.590 -0.2265  3.2205  0.5839
10812TIP3   OH253850   2.513   5.355  17.128 -0.2172  0.0841  0.2483
10812TIP3    H153851   2.505   5.374  17.221  0.7694  1.5375  0.0751
10812TIP3    H253852   2.447   5.410  17.086 -0.8315 -0.7521  0.0783
10813TIP3   OH253853   5.371   0.898   2.910  0.4072 -0.3094 -0.3069
10813TIP3    H153854   5.285   0.938   2.895  0.8628  0.4823 -0.8505
10813TIP3    H253855   5.373   0.823   2.851  0.3620  0.0784 -0.8096
10814TIP3   OH253856   4.833   0.357  12.001 -0.1421 -0.5381 -0.4462
10814TIP3    H153857   4.767   0.360  11.932 -1.1947  0.8353  0.5724
10814TIP3    H253858   4.845   0.448  12.028  1.7679 -0.8139 -0.1932
10815TIP3   OH253859   6.659   4.866  15.160 -0.4779 -0.0236  0.1095
10815TIP3    H153860   6.727   4.801  15.142 -1.9552 -1.3357 -1.1214
10815TIP3    H253861   6.704   4.950  15.154  1.6890 -0.8445  2.5328
10816TIP3   OH253862   3.845   2.079  11.860  0.7991  0.4488  0.0902
10816TIP3    H153863   3.857   2.130  11.780  0.1246 -0.4407 -0.5976
10816TIP3    H253864   3.807   1.997  11.831 -1.2594  0.8067  1.5048
10817TIP3   OH253865   5.113   3.391  13.367 -0.1579 -0.1837  0.3714
10817TIP3    H153866   5.140   3.301  13.386  1.0074  0.2472  0.8243
10817TIP3    H253867   5.117   3.435  13.452 -0.8641  0.2751  0.1789
10818TIP3   OH253868   0.672   4.612   4.036 -0.1030  0.1142 -0.3850
10818TIP3    H153869   0.612   4.591   3.965 -0.2245  0.3695 -0.3577
10818TIP3    H253870   0.757   4.624   3.994 -0.5598  2.3681 -0.7869
10819TIP3   OH253871   5.368   6.201   5.001  0.1075 -0.3761 -0.7677
10819TIP3    H153872   5.442   6.239   4.954  1.2525 -2.0565 -0.4250
10819TIP3    H253873   5.299   6.267   4.996  0.6097  0.0222 -3.6632
10820TIP3   OH253874   0.678   1.821   5.374  0.1951  0.3617  0.4013
10820TIP3    H153875   0.582   1.821   5.373  0.1869  1.2925 -0.2240
10820TIP3    H253876   0.701   1.858   5.460  0.0056 -0.3811  0.7783
10821TIP3   OH253877   0.277   6.258   1.234  0.2412 -0.3292 -0.2192
10821TIP3    H153878   0.206   6.205   1.271 -1.7076  2.3710  0.1412
10821TIP3    H253879   0.274   6.340   1.283  3.4553  0.0557 -0.4426
10822TIP3   OH253880   1.930   2.997  15.192  0.6413 -0.0061 -0.6132
10822TIP3    H153881   1.911   3.012  15.285 -0.2884 -1.0477 -0.6049
10822TIP3    H253882   2.025   3.006  15.185  0.8444 -0.8473  0.6337
10823TIP3   OH253883   4.214   4.678   4.249  0.0090 -0.0069  0.3073
10823TIP3    H153884   4.192   4.664   4.157  0.0821 -1.4396  0.4720
10823TIP3    H253885   4.250   4.766   4.253  0.9592 -0.2922 -1.2363
10824TIP3   OH253886   2.858   1.723  13.147  0.6430  0.3386  0.1679
10824TIP3    H153887   2.796   1.733  13.219 -0.9664 -1.7610 -0.8187
10824TIP3    H253888   2.853   1.805  13.099  0.6483  1.2011  1.5809
10825TIP3   OH253889   3.221   3.361   1.251  0.1435 -0.0944  0.1167
10825TIP3    H153890   3.261   3.382   1.336  1.5086 -0.8122 -0.3047
10825TIP3    H253891   3.181   3.275   1.264 -1.4199  0.6756  0.5701
10826TIP3   OH253892   0.602   2.757   5.057  0.0930 -0.2056  0.1525
10826TIP3    H153893   0.662   2.682   5.053 -1.8225 -1.8088 -0.1457
10826TIP3    H253894   0.598   2.779   5.150 -1.2936 -2.2757  0.6712
10827TIP3   OH253895   3.257   2.637  16.683 -0.9999 -0.4461 -0.0295
10827TIP3    H153896   3.197   2.626  16.757 -0.9132  0.0747  0.1236
10827TIP3    H253897   3.213   2.594  16.610 -1.8535  0.4615 -0.0734
10828TIP3   OH253898   1.587   2.746  13.338 -0.7838 -0.1149 -0.2747
10828TIP3    H153899   1.586   2.672  13.278  0.6266 -1.0342  0.7527
10828TIP3    H253900   1.672   2.788  13.322 -0.4424 -0.2907  0.9233
10829TIP3   OH253901   1.277   1.792   0.382 -0.3140 -0.3461  0.0278
10829TIP3    H153902   1.185   1.766   0.384  0.0780 -1.9261 -1.0869
10829TIP3    H253903   1.316   1.740   0.312  1.6386 -0.3999  1.0776
10830TIP3   OH253904   1.017   5.795  15.000  0.0252 -0.1792 -0.1527
10830TIP3    H153905   1.006   5.879  14.956  1.8552  1.0379  1.5057
10830TIP3    H253906   1.098   5.759  14.963  1.1688  0.5074  1.5438
10831TIP3   OH253907   5.511   6.735   6.414 -0.0336  0.3857  0.4689
10831TIP3    H153908   5.524   6.641   6.410  0.9093  0.5006  0.6839
10831TIP3    H253909   5.418   6.747   6.394  0.0168 -0.5244 -0.3568
10832TIP3   OH253910   5.662   3.501   1.384 -0.3474 -0.3704 -0.2537
10832TIP3    H153911   5.719   3.456   1.322  0.2669  1.3754 -1.0158
10832TIP3    H253912   5.600   3.433   1.413  0.7979 -1.7898 -0.9869
10833TIP3   OH253913   4.761   1.124  12.579  0.1040 -0.5064 -0.1841
10833TIP3    H153914   4.678   1.172  12.576  0.9322  0.9553 -0.5428
10833TIP3    H253915   4.763   1.085  12.667  0.0629  1.3612  0.6884
10834TIP3   OH253916   4.689   1.909   3.548 -0.3347 -0.3497 -0.9630
10834TIP3    H153917   4.600   1.907   3.582  0.1048  0.7240  0.3345
10834TIP3    H253918   4.722   1.820   3.561 -0.0475  0.0925  1.9128
10835TIP3   OH253919   3.420   6.088  10.783  0.0580  0.0679 -0.0040
10835TIP3    H153920   3.422   6.026  10.710 -1.2513  0.3559 -0.2978
10835TIP3    H253921   3.366   6.161  10.752  0.5997  0.8160  0.7676
10836TIP3   OH253922   4.152   6.504  13.102 -0.7619 -0.7302  0.4584
10836TIP3    H153923   4.124   6.471  13.188 -2.4255 -1.3602 -0.2828
10836TIP3    H253924   4.156   6.599  13.114  0.0904 -0.8703  1.5054
10837TIP3   OH253925   5.835   3.410  14.325 -0.6429 -0.1088  0.6785
10837TIP3    H153926   5.885   3.368  14.255 -2.2069 -3.2514  1.2308
10837TIP3    H253927   5.743   3.399  14.298 -1.2144 -0.0400  2.4632
10838TIP3   OH253928   2.541   6.638   3.596  0.2547  0.1775 -0.2545
10838TIP3    H153929   2.512   6.712   3.649  0.9846  1.4216 -1.5116
10838TIP3    H253930   2.460   6.595   3.569 -0.1284 -1.3596  2.9044
10839TIP3   OH253931   6.627   1.294   4.314  0.6536 -0.0287  0.0989
10839TIP3    H153932   6.711   1.265   4.278 -0.1352 -1.1362 -0.9558
10839TIP3    H253933   6.645   1.380   4.351  2.0132  0.2607 -1.1205
10840TIP3   OH253934   3.817   4.969  16.461  0.0704 -0.0126 -0.1079
10840TIP3    H153935   3.782   4.893  16.507  0.9150 -0.8949 -0.8877
10840TIP3    H253936   3.758   5.041  16.486 -0.0810 -0.6652  1.5288
10841TIP3   OH253937   5.046   1.758  13.000 -1.0127  0.0411 -0.7060
10841TIP3    H153938   4.959   1.717  13.007 -0.9251 -0.0983 -0.4176
10841TIP3    H253939   5.033   1.830  12.938 -1.2111 -0.3058 -1.0791
10842TIP3   OH253940   1.656   4.533   5.960 -0.1404 -0.3030  0.0933
10842TIP3    H153941   1.704   4.513   6.041 -1.6080 -1.8289  0.6540
10842TIP3    H253942   1.720   4.519   5.890  0.7080 -0.5688  0.9059
10843TIP3   OH253943   0.519   5.979   5.662  0.5141 -0.3382  0.1773
10843TIP3    H153944   0.504   5.995   5.755  0.9789 -1.1168  0.3976
10843TIP3    H253945   0.550   6.063   5.628 -0.5941  0.2224  0.5087
10844TIP3   OH253946   2.158   6.710  15.117 -0.4912 -0.1462 -0.0763
10844TIP3    H153947   2.198   6.790  15.154 -0.8985  0.5074 -1.0293
10844TIP3    H253948   2.222   6.679  15.053 -0.0012 -1.0208  0.7969
10845TIP3   OH253949   4.081   4.028  17.014 -0.5399 -0.1865 -0.0678
10845TIP3    H153950   4.075   3.941  16.975 -0.1775  0.2132 -1.0519
10845TIP3    H253951   3.999   4.071  16.990 -1.4643 -0.7956  1.8363
10846TIP3   OH253952   3.070   2.285   2.950 -0.3807  0.0214 -0.1455
10846TIP3    H153953   3.031   2.202   2.925  1.1444 -1.1573  1.1612
10846TIP3    H253954   3.120   2.265   3.029  0.8900  1.9384 -0.3977
10847TIP3   OH253955   2.906   1.867  14.502 -0.4995 -0.7422 -0.1623
10847TIP3    H153956   2.830   1.879  14.445  0.0038 -0.1903 -0.7221
10847TIP3    H253957   2.896   1.935  14.569  0.2806  0.3382 -1.1010
10848TIP3   OH253958   4.580   3.369  16.746 -0.2434 -0.1793 -0.3917
10848TIP3    H153959   4.661   3.349  16.793  0.0652  0.7482 -0.5111
10848TIP3    H253960   4.588   3.462  16.722 -1.5394  0.0560 -0.0017
10849TIP3   OH253961   3.165   0.970  11.364  0.5041  0.7032 -0.1787
10849TIP3    H153962   3.201   1.047  11.319  0.4431  0.6876 -0.2543
10849TIP3    H253963   3.087   0.947  11.313  0.4127  0.7096 -0.0419
10850TIP3   OH253964   6.153   2.684   4.527 -0.1677 -0.0713  0.2374
10850TIP3    H153965   6.196   2.717   4.606 -1.9867  1.2870  0.7247
10850TIP3    H253966   6.158   2.589   4.534  0.9468  0.0424  1.2511
10851TIP3   OH253967   3.978   3.575  12.184 -0.2414 -0.3504  0.2961
10851TIP3    H153968   4.008   3.515  12.252  0.4553  0.2207  0.4945
10851TIP3    H253969   3.929   3.519  12.123 -0.3462 -0.9692  0.9351
10852TIP3   OH253970   4.972   4.083   3.931 -0.1572  0.1625 -0.1803
10852TIP3    H153971   4.922   4.161   3.910 -2.4143 -1.0137  0.4554
10852TIP3    H253972   5.063   4.112   3.936 -0.7703  2.4385 -1.2597
10853TIP3   OH253973   2.681   0.601   3.075 -0.1078  0.2776 -0.1915
10853TIP3    H153974   2.677   0.583   3.169  0.7793 -0.9766 -0.3696
10853TIP3    H253975   2.636   0.685   3.065 -0.1210  0.4882  1.3620
10854TIP3   OH253976   4.147   1.027  14.382 -0.3645 -0.5293  0.2998
10854TIP3    H153977   4.187   0.987  14.305 -0.2783  0.0306  0.0459
10854TIP3    H253978   4.218   1.033  14.446  0.2655  1.3796 -0.4955
10855TIP3   OH253979   4.472   1.904   2.743  0.1369  0.6898 -0.4298
10855TIP3    H153980   4.514   1.824   2.713 -0.5738 -0.1536  0.7592
10855TIP3    H253981   4.524   1.974   2.704  1.5658 -0.3281 -0.4272
10856TIP3   OH253982   2.126   5.939   5.246 -0.5458  0.5100 -0.5092
10856TIP3    H153983   2.214   5.953   5.213 -1.1769  2.0013 -1.6854
10856TIP3    H253984   2.122   5.991   5.327 -0.3033  0.3277 -0.3816
10857TIP3   OH253985   6.375   4.291  12.837 -0.2967  0.1649 -0.3227
10857TIP3    H153986   6.288   4.252  12.827 -1.2140  1.4255  2.0215
10857TIP3    H253987   6.379   4.360  12.771 -0.9835 -0.0389 -0.5832
10858TIP3   OH253988   1.543   6.610  16.350  0.3986 -0.5477 -0.5381
10858TIP3    H153989   1.561   6.694  16.307  3.2439 -1.7338 -1.9094
10858TIP3    H253990   1.467   6.576  16.302 -0.8296  1.1712  0.0621
10859TIP3   OH253991   3.335   6.481   2.956 -0.1806  0.2221 -0.4179
10859TIP3    H153992   3.294   6.473   2.870 -0.1470  0.9407 -0.5051
10859TIP3    H253993   3.344   6.390   2.986 -0.3726 -0.0269 -1.0812
10860TIP3   OH253994   1.184   2.590  12.780 -0.1102 -0.1538  0.7108
10860TIP3    H153995   1.158   2.528  12.711  0.0377 -0.3732  0.8540
10860TIP3    H253996   1.246   2.649  12.736 -0.9659  0.4808  0.3173
10861TIP3   OH253997   2.634   3.702   3.703  0.0162  0.1338  0.3077
10861TIP3    H153998   2.659   3.660   3.786 -1.5823 -2.0380 -0.2094
10861TIP3    H253999   2.584   3.634   3.656 -0.9863  2.0117 -1.5088
10862TIP3   OH254000   4.029   5.294   0.693 -0.5717  0.3312  0.2735
10862TIP3    H154001   4.010   5.331   0.607  0.5951  2.4494  0.8528
10862TIP3    H254002   3.969   5.339   0.753 -1.3827 -1.1275  0.6189
10863TIP3   OH254003   4.253   6.018   4.961 -0.3422  0.1352  0.2035
10863TIP3    H154004   4.318   6.036   4.893  0.2038  0.0876  0.7072
10863TIP3    H254005   4.175   6.066   4.934 -0.1090  0.1633 -0.4257
10864TIP3   OH254006   3.938   2.679   0.461  0.2266 -0.4927 -0.9440
10864TIP3    H154007   3.961   2.655   0.372 -0.2858  0.9609 -1.4954
10864TIP3    H254008   3.855   2.635   0.477  2.5317 -4.8708  0.6742
10865TIP3   OH254009   4.498   4.548  15.250  0.3984  0.5197  0.2122
10865TIP3    H154010   4.416   4.595  15.263 -0.3927 -0.2489 -1.6813
10865TIP3    H254011   4.558   4.613  15.213  0.0683  0.6209 -0.1419
10866TIP3   OH254012   6.306   5.695  12.879 -0.3452  0.3275 -0.4142
10866TIP3    H154013   6.395   5.729  12.879 -0.4967  0.7996  1.0161
10866TIP3    H254014   6.316   5.601  12.862  0.5911  0.0399  1.5176
10867TIP3   OH254015   6.236   3.716   0.679 -0.5578 -0.3172 -0.2432
10867TIP3    H154016   6.278   3.645   0.727  0.7885  0.5252 -0.1165
10867TIP3    H254017   6.227   3.786   0.744 -0.4795  0.1562 -0.7389
10868TIP3   OH254018   2.990   3.302   0.919  0.1957  0.1767  0.2705
10868TIP3    H154019   2.991   3.234   0.986 -1.6357  2.2414  2.5977
10868TIP3    H254020   3.081   3.333   0.914  0.8274 -1.6279 -0.0479
10869TIP3   OH254021   5.891   3.372   4.068  0.1139 -0.4325  0.0105
10869TIP3    H154022   5.812   3.319   4.084  0.5702 -1.1866 -0.1633
10869TIP3    H254023   5.902   3.422   4.149  0.5734 -1.8143  0.8472
10870TIP3   OH254024   2.960   1.923   1.002 -0.2189  0.2715  0.2440
10870TIP3    H154025   2.986   1.949   1.090  0.9844 -0.3578  0.0954
10870TIP3    H254026   2.904   1.847   1.014  1.7826 -1.2607  0.4222
10871TIP3   OH254027   0.754   5.215   3.247 -0.0285  0.0612 -0.9207
10871TIP3    H154028   0.735   5.300   3.285  1.8874  0.3142 -0.4344
10871TIP3    H254029   0.680   5.160   3.273 -1.1826  1.5143 -1.0734
10872TIP3   OH254030   4.388   1.007  12.005 -0.4096 -0.3829 -0.0958
10872TIP3    H154031   4.339   1.011  11.922  0.7579 -1.4952 -0.8751
10872TIP3    H254032   4.419   0.917  12.010 -1.2293 -0.5930  2.0429
10873TIP3   OH254033   4.787   5.655  12.744 -0.2024  0.2518 -0.3516
10873TIP3    H154034   4.794   5.734  12.798 -0.9245  1.0674 -1.4063
10873TIP3    H254035   4.867   5.606  12.761 -0.5583  0.3135  1.7061
10874TIP3   OH254036   0.558   3.719  16.384  0.4562  0.7454 -0.1784
10874TIP3    H154037   0.647   3.687  16.397  1.1508  2.3596 -0.6753
10874TIP3    H254038   0.565   3.814  16.395 -1.8131  0.6749  2.9990
10875TIP3   OH254039   2.511   0.294  15.910 -0.2668 -0.1978  0.0312
10875TIP3    H154040   2.507   0.365  15.847  1.6807 -0.6731 -0.6855
10875TIP3    H254041   2.446   0.318  15.977 -1.9138  0.6419 -1.7622
10876TIP3   OH254042   5.153   6.501  11.632 -0.0682 -0.4707  0.3767
10876TIP3    H154043   5.203   6.449  11.569  2.5572  2.7717 -0.5211
10876TIP3    H254044   5.182   6.470  11.718  2.8805  0.5630 -0.1247
10877TIP3   OH254045   2.425   5.008  12.187 -0.0660 -0.1621 -0.1661
10877TIP3    H154046   2.518   5.023  12.200  0.2375 -0.9381 -1.3165
10877TIP3    H254047   2.383   5.091  12.212  0.8603  0.0061  0.9114
10878TIP3   OH254048   2.672   5.008   2.824  0.1123 -0.2604 -0.0228
10878TIP3    H154049   2.623   4.937   2.784 -0.7866 -0.7107  1.8027
10878TIP3    H254050   2.621   5.087   2.804 -0.7994 -0.5896  0.9472
10879TIP3   OH254051   2.499   1.171   3.826  0.2639 -0.1194 -0.2529
10879TIP3    H154052   2.517   1.086   3.867 -0.6932  0.2714  1.0570
10879TIP3    H254053   2.419   1.156   3.775 -1.0510  0.4259  1.5547
10880TIP3   OH254054   5.372   0.864   6.304 -0.1866 -0.1364 -0.6720
10880TIP3    H154055   5.366   0.937   6.366 -1.6391 -0.3294 -0.5510
10880TIP3    H254056   5.432   0.802   6.345 -0.1222  0.3211 -0.0679
10881TIP3   OH254057   5.990   0.019  12.009 -0.0229  0.3548  0.0879
10881TIP3    H154058   6.067   0.021  11.952 -0.1417 -1.5804 -0.1863
10881TIP3    H254059   6.012  -0.045  12.077 -0.8767  0.7826  0.7939
10882TIP3   OH254060   4.002   5.352   2.217  0.6596 -0.2666  0.1319
10882TIP3    H154061   4.030   5.419   2.154  1.4358 -0.4295  0.2943
10882TIP3    H254062   3.979   5.402   2.295  0.3390 -0.1156 -0.0578
10883TIP3   OH254063   5.877   1.089   1.459 -0.0651  0.2769  0.3862
10883TIP3    H154064   5.882   1.128   1.546  0.2990 -0.4239  0.6886
10883TIP3    H254065   5.945   1.022   1.459  0.3417  0.6822 -0.6554
10884TIP3   OH254066   1.544   2.644   1.403  0.0876  0.3589  0.1728
10884TIP3    H154067   1.638   2.652   1.386 -0.0631  1.1789 -0.2854
10884TIP3    H254068   1.538   2.575   1.469  0.9745 -0.0553 -0.1606
10885TIP3   OH254069   2.125   4.299   2.702 -0.7145  0.3063  0.3098
10885TIP3    H154070   2.202   4.273   2.754  0.1400  0.4493 -0.8486
10885TIP3    H254071   2.064   4.226   2.712  0.3264 -0.6790 -0.2247
10886TIP3   OH254072   0.902   2.094   1.903  0.3370 -0.0930 -0.3784
10886TIP3    H154073   0.991   2.082   1.935  0.2090 -0.4140 -0.1352
10886TIP3    H254074   0.854   2.130   1.978  0.7433  2.1810 -1.1239
10887TIP3   OH254075   5.961   6.587   2.874 -0.2131 -0.3863 -0.1097
10887TIP3    H154076   6.005   6.561   2.793  1.3856  1.5862  0.0624
10887TIP3    H254077   5.914   6.667   2.851 -0.0833 -0.0409  0.8085
10888TIP3   OH254078   6.748   5.435  16.978 -0.3341 -0.6675 -0.3365
10888TIP3    H154079   6.667   5.409  17.022 -0.9052 -0.7626 -1.4310
10888TIP3    H254080   6.746   5.389  16.894  0.8151 -0.6036 -0.4182
10889TIP3   OH254081   3.071   6.398  13.238  0.0541 -0.1020 -0.1083
10889TIP3    H154082   3.106   6.315  13.269 -2.3058 -0.9738  0.4219
10889TIP3    H254083   3.008   6.374  13.170 -0.5983  1.2584 -0.0260
10890TIP3   OH254084   5.374   5.314   5.274 -0.0346 -0.2693 -0.3904
10890TIP3    H154085   5.432   5.378   5.316  1.0045 -0.9104 -0.8195
10890TIP3    H254086   5.431   5.241   5.250 -0.6646 -0.1252 -2.5452
10891TIP3   OH254087   0.179   5.746   0.257 -0.3810  0.5100  0.2233
10891TIP3    H154088   0.161   5.708   0.343  0.7838 -1.8900 -0.5216
10891TIP3    H254089   0.114   5.708   0.199 -0.5439  1.3499 -0.1609
10892TIP3   OH254090   4.969   3.674  12.454 -0.2646  0.5459 -0.4941
10892TIP3    H154091   4.977   3.761  12.492  0.6583  0.1833  0.1853
10892TIP3    H254092   4.963   3.616  12.530  4.1582 -0.4637 -0.6431
10893TIP3   OH254093   5.537   3.905   1.048  0.3940 -0.0358 -0.2870
10893TIP3    H154094   5.543   3.836   1.114 -0.7791 -1.0809 -1.2055
10893TIP3    H254095   5.604   3.882   0.984  0.7809  0.3434 -0.0205
10894TIP3   OH254096   5.967   1.176  14.053  0.4292  0.1920  0.0888
10894TIP3    H154097   5.912   1.163  13.976  1.9753 -1.2166 -0.8211
10894TIP3    H254098   6.044   1.222  14.020  1.0812 -0.3784  0.7921
10895TIP3   OH254099   0.063   2.346  12.108  0.6353  0.4048 -0.4898
10895TIP3    H154100   0.105   2.293  12.175  0.9719  1.4158  0.1230
10895TIP3    H254101  -0.031   2.332  12.122  0.7204 -0.4674 -0.7179
10896TIP3   OH254102   5.678   1.339   2.844  0.1440 -0.0991 -0.2151
10896TIP3    H154103   5.625   1.417   2.858  0.3262 -0.0647  0.3017
10896TIP3    H254104   5.635   1.293   2.772  1.1383  1.4852 -1.9163
10897TIP3   OH254105   4.243   0.907   4.423 -0.1730 -0.6133 -0.5312
10897TIP3    H154106   4.182   0.981   4.419  0.7953  0.1510 -2.9537
10897TIP3    H254107   4.314   0.938   4.479 -0.7132 -0.4855  0.0977
10898TIP3   OH254108   4.703   3.578   1.094  0.1985  0.0217 -0.2634
10898TIP3    H154109   4.735   3.600   1.006  2.6018  1.3155  0.8643
10898TIP3    H254110   4.770   3.520   1.130  0.0889  0.8383  1.3120
10899TIP3   OH254111   6.535   5.973   5.260  0.3151 -0.1457  0.1231
10899TIP3    H154112   6.591   6.011   5.327  0.5062  0.3144 -0.2959
10899TIP3    H254113   6.540   6.034   5.187 -1.7561  0.5874  0.5351
10900TIP3   OH254114   5.665   2.120  14.085 -0.2218  0.0122  0.0255
10900TIP3    H154115   5.594   2.164  14.130  0.7590  1.5920  0.0832
10900TIP3    H254116   5.633   2.109  13.995 -0.9646 -0.3379  0.3238
10901TIP3   OH254117   1.557   1.665   4.120 -0.8335 -0.0349  0.4606
10901TIP3    H154118   1.590   1.720   4.192  0.9862  0.8967 -1.0059
10901TIP3    H254119   1.619   1.592   4.116  0.6309  1.2231 -1.7051
10902TIP3   OH254120   1.917   4.302   1.044 -0.1241 -0.6495 -0.3733
10902TIP3    H154121   1.836   4.251   1.040 -0.5677 -0.0152  0.2444
10902TIP3    H254122   1.908   4.367   0.974  0.4443 -1.4008 -1.1655
10903TIP3   OH254123   1.755   2.422  16.242  0.1190  0.3063 -0.1393
10903TIP3    H154124   1.826   2.463  16.191  0.0326  0.8131  0.1501
10903TIP3    H254125   1.676   2.469  16.217  0.0777  0.5748  0.4827
10904TIP3   OH254126   0.650   1.943  16.981  0.0430  0.6400  0.0322
10904TIP3    H154127   0.634   1.885  17.055  0.5635  1.1172  0.5207
10904TIP3    H254128   0.668   2.028  17.020  0.9738  0.7499 -0.6082
10905TIP3   OH254129   0.793   3.660  12.692 -0.0856  0.1099 -0.4302
10905TIP3    H154130   0.716   3.669  12.749 -0.0844 -2.1492  0.0332
10905TIP3    H254131   0.811   3.749  12.662 -2.4219  0.8233  0.0459
10906TIP3   OH254132   1.164   2.785   4.428  0.1321  1.1565  0.1147
10906TIP3    H154133   1.224   2.724   4.472  0.5693  0.2563 -1.6447
10906TIP3    H254134   1.221   2.856   4.397  0.2835  0.4757 -1.2493
10907TIP3   OH254135   2.627   6.599  13.259 -0.3956 -0.3296  0.3384
10907TIP3    H154136   2.693   6.592  13.327 -0.8463 -1.6537  0.6701
10907TIP3    H254137   2.640   6.686  13.222  1.2811 -0.4113  0.6410
10908TIP3   OH254138   5.000   1.896  17.395 -0.0805  0.2280 -0.0140
10908TIP3    H154139   5.078   1.926  17.442  0.3627 -1.6311  0.5203
10908TIP3    H254140   4.928   1.914  17.455  0.1049  0.5741  0.1133
10909TIP3   OH254141   1.498   4.724   4.868  0.5328  0.7671  0.4277
10909TIP3    H154142   1.513   4.764   4.954 -0.4602  1.7653  0.1650
10909TIP3    H254143   1.583   4.727   4.825  0.3993  3.2981  0.1688
10910TIP3   OH254144   5.676   6.125  11.852  0.0570 -0.2994  0.2959
10910TIP3    H154145   5.633   6.119  11.937 -0.9364  2.7684  0.1251
10910TIP3    H254146   5.753   6.180  11.868 -0.1654  0.3475 -0.7470
10911TIP3   OH254147   4.591   5.950   4.662  0.3875  0.0024 -0.2355
10911TIP3    H154148   4.499   5.955   4.637  0.1329  0.9866  0.8041
10911TIP3    H254149   4.590   5.926   4.755  1.2583 -1.9755 -0.6851
10912TIP3   OH254150   5.863   2.165  17.123 -0.2048  0.2976 -0.1233
10912TIP3    H154151   5.933   2.229  17.132  0.4658 -0.3411 -0.5984
10912TIP3    H254152   5.792   2.197  17.179  0.8953  0.3701  1.2596
10913TIP3   OH254153   5.415   2.640  12.504  0.2647  0.5847 -0.0513
10913TIP3    H154154   5.480   2.571  12.494 -0.7703 -0.6715  1.4386
10913TIP3    H254155   5.384   2.657  12.415 -1.0668 -2.5354 -0.3017
10914TIP3   OH254156   6.413   3.339  12.344 -0.0744 -0.0246  0.0203
10914TIP3    H154157   6.473   3.321  12.272  0.3948  0.1056  0.3717
10914TIP3    H254158   6.347   3.397  12.308  0.8676  1.0773  0.0188
10915TIP3   OH254159   2.571   3.049  12.914  0.2219  0.1884  0.2953
10915TIP3    H154160   2.583   2.999  12.994  4.7203  0.5277  0.0585
10915TIP3    H254161   2.543   3.136  12.944  0.3677 -0.1213  1.3690
10916TIP3   OH254162   4.547   2.688   2.309 -0.1411 -0.2383  0.2316
10916TIP3    H154163   4.466   2.735   2.327  1.3361  2.4629  0.3920
10916TIP3    H254164   4.564   2.637   2.388 -0.8899  0.4387  0.8421
10917TIP3   OH254165   3.191   1.819  16.022  0.1833  0.3681  0.1885
10917TIP3    H154166   3.246   1.847  15.949  1.7197  1.0560  1.5423
10917TIP3    H254167   3.182   1.724  16.010  1.8369  0.2075  0.0266
10918TIP3   OH254168   4.397   2.753   4.773  0.1707  0.2796 -0.1874
10918TIP3    H154169   4.336   2.682   4.751  0.3197  0.1868 -0.3091
10918TIP3    H254170   4.345   2.817   4.821 -1.0208  2.0333 -3.4864
10919TIP3   OH254171   5.078   5.021  17.110  0.4562  0.5254 -0.1400
10919TIP3    H154172   5.056   5.104  17.151 -1.7854  0.4230 -0.9884
10919TIP3    H254173   5.043   5.028  17.021 -2.3068 -2.2260  0.5525
10920TIP3   OH254174   4.721   6.733  13.760  0.1171  0.5355  0.0573
10920TIP3    H154175   4.721   6.794  13.686  0.7280 -1.0311 -1.3015
10920TIP3    H254176   4.686   6.784  13.833 -1.1708  1.9539 -1.4550
10921TIP3   OH254177   3.579   5.265  13.311 -0.4511  0.7357  0.4974
10921TIP3    H154178   3.647   5.303  13.254  0.2347 -0.1207  0.7225
10921TIP3    H254179   3.547   5.339  13.363  1.4923  0.8823  1.5682
10922TIP3   OH254180   6.672   4.026  15.124  0.0044 -0.0542  0.6996
10922TIP3    H154181   6.677   4.089  15.051  1.2929  0.5200  1.2601
10922TIP3    H254182   6.583   3.991  15.118 -0.0349  0.2236 -0.9483
10923TIP3   OH254183   1.440   5.272   4.844 -0.1764  0.0099 -0.0080
10923TIP3    H154184   1.458   5.301   4.933  1.4762  0.9373 -0.6140
10923TIP3    H254185   1.440   5.352   4.792  0.8496 -0.7017 -1.1430
10924TIP3   OH254186   5.853   1.106  16.740  0.1027  0.3141  0.1098
10924TIP3    H154187   5.919   1.155  16.789  1.5155 -0.2249 -1.1724
10924TIP3    H254188   5.796   1.173  16.703  1.0350  0.9196 -0.2721
10925TIP3   OH254189   1.887   5.591  16.605  0.3027  0.6888  0.2815
10925TIP3    H154190   1.925   5.671  16.569 -1.4933  0.8011 -1.5295
10925TIP3    H254191   1.824   5.622  16.670  0.6923  0.6618  0.6768
10926TIP3   OH254192   0.264   1.404  13.656  0.5512 -0.5633 -0.4871
10926TIP3    H154193   0.176   1.409  13.694  1.0128 -2.5519  0.9647
10926TIP3    H254194   0.253   1.348  13.579  0.5105 -0.5725 -0.4753
10927TIP3   OH254195   5.357   6.244   5.575 -0.3979  0.1314 -0.1863
10927TIP3    H154196   5.296   6.283   5.513 -1.1785 -0.9401 -0.1282
10927TIP3    H254197   5.341   6.290   5.658 -2.4703 -1.3259  0.3062
10928TIP3   OH254198   5.627   6.685   0.923 -0.5505  0.0048  0.3763
10928TIP3    H154199   5.684   6.662   0.996  2.8037 -0.2369 -2.0773
10928TIP3    H254200   5.641   6.778   0.909  0.3677 -0.3169 -1.0600
10929TIP3   OH254201   5.403   1.864  10.762  0.3476 -0.0979 -0.2664
10929TIP3    H154202   5.332   1.814  10.723 -0.7641  1.0706  0.1919
10929TIP3    H254203   5.404   1.947  10.713 -0.0604  0.7693  1.1299
10930TIP3   OH254204   4.385   4.345  12.165  0.1664 -0.0112  0.3503
10930TIP3    H154205   4.379   4.274  12.101  0.1683 -0.3499  0.7286
10930TIP3    H254206   4.328   4.319  12.237  0.8648 -0.0549  0.8957
10931TIP3   OH254207   0.286   4.734  11.148 -0.2885  0.0734 -0.3141
10931TIP3    H154208   0.336   4.660  11.113  1.3427  0.6113  0.7857
10931TIP3    H254209   0.349   4.806  11.151 -0.7943  0.4756  2.1848
10932TIP3   OH254210   1.476   1.265  12.359 -0.1837 -0.4997  0.3034
10932TIP3    H154211   1.465   1.195  12.295 -0.9901  0.4760 -0.6624
10932TIP3    H254212   1.422   1.337  12.326  1.1742  0.8453  0.8709
10933TIP3   OH254213   5.416   5.584  13.983  0.1280  0.0292 -0.7503
10933TIP3    H154214   5.497   5.629  13.957  0.2464 -0.5927 -1.4727
10933TIP3    H254215   5.444   5.495  14.005  0.1838  0.7062  2.4340
10934TIP3   OH254216   6.464   2.039  14.012 -0.0034 -0.4664 -0.1884
10934TIP3    H154217   6.508   1.956  13.996  0.4233 -0.0840 -1.0994
10934TIP3    H254218   6.500   2.070  14.094 -0.3811 -1.3127  0.3097
10935TIP3   OH254219   4.545   1.247  11.220 -0.3344  0.0627  0.0391
10935TIP3    H154220   4.460   1.202  11.225  0.7628 -2.1582 -0.2553
10935TIP3    H254221   4.525   1.337  11.243 -2.4299 -0.8452  2.2516
10936TIP3   OH254222   3.867   2.248  12.654 -0.0336 -0.3146  1.2233
10936TIP3    H154223   3.778   2.270  12.682 -0.2324 -0.1928  0.4990
10936TIP3    H254224   3.856   2.180  12.588  0.4253 -0.4641  1.2965
10937TIP3   OH254225   0.288   0.691   0.659 -0.1441  0.4796  0.4732
10937TIP3    H154226   0.255   0.626   0.722 -0.3727 -2.1980 -2.1940
10937TIP3    H254227   0.224   0.691   0.588  1.5998  1.0410 -1.2007
10938TIP3   OH254228   3.082   4.374   1.620  0.0098  0.0074  0.1676
10938TIP3    H154229   3.117   4.290   1.592  1.7449  0.3087  1.2607
10938TIP3    H254230   3.048   4.359   1.708 -0.1626  0.3231  0.1572
10939TIP3   OH254231   4.158   1.871  12.105 -0.1782 -0.4628  0.1911
10939TIP3    H154232   4.238   1.834  12.069 -0.1534 -0.1133 -0.1193
10939TIP3    H254233   4.088   1.825  12.061 -0.1639  0.8278 -1.2693
10940TIP3   OH254234   5.311   2.795   2.280  0.2629  0.0498 -0.4639
10940TIP3    H154235   5.294   2.709   2.240 -1.1840 -0.7176  1.6185
10940TIP3    H254236   5.284   2.858   2.214  0.1233 -1.1130 -1.5651
10941TIP3   OH254237   0.939   2.590   0.777 -0.6115  0.4670 -0.8096
10941TIP3    H154238   1.009   2.608   0.840  1.3739 -0.2596 -2.6821
10941TIP3    H254239   0.889   2.518   0.815  0.1060  0.5126  0.2480
10942TIP3   OH254240   3.384   4.919  13.620  0.0298  0.2704  0.0053
10942TIP3    H154241   3.380   4.967  13.537 -1.3592  1.5859  0.7889
10942TIP3    H254242   3.311   4.857  13.615  1.4443 -1.4171 -0.7411
10943TIP3   OH254243   6.723   2.536   0.063  0.1015  0.0183 -0.4812
10943TIP3    H154244   6.668   2.607   0.030 -0.1777  0.5564  1.0485
10943TIP3    H254245   6.703   2.461   0.006 -0.8088  0.7225 -1.1152
10944TIP3   OH254246   4.808   1.556  15.305 -0.2376 -0.3035  0.0058
10944TIP3    H154247   4.759   1.502  15.366 -1.0026 -0.6940 -0.9234
10944TIP3    H254248   4.863   1.494  15.257  1.6095  0.1817  1.3813
10945TIP3   OH254249   3.354   3.292  13.287 -0.0681  0.0510  0.3556
10945TIP3    H154250   3.356   3.376  13.242  0.8099 -0.9612 -1.5833
10945TIP3    H254251   3.316   3.313  13.373  0.0799  2.3977 -0.0684
10946TIP3   OH254252   4.735   1.173  11.396 -0.2511  0.6044  0.3211
10946TIP3    H154253   4.667   1.206  11.337 -0.4556  0.9789  0.7646
10946TIP3    H254254   4.799   1.244  11.400 -0.6214  0.9048  1.1626
10947TIP3   OH254255   6.204   0.792  16.499 -0.0847  0.2316 -0.4679
10947TIP3    H154256   6.251   0.848  16.439 -1.1372  1.4338 -0.2211
10947TIP3    H254257   6.128   0.761  16.449  0.7484 -1.4351 -0.7703
10948TIP3   OH254258   3.641   3.074   5.886  0.3221  0.1708  0.6705
10948TIP3    H154259   3.705   3.140   5.912  1.6588 -1.3645  1.4209
10948TIP3    H254260   3.693   3.001   5.854 -1.0761 -1.0179  0.9917
10949TIP3   OH254261   6.652   6.190  14.036  0.6957  0.0947  0.2643
10949TIP3    H154262   6.624   6.241  13.960 -1.3320 -0.5869  0.4983
10949TIP3    H254263   6.585   6.207  14.102  1.7819 -0.2748  1.5009
10950TIP3   OH254264   2.214   1.127  13.495 -0.2027 -0.1632  0.0100
10950TIP3    H154265   2.291   1.105  13.443  0.4217  0.0695  0.8140
10950TIP3    H254266   2.162   1.047  13.497  0.4609 -0.6008  0.2028
10951TIP3   OH254267   6.682   0.942  15.169 -0.1960 -0.3303  0.3188
10951TIP3    H154268   6.605   0.987  15.136  0.0082  0.3521  0.7551
10951TIP3    H254269   6.736   1.011  15.208  0.7353 -0.7658 -0.1697
10952TIP3   OH254270   0.245   3.666  12.065  0.2765 -0.0155 -0.2434
10952TIP3    H154271   0.287   3.590  12.106  0.9155  0.8703  0.8085
10952TIP3    H254272   0.316   3.709  12.017 -0.0908 -0.0970 -0.8677
10953TIP3   OH254273   6.613   1.953   3.099 -0.1327 -0.1736  0.1432
10953TIP3    H154274   6.612   1.858   3.091  0.7932 -0.1897  0.2039
10953TIP3    H254275   6.632   1.969   3.191  0.5534  0.0716 -0.0383
10954TIP3   OH254276   4.069   5.477  16.212  0.9262 -0.0327 -0.3438
10954TIP3    H154277   4.089   5.387  16.185  0.2946 -1.0977  2.4256
10954TIP3    H254278   4.052   5.471  16.306 -1.1096  2.6765 -0.4163
10955TIP3   OH254279   5.309   2.734  12.151  0.2624  0.8135 -0.7059
10955TIP3    H154280   5.275   2.808  12.101  1.9520 -0.0118 -3.2682
10955TIP3    H254281   5.399   2.760  12.173  0.0252  0.5466  0.6913
10956TIP3   OH254282   0.826   3.143   0.623  0.2920  0.2090  0.3839
10956TIP3    H154283   0.818   3.052   0.651  2.5691 -0.6572 -1.4263
10956TIP3    H254284   0.793   3.144   0.533  2.8112  0.4476 -0.6314
10957TIP3   OH254285   5.793   4.249   4.960  0.0923 -0.3605  0.4253
10957TIP3    H154286   5.870   4.297   4.928 -0.8862  0.8429 -0.2011
10957TIP3    H254287   5.749   4.310   5.019 -0.2955 -1.1088  0.9313
10958TIP3   OH254288   1.741   1.980  14.624  0.0056  0.4469  0.2653
10958TIP3    H154289   1.699   2.010  14.544 -1.0154  1.5822  1.1841
10958TIP3    H254290   1.758   2.060  14.674  1.0512 -0.1972  0.9944
10959TIP3   OH254291   3.666   3.007   2.816  0.2519  0.0545 -0.0773
10959TIP3    H154292   3.715   3.075   2.770  0.8515  0.4069  1.0487
10959TIP3    H254293   3.731   2.940   2.836 -0.2980 -0.8098 -1.0249
10960TIP3   OH254294   3.438   3.448   1.979  0.0551  0.0099  0.0439
10960TIP3    H154295   3.393   3.367   1.956 -0.2221 -0.0920  0.9036
10960TIP3    H254296   3.525   3.420   2.009 -0.2428 -0.0403  0.9034
10961TIP3   OH254297   5.597   0.845  13.126 -0.1456  0.2681 -0.5293
10961TIP3    H154298   5.600   0.783  13.199  0.5096 -1.3187 -1.8449
10961TIP3    H254299   5.533   0.911  13.154  1.1494  0.5614  2.0946
10962TIP3   OH254300   3.246   3.486  14.468 -0.0377  0.6485  0.3338
10962TIP3    H154301   3.231   3.544  14.543 -0.4283 -0.4012  1.1025
10962TIP3    H254302   3.338   3.500  14.445 -0.2309  1.8553  0.2362
10963TIP3   OH254303   5.596   0.732  13.392 -0.0042 -0.2388  0.3176
10963TIP3    H154304   5.682   0.759  13.424 -0.2303 -0.9275  1.6043
10963TIP3    H254305   5.594   0.637  13.408 -0.0122 -0.7168 -2.1586
10964TIP3   OH254306   0.992   2.202  11.435  0.5140  0.3402  0.1390
10964TIP3    H154307   0.977   2.251  11.355  1.9730 -2.9867 -2.4181
10964TIP3    H254308   0.904   2.184  11.469 -0.1004  2.6141 -0.1077
10965TIP3   OH254309   0.699   1.852   4.045 -0.1607  0.3384  0.1124
10965TIP3    H154310   0.760   1.923   4.066  0.2743  0.0265 -0.0774
10965TIP3    H254311   0.612   1.888   4.065  0.1034  0.6882  0.6595
10966TIP3   OH254312   2.106   1.521   2.547 -0.7738 -0.0253 -0.0832
10966TIP3    H154313   2.134   1.465   2.619 -1.9094 -1.4534 -0.7036
10966TIP3    H254314   2.147   1.606   2.565 -0.1435 -0.6517  1.6304
10967TIP3   OH254315   5.067   4.508   1.140  0.6120  0.1594  0.1968
10967TIP3    H154316   5.102   4.592   1.169  0.9415 -0.1688  0.7664
10967TIP3    H254317   5.144   4.452   1.129  0.3674 -0.1845  0.2060
10968TIP3   OH254318   1.567   1.182   0.212  0.3295  0.4016 -0.2981
10968TIP3    H154319   1.551   1.265   0.256  0.9412  0.0762  0.5675
10968TIP3    H254320   1.647   1.198   0.160  1.3761 -0.0800  1.1080
10969TIP3   OH254321   4.848   1.665  16.805 -0.1269 -0.3739  0.0534
10969TIP3    H154322   4.853   1.570  16.802  0.3295 -0.3356 -1.0311
10969TIP3    H254323   4.927   1.693  16.851 -1.0703 -0.5534  1.8851
10970TIP3   OH254324   3.268   5.107   4.863 -0.5754 -0.3506  0.2432
10970TIP3    H154325   3.239   5.156   4.786 -0.3169 -1.5238 -0.6395
10970TIP3    H254326   3.328   5.166   4.908  0.1018  0.0067 -1.0512
10971TIP3   OH254327   1.580   2.912  11.131  0.1344  0.4486 -0.4579
10971TIP3    H154328   1.632   2.941  11.057 -0.2479 -0.1971 -0.9879
10971TIP3    H254329   1.532   2.836  11.099 -0.8368  0.7843  0.1305
10972TIP3   OH254330   2.476   6.590  16.143  0.2967  0.2746  0.2183
10972TIP3    H154331   2.501   6.666  16.090  1.4194  0.1433  0.5298
10972TIP3    H254332   2.559   6.550  16.168 -0.2676 -1.6908 -0.8221
10973TIP3   OH254333   4.317   4.605   0.390 -0.1421 -0.2936  0.2753
10973TIP3    H154334   4.239   4.653   0.363  0.6164  1.2402  0.7353
10973TIP3    H254335   4.283   4.522   0.424 -1.5878  0.4002  0.5804
10974TIP3   OH254336   1.501   1.352  13.117  0.4298  0.4433  0.5338
10974TIP3    H154337   1.532   1.322  13.032 -0.0170 -1.4847  1.0078
10974TIP3    H254338   1.478   1.444  13.103 -0.5408 -0.0618 -1.6864
10975TIP3   OH254339   3.885   6.559   6.311 -0.1563 -0.0059  0.3906
10975TIP3    H154340   3.823   6.486   6.307 -0.5507  0.3617 -0.4612
10975TIP3    H254341   3.929   6.549   6.396 -1.2756 -0.3500  0.9429
10976TIP3   OH254342   2.589   5.449   4.282  0.2673  0.1133 -0.5302
10976TIP3    H154343   2.568   5.420   4.193 -0.0935 -2.5363  0.3351
10976TIP3    H254344   2.507   5.443   4.330  0.4322  1.6467 -0.0124
10977TIP3   OH254345   5.692   4.865  14.202 -0.0256 -0.2009 -0.4901
10977TIP3    H154346   5.782   4.869  14.167  0.5345 -0.3141  0.8648
10977TIP3    H254347   5.656   4.785  14.166  0.9440 -0.9286  0.1008
10978TIP3   OH254348   4.588   4.771  13.575 -0.5404 -0.4855  0.0284
10978TIP3    H154349   4.627   4.696  13.620 -0.4207 -0.2506  0.3223
10978TIP3    H254350   4.659   4.807  13.522 -0.5935 -0.5707 -0.1010
10979TIP3   OH254351   2.301   2.967   2.710  0.3109 -0.0034 -0.1374
10979TIP3    H154352   2.394   2.977   2.689 -0.0371  1.7131 -1.0896
10979TIP3    H254353   2.283   3.036   2.774 -0.0282 -1.2191  1.1201
10980TIP3   OH254354   4.466   2.419  12.784  0.1454  0.3837  0.0587
10980TIP3    H154355   4.483   2.326  12.791 -0.7502  0.1822 -0.2496
10980TIP3    H254356   4.537   2.453  12.730  1.3213  0.1601  1.4153
10981TIP3   OH254357   1.969   2.945  15.793  0.0179 -0.2822  0.2159
10981TIP3    H154358   2.062   2.958  15.809 -0.3423  1.1503  1.3096
10981TIP3    H254359   1.925   2.987  15.867 -1.5600  1.1438 -1.4288
10982TIP3   OH254360   0.603   2.378   3.363 -0.2631  0.6117  0.6346
10982TIP3    H154361   0.557   2.395   3.445  1.0051  2.5855  1.0042
10982TIP3    H254362   0.651   2.459   3.345  2.0488 -0.8721 -0.3821
10983TIP3   OH254363   6.208   1.696  13.989 -0.2482  0.1253 -0.5790
10983TIP3    H154364   6.140   1.695  14.056  1.1171  0.7394  0.8562
10983TIP3    H254365   6.289   1.715  14.036  0.8300  0.1251 -2.3407
10984TIP3   OH254366   4.987   4.364   3.049  0.3463 -0.5900 -0.9550
10984TIP3    H154367   5.034   4.358   2.966 -1.9932  1.5584 -2.5940
10984TIP3    H254368   4.896   4.344   3.026 -0.3266 -0.1298  1.1245
10985TIP3   OH254369   1.161   2.355   3.486  0.7117 -0.2565 -0.1168
10985TIP3    H154370   1.183   2.424   3.548 -2.8953 -1.6054  3.0030
10985TIP3    H254371   1.236   2.295   3.489  0.6891 -0.2474  2.9651
10986TIP3   OH254372   5.089   3.012  10.808  0.1016  0.0463  0.1847
10986TIP3    H154373   5.005   3.025  10.765  0.1964 -0.1777 -0.0725
10986TIP3    H254374   5.071   3.022  10.901 -0.4776 -1.3541  0.2359
10987TIP3   OH254375   1.022   2.559   5.414  0.4200  0.2773  0.2315
10987TIP3    H154376   1.113   2.569   5.443  0.4588  0.9240 -0.0943
10987TIP3    H254377   0.989   2.484   5.464  1.6807 -1.1711 -1.0292
10988TIP3   OH254378   2.732   5.559   0.974  0.8912 -0.1824 -0.1971
10988TIP3    H154379   2.827   5.552   0.959  1.0457  0.3387  0.4919
10988TIP3    H254380   2.723   5.627   1.041  0.0818 -0.8660  0.4087
10989TIP3   OH254381   4.729   2.300  11.989  0.2341  0.1364  0.1026
10989TIP3    H154382   4.725   2.394  11.973  1.0997  0.3619  1.1157
10989TIP3    H254383   4.759   2.262  11.906 -1.3299  0.5914 -0.7202
10990TIP3   OH254384   2.135   5.151  16.364  0.5121  0.3259  0.1697
10990TIP3    H154385   2.111   5.137  16.455  0.7955  1.1329  0.3737
10990TIP3    H254386   2.231   5.156  16.365  0.4710  1.4284 -0.0021
10991TIP3   OH254387   3.879   4.845   5.785 -0.0553  0.2080 -0.0131
10991TIP3    H154388   3.887   4.765   5.837 -0.0575  0.0101 -0.3135
10991TIP3    H254389   3.806   4.893   5.826  2.0570  1.6857  2.2935
10992TIP3   OH254390   1.645   4.777  13.677  0.1215 -0.7270  0.1410
10992TIP3    H154391   1.664   4.685  13.692  0.3435 -0.6997  0.0368
10992TIP3    H254392   1.660   4.819  13.762  2.4201 -0.4029 -0.3760
10993TIP3   OH254393   0.302   1.590   5.748 -0.5905 -0.0193  0.0996
10993TIP3    H154394   0.207   1.595   5.740 -0.6144 -0.5420  0.0369
10993TIP3    H254395   0.332   1.681   5.743 -1.1045  0.1634  0.3394
10994TIP3   OH254396   0.464   4.800   4.843  0.8522  0.5697  0.4195
10994TIP3    H154397   0.555   4.784   4.868  0.9006  0.3789  0.1230
10994TIP3    H254398   0.422   4.829   4.924  0.5246 -1.9552  1.2167
10995TIP3   OH254399   2.253   3.862   5.481 -0.2781 -0.0909 -0.2381
10995TIP3    H154400   2.277   3.817   5.400  0.3492 -1.2813  0.5787
10995TIP3    H254401   2.157   3.859   5.482 -0.3929  1.5887 -1.8125
10996TIP3   OH254402   6.609   5.207  11.742 -0.1066  0.4651  0.1912
10996TIP3    H154403   6.595   5.302  11.751 -1.4266  0.3341 -0.1836
10996TIP3    H254404   6.703   5.195  11.755 -0.2283  1.5385  2.6694
10997TIP3   OH254405   5.592   5.747   0.437  0.1118 -0.5256  0.4527
10997TIP3    H154406   5.502   5.749   0.470  0.4188  1.2850  1.2748
10997TIP3    H254407   5.582   5.731   0.343 -1.0210 -1.0278  0.6370
10998TIP3   OH254408   3.034   1.011   1.555 -0.2868 -0.0595  0.2861
10998TIP3    H154409   2.991   1.096   1.564  1.9945  1.1238  0.6548
10998TIP3    H254410   3.091   1.004   1.632  1.0602 -1.0048 -0.7502
10999TIP3   OH254411   3.580   5.228   0.694 -0.0124 -0.1867  0.1564
10999TIP3    H154412   3.597   5.158   0.631 -3.0563 -2.1209  1.2046
10999TIP3    H254413   3.642   5.212   0.765 -0.2546 -1.5200  0.0998
11000TIP3   OH254414   6.035   5.875  15.499  0.0416  0.3858 -0.3466
11000TIP3    H154415   5.947   5.898  15.469 -0.6695 -1.3393  0.3174
11000TIP3    H254416   6.062   5.803  15.442  1.2658  1.2268 -0.8730
11001TIP3   OH254417   3.434   1.371   2.180 -0.1867 -0.3288 -0.0844
11001TIP3    H154418   3.508   1.348   2.123 -0.8626 -1.7101 -0.4525
11001TIP3    H254419   3.467   1.444   2.233  1.6375 -1.2506  0.1624
11002TIP3   OH254420   6.571   5.656   4.262 -0.0399  0.5133 -0.1875
11002TIP3    H154421   6.505   5.605   4.214  0.1509 -0.2457  0.3408
11002TIP3    H254422   6.571   5.619   4.350  0.8902  0.6838 -0.1007
11003TIP3   OH254423   3.291   1.305   3.414  0.1968  0.0679 -0.1672
11003TIP3    H154424   3.373   1.274   3.375  0.0161 -0.2035 -0.3315
11003TIP3    H254425   3.265   1.235   3.473 -1.5279 -1.2987 -2.3760
11004TIP3   OH254426   5.447   5.116  15.580 -0.6041 -0.3603 -0.3017
11004TIP3    H154427   5.406   5.190  15.536  0.4277 -0.0653 -0.8057
11004TIP3    H254428   5.479   5.152  15.663 -1.3709 -0.5981  0.1065
11005TIP3   OH254429   6.573   2.586   3.055 -1.0507  0.0917  0.1327
11005TIP3    H154430   6.581   2.507   3.001 -1.0525 -0.6923  1.2645
11005TIP3    H254431   6.535   2.651   2.996 -0.5955 -0.6001 -0.9555
11006TIP3   OH254432   2.532   1.147   0.766  0.3546  0.2295  0.4041
11006TIP3    H154433   2.441   1.139   0.738  0.2993 -0.1507  0.7006
11006TIP3    H254434   2.555   1.238   0.746  0.5702 -0.2341 -1.6484
11007TIP3   OH254435   0.412   5.088   3.845  0.0047 -0.1394 -0.2971
11007TIP3    H154436   0.330   5.041   3.859  0.9728 -1.6904  0.5317
11007TIP3    H254437   0.423   5.090   3.750 -0.6533 -0.5390 -0.3853
11008TIP3   OH254438   4.885   5.152  13.427 -0.1943  0.7862 -0.0717
11008TIP3    H154439   4.954   5.215  13.450  0.0492  0.6062 -0.2940
11008TIP3    H254440   4.890   5.085  13.496  0.7962  0.0414 -0.8258
11009TIP3   OH254441   4.245   2.136   1.495 -0.1712  0.1438  0.2192
11009TIP3    H154442   4.340   2.152   1.493 -0.0251 -0.7041 -0.1066
11009TIP3    H254443   4.211   2.190   1.424 -0.1365  1.5565  1.2173
11010TIP3   OH254444   4.892   1.377  14.899  0.4024 -0.0024  0.4219
11010TIP3    H154445   4.929   1.459  14.934 -0.2295 -0.1882  1.5880
11010TIP3    H254446   4.954   1.310  14.926  1.1150  0.1189 -0.8609
11011TIP3   OH254447   4.717   5.384  12.238 -0.4405 -0.4149 -0.5609
11011TIP3    H154448   4.683   5.366  12.150 -3.1736  0.8088  0.1392
11011TIP3    H254449   4.706   5.301  12.285  0.0999 -0.7897 -1.0845
11012TIP3   OH254450   5.110   5.718   5.343 -0.1755  0.1471 -0.1932
11012TIP3    H154451   5.089   5.624   5.346  1.0842 -0.1481  0.3638
11012TIP3    H254452   5.205   5.721   5.355  0.0360  1.4153 -1.8324
11013TIP3   OH254453   0.954   5.283   2.939 -0.0306 -0.3914 -0.2149
11013TIP3    H154454   0.891   5.345   2.976 -0.3135 -0.8438  0.0689
11013TIP3    H254455   0.918   5.197   2.959 -0.2350 -0.6491 -1.6390
11014TIP3   OH254456   4.192   0.516   3.137  0.2973 -0.0567  0.3251
11014TIP3    H154457   4.178   0.600   3.092 -1.4051 -1.0584 -1.1209
11014TIP3    H254458   4.242   0.463   3.075 -1.6150 -1.2659 -0.2717
11015TIP3   OH254459   4.111   2.752   2.577  0.4083 -0.1819 -0.0242
11015TIP3    H154460   4.139   2.810   2.648  2.8957 -0.6217 -0.5663
11015TIP3    H254461   4.049   2.692   2.618 -0.0635  1.0615  1.1792
11016TIP3   OH254462   2.995   2.550  13.906  0.2475 -0.7772 -0.7707
11016TIP3    H154463   2.997   2.638  13.869  1.8346 -0.4546 -0.0142
11016TIP3    H254464   2.910   2.544  13.949 -0.7574 -0.4045 -2.5826
11017TIP3   OH254465   3.460   3.271   6.033  1.0084  0.1036 -0.8417
11017TIP3    H154466   3.532   3.220   6.071  1.5480  1.6008  0.2417
11017TIP3    H254467   3.421   3.316   6.107 -0.9924 -0.5440 -1.4363
11018TIP3   OH254468   6.742   2.427  11.705  0.5856  0.0294 -0.6089
11018TIP3    H154469   6.776   2.516  11.696 -0.4742  1.2040  3.9400
11018TIP3    H254470   6.647   2.439  11.715  0.5940 -1.2063  1.9906
11019TIP3   OH254471   5.249   3.182  14.864 -0.1155  0.3020  0.2385
11019TIP3    H154472   5.281   3.097  14.894 -2.0266 -1.0285 -1.1929
11019TIP3    H254473   5.321   3.243  14.881  2.0806 -1.9544 -0.4241
11020TIP3   OH254474   3.128   0.925  15.720  0.3976  0.9679  0.3059
11020TIP3    H154475   3.056   0.921  15.656  0.6861 -0.5232  0.0421
11020TIP3    H254476   3.102   0.994  15.780 -1.1968  0.5764  0.1168
11021TIP3   OH254477   4.259   2.225  15.963  0.3779 -0.3234 -0.4242
11021TIP3    H154478   4.349   2.255  15.958  0.6499 -0.7421  1.1996
11021TIP3    H254479   4.265   2.137  16.000 -0.7818  1.0144  3.4695
11022TIP3   OH254480   6.444   1.446  16.917 -0.5620 -0.2154 -0.3620
11022TIP3    H154481   6.403   1.394  16.848 -2.7028  1.3460 -0.3486
11022TIP3    H254482   6.524   1.398  16.938 -1.6203 -2.6370 -1.4388
11023TIP3   OH254483   0.965   0.978   1.971 -0.2462 -0.0754  0.2598
11023TIP3    H154484   1.009   1.040   1.913 -1.4236  1.6871  1.1579
11023TIP3    H254485   0.998   0.999   2.058 -2.2165  0.8081  0.8583
11024TIP3   OH254486   0.261   2.397   4.639 -0.2430 -0.1738  0.1239
11024TIP3    H154487   0.167   2.389   4.621 -0.2750  1.1653 -0.4215
11024TIP3    H254488   0.298   2.431   4.558  0.7646 -0.8529  0.2795
11025TIP3   OH254489   3.436   6.506  11.275  0.2822  0.1984 -0.1217
11025TIP3    H154490   3.389   6.584  11.303  1.9278  1.7957 -1.5288
11025TIP3    H254491   3.410   6.493  11.184 -1.4228 -2.1230  0.5942
11026TIP3   OH254492   3.707   6.173  14.851 -0.4368  0.0887  0.3201
11026TIP3    H154493   3.669   6.258  14.827 -0.5514 -0.0648 -0.0468
11026TIP3    H254494   3.636   6.128  14.898 -0.9371 -0.4492 -0.9208
11027TIP3   OH254495   3.053   5.246   3.799  0.8674  0.3260  0.3603
11027TIP3    H154496   3.054   5.152   3.782  0.1140  0.5341 -1.0368
11027TIP3    H254497   2.998   5.256   3.877 -0.6114 -0.2854 -0.5541
11028TIP3   OH254498   0.853   6.696  12.538 -0.5323 -0.1269  0.0713
11028TIP3    H154499   0.892   6.780  12.562 -2.7763  1.1708 -0.5741
11028TIP3    H254500   0.802   6.714  12.460 -0.3837 -2.3261 -0.6187
11029TIP3   OH254501   6.217   6.346   3.294  0.4268  0.2882 -0.3552
11029TIP3    H154502   6.244   6.260   3.264  1.3451  1.4234 -3.1129
11029TIP3    H254503   6.271   6.363   3.371  2.8851 -0.2037 -1.8761
11030TIP3   OH254504   3.866   4.001   0.146 -0.2095 -0.3402  0.4924
11030TIP3    H154505   3.837   3.930   0.089  2.1600 -1.4196  0.5443
11030TIP3    H254506   3.830   3.980   0.232 -2.1516  0.2659 -0.1057
11031TIP3   OH254507   0.851   2.426  17.395  0.2508 -0.1676 -0.1055
11031TIP3    H154508   0.779   2.426  17.458 -0.8785  0.1052 -1.3595
11031TIP3    H254509   0.924   2.385  17.443 -1.0493 -1.5244  0.8329
11032TIP3   OH254510   1.316   5.763   2.884  0.4313 -0.1458  0.3810
11032TIP3    H154511   1.221   5.772   2.874  0.1246 -3.6227 -1.0579
11032TIP3    H254512   1.352   5.802   2.804  0.3686  1.8856  1.2753
11033TIP3   OH254513   0.134   3.080   2.905  0.6089  0.1501 -0.0393
11033TIP3    H154514   0.211   3.037   2.942  0.5317  0.4825  0.5217
11033TIP3    H254515   0.077   3.097   2.980 -0.0226 -0.1024 -0.4475
11034TIP3   OH254516   0.608   2.932  16.786 -0.3949 -0.0525 -0.1680
11034TIP3    H154517   0.548   2.998  16.822 -0.7804  0.0229 -0.9142
11034TIP3    H254518   0.569   2.848  16.810 -0.2904 -0.0082  0.1619
11035TIP3   OH254519   3.580   2.967   2.442  0.2065  0.4469  0.7099
11035TIP3    H154520   3.529   2.904   2.492 -0.9605  1.6057  1.0136
11035TIP3    H254521   3.668   2.961   2.480  0.6870 -2.3612 -0.5428
11036TIP3   OH254522   3.582   2.467   4.682  0.5551 -0.1459 -0.1699
11036TIP3    H154523   3.673   2.498   4.676  1.0257 -0.6438  2.7791
11036TIP3    H254524   3.540   2.527   4.743  0.9081 -3.6192  3.9820
11037TIP3   OH254525   2.202   2.069  12.329 -0.1949  0.0528  0.0321
11037TIP3    H154526   2.240   2.017  12.399  2.1915  1.0420 -0.4322
11037TIP3    H254527   2.245   2.155  12.336 -1.3299  0.7987 -1.4407
11038TIP3   OH254528   5.760   2.687  15.053  0.1013 -0.4121  0.0003
11038TIP3    H154529   5.689   2.689  14.989 -0.4785  1.2092  0.6565
11038TIP3    H254530   5.727   2.631  15.124  0.6278 -1.9659 -0.9359
11039TIP3   OH254531   4.826   2.165  15.063  0.4460  0.1041 -0.5808
11039TIP3    H154532   4.891   2.095  15.053  0.4683  0.2419 -1.4539
11039TIP3    H254533   4.819   2.178  15.157 -0.8439 -2.3154 -0.2387
11040TIP3   OH254534   2.518   3.709   5.958 -0.2134 -0.4640 -0.2073
11040TIP3    H154535   2.581   3.774   5.990 -0.9692  0.0314  0.3287
11040TIP3    H254536   2.566   3.626   5.959 -0.2842 -0.5795  2.7507
11041TIP3   OH254537   4.475   1.353   1.269  0.4780 -0.0521 -0.5236
11041TIP3    H154538   4.530   1.285   1.230 -0.8408 -0.9094 -0.9544
11041TIP3    H254539   4.512   1.435   1.236  1.9438 -0.5496 -0.1938
11042TIP3   OH254540   4.221   0.361   2.438 -0.1770 -0.0748  0.3776
11042TIP3    H154541   4.219   0.457   2.445 -2.1090 -0.1289  1.4783
11042TIP3    H254542   4.311   0.337   2.459  0.1954  1.4752  0.6716
11043TIP3   OH254543   1.597   0.077  16.240 -0.2222 -0.1640  0.4314
11043TIP3    H154544   1.546   0.158  16.236  0.6786  0.3832 -0.8843
11043TIP3    H254545   1.662   0.087  16.171  1.3332 -1.0714  1.7079
11044TIP3   OH254546   0.148   3.580   3.200 -0.1137  0.1645  0.2093
11044TIP3    H154547   0.138   3.667   3.240  1.9079 -0.3759  2.0820
11044TIP3    H254548   0.230   3.586   3.150 -0.9069 -0.1706 -1.1960
11045TIP3   OH254549   2.164   4.993   0.230  0.4022  0.6216 -0.1894
11045TIP3    H154550   2.142   5.037   0.313 -1.2616  0.3394 -0.4375
11045TIP3    H254551   2.244   4.945   0.249  0.3782  1.0330  1.0834
11046TIP3   OH254552   0.356   0.947  14.863 -0.0160  0.0381  0.2734
11046TIP3    H154553   0.386   1.006  14.794  1.2646 -0.0145  0.7553
11046TIP3    H254554   0.406   0.866  14.849 -1.1116 -0.6428  0.1496
11047TIP3   OH254555   0.521   6.561   4.611  0.0949 -0.3118  0.1374
11047TIP3    H154556   0.543   6.629   4.548  0.0489 -1.2684 -0.9305
11047TIP3    H254557   0.483   6.609   4.685  1.8129  0.9758  0.2367
11048TIP3   OH254558   3.414   3.571  12.750  0.3908 -0.4126 -0.8952
11048TIP3    H154559   3.322   3.555  12.727  0.1340 -1.4960  0.6695
11048TIP3    H254560   3.448   3.624  12.678 -1.4732  0.0664 -1.4978
11049TIP3   OH254561   6.387   3.131  10.830  0.0988 -0.2842 -0.4259
11049TIP3    H154562   6.312   3.144  10.773 -0.8444 -2.4725  0.1999
11049TIP3    H254563   6.459   3.177  10.787 -1.1060  0.0449 -2.1625
11050TIP3   OH254564   3.127   2.707  17.049 -0.4306 -0.3073 -0.4400
11050TIP3    H154565   3.052   2.678  16.996 -0.0052  0.4736 -1.5201
11050TIP3    H254566   3.109   2.800  17.066  0.1685 -0.1785 -0.4927
11051TIP3   OH254567   1.896   5.143   1.041  0.1806 -0.9763 -0.4818
11051TIP3    H154568   1.866   5.052   1.036 -1.1288 -0.5393 -1.0385
11051TIP3    H254569   1.858   5.185   0.964 -0.9054  0.5158  0.7979
11052TIP3   OH254570   4.794   3.307   0.135 -0.5168  0.2695 -0.3965
11052TIP3    H154571   4.823   3.276   0.221 -1.1724 -1.0815 -0.6335
11052TIP3    H254572   4.724   3.369   0.154 -1.5839 -1.0263  0.0386
11053TIP3   OH254573   5.767   3.232   4.880  0.7265 -0.0779 -0.6191
11053TIP3    H154574   5.776   3.206   4.972  0.8664 -0.6111 -0.7854
11053TIP3    H254575   5.855   3.223   4.843  0.6492  0.0375 -0.8352
11054TIP3   OH254576   3.520   5.524   3.056  0.0660 -0.4049  0.1868
11054TIP3    H154577   3.467   5.579   2.999  0.5760  0.3548  0.4408
11054TIP3    H254578   3.466   5.446   3.071  0.3667 -1.1544 -2.2444
11055TIP3   OH254579   5.269   1.068   4.273  0.2088 -0.0747  0.0955
11055TIP3    H154580   5.337   1.089   4.210 -0.6949  2.8012 -0.0794
11055TIP3    H254581   5.288   1.125   4.348 -2.0506  1.0150 -0.0643
11056TIP3   OH254582   2.587   2.375  14.595 -0.1902  0.2618 -0.0584
11056TIP3    H154583   2.599   2.403  14.685  0.4286  0.3700 -0.1647
11056TIP3    H254584   2.505   2.414  14.567 -2.7354 -3.2465  1.8098
11057TIP3   OH254585   4.767   2.908  10.575 -0.8224  0.0130  0.5790
11057TIP3    H154586   4.673   2.925  10.564 -0.4600  1.4660 -0.7354
11057TIP3    H254587   4.805   2.995  10.586  0.5994 -0.3259 -1.1511
11058TIP3   OH254588   4.053   1.237   0.309 -0.9477  0.1999  0.1034
11058TIP3    H154589   4.044   1.327   0.341 -2.1717  0.0274  0.2903
11058TIP3    H254590   4.074   1.246   0.216  0.6934  0.6786  0.4864
11059TIP3   OH254591   2.349   0.845  14.599 -0.0753  0.5610  0.7294
11059TIP3    H154592   2.354   0.830  14.694  2.3048  0.5483  0.6490
11059TIP3    H254593   2.261   0.813  14.575 -0.3053 -0.4883  2.7390
11060TIP3   OH254594   0.854   2.862  14.898 -0.1276 -0.4720 -0.3762
11060TIP3    H154595   0.770   2.901  14.875  0.7164  1.6272 -0.1230
11060TIP3    H254596   0.871   2.797  14.830 -2.0169 -1.0599 -0.3214
11061TIP3   OH254597   1.217   3.462  16.246 -0.5511  0.4973  0.2376
11061TIP3    H154598   1.211   3.375  16.285 -0.9867  0.2034 -0.4567
11061TIP3    H254599   1.246   3.519  16.317  0.3232 -0.3158  0.5600
11062TIP3   OH254600   2.121   5.232  17.086  0.7172  0.2973  0.0346
11062TIP3    H154601   2.202   5.183  17.092  0.9573  0.7537  0.6279
11062TIP3    H254602   2.136   5.295  17.015  0.7144  0.0820 -0.1578
11063TIP3   OH254603   5.661   0.022  12.121 -0.4683 -0.2518  0.4607
11063TIP3    H154604   5.718   0.006  12.196 -1.1742 -0.4681  0.9561
11063TIP3    H254605   5.704  -0.024  12.048 -0.7003 -1.5362  1.1135
11064TIP3   OH254606   0.537   1.919  14.682  0.0148  0.6074  0.1008
11064TIP3    H154607   0.445   1.928  14.707 -0.0079  0.2764  0.1463
11064TIP3    H254608   0.541   1.834  14.637 -0.1145  1.5204 -1.7641
11065TIP3   OH254609   3.160   3.786  15.333  0.1312  0.6645 -0.0491
11065TIP3    H154610   3.186   3.769  15.242  0.8229 -0.5814  0.3617
11065TIP3    H254611   3.068   3.760  15.337  0.6806 -1.3819  0.1133
11066TIP3   OH254612   1.671   6.711   1.884 -0.1159 -0.4609  0.3715
11066TIP3    H154613   1.576   6.722   1.885 -0.0251  0.6920 -0.8663
11066TIP3    H254614   1.703   6.766   1.955 -0.2657  0.5621 -0.3388
11067TIP3   OH254615   0.892   6.533   0.861 -0.1383 -0.2951  0.1787
11067TIP3    H154616   0.825   6.564   0.800 -3.1765  0.1232  3.4198
11067TIP3    H254617   0.856   6.453   0.898  1.7800 -0.7620  1.1558
11068TIP3   OH254618   0.667   0.411  13.487 -0.4565 -0.2940 -0.3913
11068TIP3    H154619   0.605   0.428  13.558  1.2879  0.5703  1.0020
11068TIP3    H254620   0.655   0.485  13.427  0.4591  0.8731  0.8072
11069TIP3   OH254621   1.270   1.669   3.976  0.1796 -0.0873  0.1986
11069TIP3    H154622   1.189   1.713   3.953  0.9457  0.7530 -0.9700
11069TIP3    H254623   1.286   1.694   4.067 -1.1242 -0.7076  0.6281
11070TIP3   OH254624   2.474   3.244   1.192 -0.3322 -0.1636 -0.5935
11070TIP3    H154625   2.416   3.182   1.236 -0.4145 -0.4221 -1.0566
11070TIP3    H254626   2.510   3.298   1.262 -0.1397 -0.8348 -0.1665
11071TIP3   OH254627   6.749   3.036  14.879 -0.2887  0.0107  0.4880
11071TIP3    H154628   6.670   3.063  14.925 -0.0249  0.3153  0.7670
11071TIP3    H254629   6.804   2.997  14.947  0.2987  0.8892  0.5364
11072TIP3   OH254630   0.300   4.077  11.670  0.0140  0.0153 -0.3748
11072TIP3    H154631   0.330   4.154  11.621  1.8467  1.0317  2.1518
11072TIP3    H254632   0.301   4.105  11.762 -0.7276 -2.5946  0.5071
11073TIP3   OH254633   1.953   6.395  11.826  0.8016  0.3408 -0.1434
11073TIP3    H154634   1.953   6.490  11.834  0.7076  0.3831 -0.6739
11073TIP3    H254635   1.897   6.365  11.898  0.0058  0.7364 -0.5830
11074TIP3   OH254636   0.449   3.098  14.939  0.2765  0.2352 -0.4375
11074TIP3    H154637   0.400   3.180  14.931 -1.2215 -0.5644  0.2462
11074TIP3    H254638   0.460   3.086  15.034 -0.7695 -1.0598 -0.4648
11075TIP3   OH254639   6.751   4.573  16.037  0.2868 -0.2690  0.7989
11075TIP3    H154640   6.754   4.618  16.121 -1.5968 -0.3170  0.9381
11075TIP3    H254641   6.748   4.644  15.972  3.6397 -0.1891  0.5607
11076TIP3   OH254642   0.934   0.311  14.927 -0.5060  0.3377 -0.0404
11076TIP3    H154643   1.018   0.276  14.958 -1.9075  0.4369  4.6387
11076TIP3    H254644   0.943   0.405  14.937 -1.3938  0.2975  1.5891
11077TIP3   OH254645   5.166   3.728  13.222 -0.1214 -0.6306 -0.4629
11077TIP3    H154646   5.100   3.734  13.291 -0.9737 -1.4093 -1.1862
11077TIP3    H254647   5.240   3.683  13.263  0.3279  0.9696  0.5938
11078TIP3   OH254648   4.173   4.632  12.286 -0.0623 -0.1795 -0.2229
11078TIP3    H154649   4.244   4.664  12.341 -0.3482 -0.7574  0.4967
11078TIP3    H254650   4.207   4.637  12.197  0.7651 -0.1604  0.0891
11079TIP3   OH254651   0.395   5.492  12.274 -0.1060  0.2149 -0.3535
11079TIP3    H154652   0.362   5.418  12.323 -1.6379  1.4296  0.5266
11079TIP3    H254653   0.385   5.567  12.333  0.2662  1.3229 -1.6414
11080TIP3   OH254654   6.181   4.677   2.232  0.0019 -0.0078 -0.5835
11080TIP3    H154655   6.120   4.734   2.279  2.2485  1.6337  0.5188
11080TIP3    H254656   6.249   4.657   2.295  1.1365 -0.9896 -2.0427
11081TIP3   OH254657   2.385   6.331  10.956 -0.3805  0.4951  0.0870
11081TIP3    H154658   2.330   6.392  11.005  1.7754  3.2926 -0.7192
11081TIP3    H254659   2.457   6.385  10.923 -0.2285 -1.7417 -3.8222
11082TIP3   OH254660   4.098   2.137  12.038 -0.4766 -0.4486  0.9644
11082TIP3    H154661   4.109   2.047  12.069  0.4851 -1.4326 -1.8941
11082TIP3    H254662   4.009   2.141  12.006 -0.2070 -0.7262  0.1616
11083TIP3   OH254663   2.033   1.949   5.557 -0.5941  0.2766 -0.1861
11083TIP3    H154664   1.942   1.973   5.573 -0.3773  0.7881  0.2821
11083TIP3    H254665   2.055   1.890   5.628 -0.2517  0.9549  0.2785
11084TIP3   OH254666   4.487   2.910   2.098 -0.3756  0.0925  0.0651
11084TIP3    H154667   4.507   2.857   2.175 -3.0713 -0.3328  0.5733
11084TIP3    H254668   4.424   2.975   2.130 -1.5002 -0.0563 -1.7529
11085TIP3   OH254669   6.457   2.195  15.074  0.5853 -0.6034 -0.0821
11085TIP3    H154670   6.552   2.183  15.079  0.5700 -1.2727 -1.1166
11085TIP3    H254671   6.445   2.265  15.010  0.3550 -1.5429 -1.1029
11086TIP3   OH254672   1.801   2.681  10.923  0.6785  0.2990  0.5155
11086TIP3    H154673   1.773   2.608  10.867 -1.4171  1.9346 -0.7224
11086TIP3    H254674   1.885   2.653  10.959  0.0900 -2.5932 -0.1076
11087TIP3   OH254675   2.286   2.355   6.442 -0.4706  0.0382 -0.8443
11087TIP3    H154676   2.277   2.324   6.352  1.3222  1.9909 -1.7928
11087TIP3    H254677   2.281   2.451   6.435 -1.4328  0.1951  1.3079
11088TIP3   OH254678   2.481   4.134  14.668  0.1926  0.2248 -0.6895
11088TIP3    H154679   2.518   4.077  14.600  0.8512 -1.1155  0.7229
11088TIP3    H254680   2.492   4.223  14.634  0.3302 -0.4098 -2.3978
11089TIP3   OH254681   6.131   1.997   6.087 -0.5918  0.0641  0.1091
11089TIP3    H154682   6.204   2.017   6.145 -0.3901 -2.8352  0.9908
11089TIP3    H254683   6.089   1.921   6.126 -0.6862 -1.8407 -3.3423
11090TIP3   OH254684   4.549   5.040  12.417 -0.3067  0.3855  0.2839
11090TIP3    H154685   4.634   5.065  12.380 -0.7952  0.6014 -0.7250
11090TIP3    H254686   4.568   4.961  12.468  0.6607  0.9442  0.8257
11091TIP3   OH254687   4.506   6.403  15.309  0.6909 -0.3876 -0.1347
11091TIP3    H154688   4.572   6.345  15.345  1.2800 -0.2200 -0.9192
11091TIP3    H254689   4.432   6.346  15.288 -0.2058 -0.3351  2.4725
11092TIP3   OH254690   3.494   3.672  11.812  0.4638 -0.3375  0.2163
11092TIP3    H154691   3.457   3.718  11.887  0.3506 -0.6767  0.3704
11092TIP3    H254692   3.477   3.579  11.829  2.3320 -0.6203  0.8428
11093TIP3   OH254693   0.984   3.066   5.648 -0.5181  0.1516 -0.5683
11093TIP3    H154694   0.965   3.029   5.562 -0.5127 -1.3891  0.0545
11093TIP3    H254695   0.898   3.088   5.684 -0.7575 -1.4369 -0.0566
11094TIP3   OH254696   4.884   3.406   1.418  0.2122 -0.0565  0.4932
11094TIP3    H154697   4.957   3.361   1.460 -1.1420 -1.2500  1.6812
11094TIP3    H254698   4.908   3.411   1.325  1.3526 -1.2926  0.7081
11095TIP3   OH254699   3.643   3.744  13.509  0.0266 -0.5922 -0.7324
11095TIP3    H154700   3.597   3.763  13.590 -0.9086  0.4958 -1.4794
11095TIP3    H254701   3.694   3.666  13.528  0.3758  0.0349  1.1032
11096TIP3   OH254702   4.458   6.210  15.901 -0.1004 -0.2666  0.1348
11096TIP3    H154703   4.412   6.236  15.981 -0.3990  0.3555 -0.2249
11096TIP3    H254704   4.533   6.269  15.896 -0.8833  0.7065 -0.7837
11097TIP3   OH254705   6.548   1.515  17.330 -0.1989 -0.3840  0.1201
11097TIP3    H154706   6.527   1.424  17.352 -2.1432 -0.1280 -0.4320
11097TIP3    H254707   6.560   1.557  17.414 -5.0712  0.0328  0.9321
11098TIP3   OH254708   1.317   4.440  12.195  0.1033 -0.3611  0.5796
11098TIP3    H154709   1.404   4.466  12.226  0.5159 -0.5884 -0.3388
11098TIP3    H254710   1.329   4.349  12.166 -0.2592 -0.1716 -0.1978
11099TIP3   OH254711   4.753   1.627   4.849 -0.1579  0.6648 -0.1999
11099TIP3    H154712   4.830   1.678   4.827 -0.6334  1.4040 -0.1907
11099TIP3    H254713   4.787   1.551   4.896  0.5617  0.9764 -0.2090
11100TIP3   OH254714   3.596   1.657   3.855  0.2880 -1.0825 -0.5315
11100TIP3    H154715   3.628   1.657   3.765  1.2371  0.9964 -0.2548
11100TIP3    H254716   3.548   1.739   3.863 -0.4428 -1.6040  0.6501
11101TIP3   OH254717   3.497   4.658   6.418 -0.5361  0.1301 -0.1732
11101TIP3    H154718   3.549   4.581   6.437 -1.3212 -0.3967 -0.1065
11101TIP3    H254719   3.557   4.732   6.431 -0.6546 -0.2106  3.2449
11102TIP3   OH254720   5.638   1.295  11.736  0.3427  0.0274  0.0341
11102TIP3    H154721   5.658   1.223  11.796 -0.3531  0.2298  0.5183
11102TIP3    H254722   5.652   1.374  11.788  0.8983  0.2413 -0.4340
11103TIP3   OH254723   6.426   1.722  13.695  0.4740 -0.0945  0.4153
11103TIP3    H154724   6.502   1.664  13.700  0.8537  0.4408  0.9452
11103TIP3    H254725   6.433   1.778  13.772  0.1224  0.6760 -0.1001
11104TIP3   OH254726   4.204   5.622   1.557  0.6752  0.6243  0.0604
11104TIP3    H154727   4.189   5.622   1.463 -0.5772 -1.8829  0.1942
11104TIP3    H254728   4.121   5.594   1.595  1.4058  0.7744  1.8660
11105TIP3   OH254729   2.273   6.538  11.553 -0.1428  0.5367 -0.3082
11105TIP3    H154730   2.270   6.629  11.524  1.1898  1.2065  1.4504
11105TIP3    H254731   2.277   6.544  11.649  2.8766 -1.1907 -0.1955
11106TIP3   OH254732   4.058   5.381  16.474  0.7154 -0.2111 -0.7486
11106TIP3    H154733   4.072   5.287  16.483 -2.2584 -0.6818  0.0809
11106TIP3    H254734   4.101   5.420  16.550  1.3876 -0.9525 -0.7393
11107TIP3   OH254735   2.921   5.305  14.134 -0.5099  0.5622 -0.4196
11107TIP3    H154736   2.931   5.392  14.174 -0.2282 -0.8049  2.7653
11107TIP3    H254737   3.010   5.274  14.121 -0.6148  0.3049 -0.5379
11108TIP3   OH254738   2.830   2.146   2.313  0.4902 -0.0196  0.4317
11108TIP3    H154739   2.746   2.139   2.267  1.0764 -1.1755 -0.5213
11108TIP3    H254740   2.827   2.231   2.357 -0.8643  0.2861 -0.2194
11109TIP3   OH254741   4.470   2.888   5.451 -0.4250 -0.1660 -0.1456
11109TIP3    H154742   4.517   2.859   5.529 -2.6315  0.3858  1.4757
11109TIP3    H254743   4.459   2.809   5.399  0.7398 -0.6176  0.2632
11110TIP3   OH254744   2.042   0.779  10.803  0.3153  0.2844 -0.1860
11110TIP3    H154745   2.118   0.826  10.768  0.2982 -0.1763 -0.8488
11110TIP3    H254746   2.062   0.687  10.788 -0.1529  0.1322  0.1045
11111TIP3   OH254747   5.478   0.223  13.813  0.3071 -0.7426 -0.6417
11111TIP3    H154748   5.427   0.257  13.887  1.1577  0.0317 -0.3899
11111TIP3    H254749   5.521   0.300  13.776  1.9855 -1.4760 -0.2947
11112TIP3   OH254750   5.131   5.651   0.834  0.1001  0.5648  0.2761
11112TIP3    H154751   5.050   5.602   0.820  0.2563 -0.3050  2.1295
11112TIP3    H254752   5.102   5.737   0.865 -0.1293  0.7837 -0.5311
11113TIP3   OH254753   6.269   4.148  10.682  0.0155  0.1823  0.0406
11113TIP3    H154754   6.311   4.088  10.620 -0.0615  2.6931 -2.6969
11113TIP3    H254755   6.325   4.146  10.759  1.5131 -1.3362 -1.0079
11114TIP3   OH254756   3.144   4.545   5.081  0.3458  0.6856  0.0330
11114TIP3    H154757   3.059   4.530   5.040  0.6276 -0.5134 -0.1487
11114TIP3    H254758   3.208   4.520   5.014  0.8578  1.7915  0.0880
11115TIP3   OH254759   2.638   1.932  14.165 -0.4402  0.1417 -0.0655
11115TIP3    H154760   2.662   2.023  14.145 -1.9038  0.6947  0.5482
11115TIP3    H254761   2.616   1.933  14.258  0.7628 -1.1410  0.2508
11116TIP3   OH254762   3.054   4.567   3.043 -0.2794  0.3544  0.0550
11116TIP3    H154763   3.026   4.593   3.131 -0.7097  2.2391 -0.5788
11116TIP3    H254764   3.002   4.490   3.022  0.8871 -1.0472  1.9875
11117TIP3   OH254765   2.913   0.499   3.156 -0.0853  0.3053  0.2690
11117TIP3    H154766   2.841   0.534   3.105  0.1130 -0.7654 -0.7671
11117TIP3    H254767   2.878   0.422   3.199  0.1921  0.3042  0.5008
11118TIP3   OH254768   2.236   0.099   5.236 -0.6126 -0.1327 -0.1707
11118TIP3    H154769   2.286   0.160   5.289 -2.3892  0.9727  0.3254
11118TIP3    H254770   2.277   0.102   5.150  0.9358 -0.2649  0.5420
11119TIP3   OH254771   0.906   1.856   2.787 -0.0390 -0.0291 -0.0161
11119TIP3    H154772   0.944   1.874   2.873  0.5285  0.5813 -0.3851
11119TIP3    H254773   0.929   1.765   2.768 -0.7319 -0.3809  0.7574
11120TIP3   OH254774   3.523   5.268  14.962  0.0763 -0.2693 -1.1448
11120TIP3    H154775   3.578   5.299  14.889 -0.6071  0.0473 -1.5409
11120TIP3    H254776   3.454   5.218  14.919 -0.0674 -0.4843 -0.6652
11121TIP3   OH254777   5.371   3.108  15.324  0.0649 -0.4074  0.1615
11121TIP3    H154778   5.314   3.119  15.400  1.6385  0.7561  1.2175
11121TIP3    H254779   5.315   3.066  15.258 -2.1259  1.0681  0.9795
11122TIP3   OH254780   5.814   3.190   1.738  0.5951 -0.1414  0.6660
11122TIP3    H154781   5.882   3.164   1.800  2.3998 -0.2902 -1.3106
11122TIP3    H254782   5.775   3.108   1.708 -2.1542 -0.0612  3.3907
11123TIP3   OH254783   4.836   0.237   0.214 -0.0905  0.0835  0.0260
11123TIP3    H154784   4.781   0.195   0.148  0.0589 -1.3292  0.7456
11123TIP3    H254785   4.776   0.267   0.281 -0.2428  1.5231 -0.7121
11124TIP3   OH254786   4.158   0.581   1.354 -0.1898 -0.1169  0.2240
11124TIP3    H154787   4.167   0.551   1.263 -2.4562 -1.3328  0.2971
11124TIP3    H254788   4.234   0.635   1.370  1.3474 -1.5399 -1.7520
11125TIP3   OH254789   5.560   0.302  12.358  0.2022 -0.3916  0.1624
11125TIP3    H154790   5.474   0.341  12.368  0.5671  0.3214  0.5744
11125TIP3    H254791   5.552   0.246  12.281 -0.7544 -0.7064  0.4855
11126TIP3   OH254792   2.295   5.309  13.355  0.5980  0.8013  0.1295
11126TIP3    H154793   2.254   5.254  13.288  0.2019  1.5261 -0.2293
11126TIP3    H254794   2.292   5.255  13.435  0.8472  0.0346 -0.3640
11127TIP3   OH254795   4.596   4.338   4.789 -0.0637 -0.1772 -0.2464
11127TIP3    H154796   4.542   4.336   4.868 -0.5311  0.6715 -0.5357
11127TIP3    H254797   4.682   4.305   4.817 -0.2018  0.2015  0.6274
11128TIP3   OH254798   1.591   0.156  17.302 -0.0199 -0.4236 -0.0167
11128TIP3    H154799   1.632   0.146  17.217  1.8397 -0.2050  0.8027
11128TIP3    H254800   1.580   0.067  17.334 -0.1345 -0.4850 -0.2283
11129TIP3   OH254801   1.537   5.423   2.551  0.2628 -0.2470 -0.9154
11129TIP3    H154802   1.515   5.475   2.628  1.0737  0.3364 -1.0666
11129TIP3    H254803   1.525   5.333   2.579  1.0783 -0.0669  0.0719
11130TIP3   OH254804   1.518   1.239  16.415 -0.4178 -0.2143 -0.5265
11130TIP3    H154805   1.540   1.274  16.329  1.8182 -0.1996 -0.0146
11130TIP3    H254806   1.469   1.310  16.458  2.3714  1.6832 -0.1961
11131TIP3   OH254807   2.584   1.873   4.852 -0.4688 -0.3929 -0.6318
11131TIP3    H154808   2.608   1.850   4.762 -0.1872  1.9213 -1.2284
11131TIP3    H254809   2.545   1.960   4.844  0.7000  0.4010  1.6428
11132TIP3   OH254810   5.314   3.742  15.715  0.1369 -0.2062 -0.2123
11132TIP3    H154811   5.231   3.754  15.669  0.4130 -1.0365 -0.9578
11132TIP3    H254812   5.350   3.830  15.723 -0.6356  0.1205 -0.2153
11133TIP3   OH254813   5.984   3.901  12.459  0.5788  0.1841  0.1550
11133TIP3    H154814   5.991   3.811  12.493  0.4794  0.4181  0.8084
11133TIP3    H254815   6.064   3.943  12.490  0.0047  0.6907  0.9945
11134TIP3   OH254816   4.813   6.736   3.506 -0.2270  0.5564 -0.2352
11134TIP3    H154817   4.761   6.814   3.523 -0.5573 -0.1863  2.7098
11134TIP3    H254818   4.903   6.769   3.498 -0.7368  1.5597 -2.8383
11135TIP3   OH254819   1.164   2.885  16.469  0.0094  0.3680  0.0393
11135TIP3    H154820   1.129   2.861  16.555 -0.3171 -0.1708 -0.2361
11135TIP3    H254821   1.091   2.926  16.424  0.2005  0.7133  0.0363
11136TIP3   OH254822   1.069   4.722  13.679 -0.1254  0.2042 -0.2648
11136TIP3    H154823   1.040   4.702  13.768 -1.0989  2.0657 -0.1256
11136TIP3    H254824   0.988   4.725  13.628  0.4123 -0.6690 -1.1955
11137TIP3   OH254825   5.087   6.402  15.767 -0.3562 -0.0095  0.3626
11137TIP3    H154826   5.179   6.378  15.754 -0.7749 -1.0330 -1.0318
11137TIP3    H254827   5.088   6.497  15.776  0.8559 -0.0281  0.6477
11138TIP3   OH254828   2.359   4.961   3.573  0.1672  0.6048  0.1256
11138TIP3    H154829   2.293   5.014   3.528  1.1464  2.0853  0.3262
11138TIP3    H254830   2.373   5.005   3.657 -2.0774 -2.4625  2.3152
11139TIP3   OH254831   6.440   0.528   4.007 -0.5251 -0.1023 -0.3740
11139TIP3    H154832   6.411   0.452   4.058  0.6924  0.9159  2.0363
11139TIP3    H254833   6.520   0.499   3.964  0.5179  0.0161  1.3643
11140TIP3   OH254834   4.170   4.556  15.738 -0.2102  0.0543  0.7156
11140TIP3    H154835   4.265   4.569  15.734 -0.3212  1.0987  1.1175
11140TIP3    H254836   4.159   4.463  15.757  0.6971 -0.3321 -0.5535
11141TIP3   OH254837   6.278   6.145  12.911 -0.0907  0.0722  0.1630
11141TIP3    H154838   6.212   6.105  12.967  0.0205  0.9109  0.9035
11141TIP3    H254839   6.228   6.198  12.849 -0.1376  0.3923  0.4717
11142TIP3   OH254840   6.720   4.650  12.669 -0.2395  0.0581 -0.4145
11142TIP3    H154841   6.730   4.579  12.733 -0.0865 -0.1470 -0.6660
11142TIP3    H254842   6.810   4.671  12.643 -0.0962  1.8159  1.2613
11143TIP3   OH254843   2.027   3.716  11.915  0.1495 -0.4353  0.0193
11143TIP3    H154844   2.018   3.643  11.853  2.0249 -0.5990 -0.1207
11143TIP3    H254845   2.117   3.711  11.945 -0.4295  0.2557  2.0438
11144TIP3   OH254846   6.238   4.801  11.938  0.9204 -0.0170 -0.6509
11144TIP3    H154847   6.264   4.891  11.916  1.3892  0.0865  0.2553
11144TIP3    H254848   6.165   4.812  11.999 -2.0593 -0.3071 -3.9144
11145TIP3   OH254849   3.597   3.682   6.126  0.8104  0.0941  0.5795
11145TIP3    H154850   3.506   3.713   6.125  0.5982 -0.5177  0.0601
11145TIP3    H254851   3.605   3.634   6.209 -0.7449 -3.7617 -1.2350
11146TIP3   OH254852   0.606   2.465  14.207 -0.4987 -1.0872 -0.0974
11146TIP3    H154853   0.609   2.369  14.208  0.7845 -1.0834 -0.8251
11146TIP3    H254854   0.685   2.491  14.254 -0.4247 -0.3960 -0.5911
11147TIP3   OH254855   5.128   5.976   1.835  0.6018 -0.0853 -0.4027
11147TIP3    H154856   5.078   5.895   1.837 -0.6769  0.6127  2.6214
11147TIP3    H254857   5.209   5.956   1.882  0.3314  0.3270  0.2568
11148TIP3   OH254858   6.251   1.544  15.870 -0.1612  0.2317 -0.2169
11148TIP3    H154859   6.239   1.639  15.872 -0.0936  0.2303  1.1975
11148TIP3    H254860   6.339   1.530  15.907 -0.0737 -0.3726 -0.6391
11149TIP3   OH254861   3.825   6.534  15.393  0.0736  0.0347 -0.6542
11149TIP3    H154862   3.828   6.448  15.351  1.2182 -0.2505 -0.0283
11149TIP3    H254863   3.910   6.542  15.436 -0.4227  1.0467  0.1576
11150TIP3   OH254864   3.858   3.729  14.469  0.2446  0.7695 -0.3840
11150TIP3    H154865   3.782   3.781  14.441 -1.2587 -1.2957 -0.3489
11150TIP3    H254866   3.824   3.673  14.538  1.7072 -0.4752 -0.6299
11151TIP3   OH254867   6.735   3.115  17.289  0.3156 -0.1037 -0.1846
11151TIP3    H154868   6.704   3.122  17.379 -0.4737 -0.3374 -0.4332
11151TIP3    H254869   6.678   3.049  17.248  2.1036 -1.7231 -0.2411
11152TIP3   OH254870   0.066   2.385  14.021  0.6436 -0.3613  0.6863
11152TIP3    H154871   0.017   2.323  13.967  2.3615 -1.3605  0.1627
11152TIP3    H254872   0.127   2.427  13.959  0.9854  0.2572  1.4210
11153TIP3   OH254873   0.417   0.771  15.898 -0.2424 -0.7992  0.0326
11153TIP3    H154874   0.389   0.687  15.933 -0.5753 -0.1874  1.2934
11153TIP3    H254875   0.427   0.756  15.804  0.5961 -2.4740  0.3559
11154TIP3   OH254876   1.503   0.526  12.895  0.1635  0.3910  0.1100
11154TIP3    H154877   1.578   0.473  12.868 -0.5466 -0.9830  0.7385
11154TIP3    H254878   1.542   0.610  12.922  1.1313  1.0159 -2.8071
11155TIP3   OH254879   0.750   1.613   4.170  0.1389  0.2043 -0.0021
11155TIP3    H154880   0.733   1.623   4.264  1.3856  0.8634  0.1701
11155TIP3    H254881   0.730   1.698   4.132 -0.7738 -0.1828 -0.4164
11156TIP3   OH254882   3.395   3.225  16.268  0.6296 -0.8383  0.0110
11156TIP3    H154883   3.485   3.256  16.279  0.3337 -0.2609  0.8411
11156TIP3    H254884   3.346   3.302  16.241  0.1132 -0.8187  0.9690
11157TIP3   OH254885   4.570   2.743   0.964 -0.2194  0.3686 -0.0991
11157TIP3    H154886   4.604   2.817   1.014 -1.4666 -0.3055  1.8504
11157TIP3    H254887   4.547   2.780   0.879 -2.2463  2.6262  1.2967
11158TIP3   OH254888   1.530   3.730  15.889  0.3284  0.2768 -0.1018
11158TIP3    H154889   1.551   3.759  15.978 -2.0063  1.2721  0.1973
11158TIP3    H254890   1.543   3.807  15.835  2.1294 -0.4315 -0.7396
11159TIP3   OH254891   0.861   5.761   0.840  0.9492  0.1033 -0.0657
11159TIP3    H154892   0.915   5.810   0.902  1.4743  0.4267 -0.7662
11159TIP3    H254893   0.819   5.828   0.787  0.3111 -0.1657  0.0892
11160TIP3   OH254894   6.364   5.846  11.979 -0.8762  0.4034  0.5258
11160TIP3    H154895   6.283   5.809  12.014 -0.9921 -0.2304 -0.3643
11160TIP3    H254896   6.427   5.773  11.981 -0.6623  0.5731  0.1796
11161TIP3   OH254897   0.193   3.297   2.174  0.2968  1.0541 -0.2269
11161TIP3    H154898   0.102   3.304   2.148 -0.1126 -1.3573  0.3070
11161TIP3    H254899   0.235   3.375   2.139 -2.3199  3.2482  1.1715
11162TIP3   OH254900   0.307   5.426   3.188  0.2069  0.1476 -0.0239
11162TIP3    H154901   0.346   5.390   3.267  0.4607 -0.1167 -0.2689
11162TIP3    H254902   0.359   5.505   3.169 -0.6906  0.9714  0.8210
11163TIP3   OH254903   4.994   4.977   1.015 -0.2574 -0.1434 -0.2676
11163TIP3    H154904   5.070   5.033   1.029 -0.3277  0.1025 -0.8127
11163TIP3    H254905   4.991   4.965   0.920 -0.5533 -0.6389 -0.1974
11164TIP3   OH254906   5.965   1.095  15.040  0.0108  0.1189  0.0608
11164TIP3    H154907   6.022   1.121  14.968 -0.2353  0.7484  0.0803
11164TIP3    H254908   6.016   1.115  15.119  0.3838 -0.8183  0.0599
11165TIP3   OH254909   3.047   5.985  14.603 -0.0334  0.1347 -0.3888
11165TIP3    H154910   2.960   5.984  14.562 -0.5210 -0.0808  0.6147
11165TIP3    H254911   3.107   5.956  14.534 -0.9234 -0.9691 -0.7326
11166TIP3   OH254912   4.708   2.440   1.904 -0.2572  0.0745  1.0415
11166TIP3    H154913   4.664   2.464   1.985 -0.8809  0.6442  0.5454
11166TIP3    H254914   4.652   2.374   1.864 -0.5164  0.5849  0.5511
11167TIP3   OH254915   0.096   0.457  15.263  0.1598 -0.0507  0.1964
11167TIP3    H154916   0.101   0.366  15.235 -0.0225 -0.1867  0.6015
11167TIP3    H254917   0.180   0.495  15.237  0.6567 -0.5994  0.9640
11168TIP3   OH254918   6.307   1.019   3.537 -0.7248  1.1316  0.0659
11168TIP3    H154919   6.230   0.994   3.486  0.6097 -0.1795 -1.4191
11168TIP3    H254920   6.284   1.104   3.574 -3.7003 -0.1749  1.5265
11169TIP3   OH254921   1.200   2.075   6.638  0.0430  0.1719  0.1636
11169TIP3    H154922   1.268   2.077   6.705  0.0468  2.4857  0.1703
11169TIP3    H254923   1.118   2.090   6.686 -0.5427 -2.5940  0.1580
11170TIP3   OH254924   5.550   5.569  16.218 -0.2506 -0.0432 -0.1231
11170TIP3    H154925   5.566   5.511  16.144  0.8096  0.5006 -0.3319
11170TIP3    H254926   5.458   5.596  16.208 -1.0238 -2.2850  0.4342
11171TIP3   OH254927   2.526   6.697  11.269  0.0377 -1.0139  0.0844
11171TIP3    H154928   2.601   6.754  11.253  0.6004 -1.6151  0.5254
11171TIP3    H254929   2.564   6.610  11.282 -0.6919 -1.2481  0.7594
11172TIP3   OH254930   5.267   5.134   0.047  0.4082 -0.2226 -0.0622
11172TIP3    H154931   5.356   5.167   0.059  0.7971 -1.4862  0.6637
11172TIP3    H254932   5.274   5.072  -0.025 -0.1048  0.4298 -0.6928
11173TIP3   OH254933   5.104   3.536  14.422  0.4167 -0.2094  0.1455
11173TIP3    H154934   5.032   3.478  14.395 -1.2145  1.3099  0.9916
11173TIP3    H254935   5.113   3.520  14.516 -0.0745  0.8771  0.3951
11174TIP3   OH254936   2.861   1.082   5.627 -0.1180 -0.0521  0.2964
11174TIP3    H154937   2.916   1.144   5.676  0.6483 -1.3610  1.1742
11174TIP3    H254938   2.914   1.057   5.552 -0.3821  0.2658  0.0015
11175TIP3   OH254939   2.358   4.324  13.252  0.1736  0.0732 -0.0463
11175TIP3    H154940   2.418   4.273  13.306  0.8119  0.9202  0.0747
11175TIP3    H254941   2.318   4.260  13.194  1.4061 -0.4900 -0.3177
11176TIP3   OH254942   5.114   1.292   5.605 -0.1281 -0.1795  0.5003
11176TIP3    H154943   5.206   1.298   5.630 -0.2597 -0.6393  1.1313
11176TIP3    H254944   5.075   1.373   5.637  0.0268 -0.0638  0.3923
11177TIP3   OH254945   6.636   5.936  11.257 -0.1664 -0.0409 -0.0228
11177TIP3    H154946   6.616   5.939  11.350 -1.1559  1.4801 -0.2564
11177TIP3    H254947   6.732   5.934  11.254 -0.0797  1.2369  1.0222
11178TIP3   OH254948   3.354   4.661   2.447  0.0875  0.1794 -0.3554
11178TIP3    H154949   3.430   4.604   2.443 -0.2653 -0.2269 -2.3402
11178TIP3    H254950   3.303   4.630   2.522  0.7377 -1.0159 -0.4006
11179TIP3   OH254951   5.792   3.273   0.619  0.2164 -0.6270 -0.2678
11179TIP3    H154952   5.843   3.294   0.697 -0.0394 -2.1150  0.3278
11179TIP3    H254953   5.852   3.286   0.547  0.6067  0.2896  0.2017
11180TIP3   OH254954   2.604   1.379  15.688  0.9054  0.6138  0.5392
11180TIP3    H154955   2.669   1.401  15.621 -0.3634  1.9461 -0.3080
11180TIP3    H254956   2.556   1.305  15.652  0.8682  0.6930  0.4280
11181TIP3   OH254957   4.217   4.712   0.936 -0.0486  0.6523  0.0107
11181TIP3    H154958   4.293   4.664   0.968  0.2652  0.2656 -1.2534
11181TIP3    H254959   4.163   4.725   1.013  0.7895 -0.0181  0.7360
11182TIP3   OH254960   2.678   2.275   2.579 -0.2185 -0.3928 -0.1177
11182TIP3    H154961   2.636   2.361   2.577  1.0623  0.2922  1.0807
11182TIP3    H254962   2.760   2.289   2.627  0.4385 -2.1025 -0.6718
11183TIP3   OH254963   2.996   1.267   5.787  0.0531  0.4971  0.6883
11183TIP3    H154964   2.997   1.271   5.883 -0.1589  2.0462  0.6513
11183TIP3    H254965   2.958   1.350   5.760  0.2540  0.1468 -0.7640
11184TIP3   OH254966   4.537   3.793  14.664  0.1536  0.3290  0.0683
11184TIP3    H154967   4.630   3.818  14.671  0.2915  0.1161 -0.8278
11184TIP3    H254968   4.537   3.699  14.678  0.1871  0.2012 -0.7439
11185TIP3   OH254969   2.234   5.461   3.183  0.0775 -0.2496 -0.1472
11185TIP3    H154970   2.239   5.428   3.272 -0.4547  0.4501  0.1447
11185TIP3    H254971   2.143   5.486   3.171  0.1970 -0.0899 -0.8021
11186TIP3   OH254972   0.106   1.483   3.332 -0.5264 -0.0789 -0.7317
11186TIP3    H154973   0.163   1.456   3.405 -1.2546  2.0573  0.7138
11186TIP3    H254974   0.159   1.545   3.283  0.1401 -1.8772 -2.3988
11187TIP3   OH254975   5.905   5.047   3.751  0.2873  0.2360  0.3140
11187TIP3    H154976   5.907   5.005   3.665 -0.9194  0.3072  0.2394
11187TIP3    H254977   5.983   5.014   3.795  0.8142  0.0370 -0.7233
11188TIP3   OH254978   4.628   1.608  12.812  0.3894 -0.4168 -0.4925
11188TIP3    H154979   4.542   1.642  12.787  0.8330 -0.3504 -2.0310
11188TIP3    H254980   4.641   1.531  12.756  1.5277 -0.1381 -0.6460
11189TIP3   OH254981   4.152   4.360   4.114 -0.2246 -0.3415 -0.1919
11189TIP3    H154982   4.057   4.367   4.112 -0.1717  0.2228 -1.2505
11189TIP3    H254983   4.174   4.354   4.207 -1.1365  1.8397  0.2198
11190TIP3   OH254984   5.393   6.242  11.229 -0.0063  1.0370 -0.1925
11190TIP3    H154985   5.483   6.215  11.211  0.0982  1.6085 -0.5598
11190TIP3    H254986   5.348   6.229  11.146 -0.6620 -0.7780  0.4086
11191TIP3   OH254987   5.010   5.356   4.847 -0.3242  0.1783 -0.0551
11191TIP3    H154988   5.089   5.319   4.887  1.2615  2.9226 -0.3371
11191TIP3    H254989   4.996   5.303   4.769  1.1410 -0.4986  0.0993
11192TIP3   OH254990   0.969   3.761  12.077 -0.0204  0.6574  0.2422
11192TIP3    H154991   1.040   3.730  12.134 -0.2653  0.9645  0.7216
11192TIP3    H254992   1.015   3.805  12.005  0.3253 -0.6621 -0.3773
11193TIP3   OH254993   3.076   1.627  16.501 -0.1591  0.6491  0.0806
11193TIP3    H154994   3.097   1.547  16.452  0.0507  1.2416 -0.8222
11193TIP3    H254995   2.981   1.625  16.510 -0.3368  1.1549 -1.4796
11194TIP3   OH254996   6.512   4.447   4.958  0.1082  0.0454 -0.5547
11194TIP3    H154997   6.463   4.366   4.970  0.2107 -0.0750 -0.9457
11194TIP3    H254998   6.452   4.516   4.986  0.3163 -0.2138  0.6083
11195TIP3   OH254999   2.126   4.517   1.862  0.0487  0.6544 -0.1215
11195TIP3    H155000   2.129   4.422   1.849 -1.6036  0.4161  0.9518
11195TIP3    H255001   2.138   4.554   1.775  2.6647 -0.4441 -0.3314
11196TIP3   OH255002   0.161   1.515  13.938 -0.3284 -0.3274 -0.4003
11196TIP3    H155003   0.149   1.569  14.016 -0.6494 -0.6960 -0.1928
11196TIP3    H255004   0.252   1.485  13.944  0.1645  0.9744 -1.0301
11197TIP3   OH255005   0.665   0.414   0.756  0.0096 -0.0136 -0.2204
11197TIP3    H155006   0.682   0.357   0.681  0.7728 -1.4178  0.9433
11197TIP3    H255007   0.571   0.428   0.755 -0.3467 -2.0112 -0.1384
11198TIP3   OH255008   0.750   6.668  14.653  0.7851  0.6001  0.5023
11198TIP3    H155009   0.709   6.750  14.625  0.7508  0.5053  0.2668
11198TIP3    H255010   0.750   6.672  14.748 -0.3312  0.3326  0.5232
11199TIP3   OH255011   0.006   4.629   3.262  0.1971  0.4116  0.1242
11199TIP3    H155012  -0.028   4.637   3.173  1.0109  1.6358 -0.0960
11199TIP3    H255013   0.101   4.627   3.251  0.3854  2.2026  1.0410
11200TIP3   OH255014   1.591   3.606  14.853 -0.6662 -0.0233  0.4683
11200TIP3    H155015   1.500   3.578  14.856 -0.4839 -0.6789  0.1183
11200TIP3    H255016   1.609   3.618  14.759 -0.2224 -0.4891  0.4892
11201TIP3   OH255017   2.476   3.695   4.186  0.0644 -0.0097  0.4706
11201TIP3    H155018   2.385   3.704   4.215 -0.4821 -1.2858 -0.7144
11201TIP3    H255019   2.474   3.621   4.125  2.0637 -0.6440  1.0981
11202TIP3   OH255020   6.377   4.316  14.610  0.3508 -0.5408 -0.6350
11202TIP3    H155021   6.292   4.276  14.629  0.2950  0.0925  0.5278
11202TIP3    H255022   6.362   4.410  14.618  0.8638 -0.3519 -1.7324
11203TIP3   OH255023   5.674   6.153  11.256 -0.4961 -0.3393  0.8095
11203TIP3    H155024   5.648   6.188  11.342 -1.1484 -0.3665  0.6218
11203TIP3    H255025   5.727   6.223  11.217 -2.0390  0.5860  0.3142
11204TIP3   OH255026   4.728   1.615   1.012 -0.0114 -0.4482  0.4220
11204TIP3    H155027   4.714   1.544   0.949  1.1089 -0.2189 -0.1131
11204TIP3    H255028   4.723   1.694   0.959  2.5973 -0.3138  0.2509
11205TIP3   OH255029   4.224   3.399  14.311  0.4628  0.1187 -0.1626
11205TIP3    H155030   4.169   3.436  14.379 -0.9102 -0.2893 -1.0151
11205TIP3    H255031   4.208   3.454  14.234 -0.6208 -1.3941 -1.0813
11206TIP3   OH255032   0.848   3.933  11.687 -0.0946 -0.1441 -0.3541
11206TIP3    H155033   0.915   3.994  11.656 -0.6359  0.0501 -1.1879
11206TIP3    H255034   0.766   3.972  11.657 -0.5760 -0.3826  0.6473
11207TIP3   OH255035   3.226   2.801   5.756 -0.3885  0.2091 -0.8863
11207TIP3    H155036   3.273   2.872   5.798 -1.1223  0.2963 -0.1918
11207TIP3    H255037   3.173   2.762   5.825  0.5564 -1.5148 -1.0519
11208TIP3   OH255038   4.320   1.063  11.088 -0.2128  0.2108 -0.0939
11208TIP3    H155039   4.339   1.017  11.170 -0.2767  2.1239  1.0775
11208TIP3    H255040   4.392   1.040  11.029  0.8877  0.2860  1.1716
11209TIP3   OH255041   3.442   4.163  12.475 -0.0158 -0.7268 -0.6714
11209TIP3    H155042   3.386   4.209  12.539 -0.2454 -1.5802 -0.2432
11209TIP3    H255043   3.498   4.107  12.529 -0.0510 -1.2870 -1.2152
11210TIP3   OH255044   1.870   1.980  15.745  0.0405  0.3780 -0.1938
11210TIP3    H155045   1.884   2.030  15.826  1.4937  0.2675 -0.3430
11210TIP3    H255046   1.776   1.967  15.741 -0.2387  1.8792  0.5984
11211TIP3   OH255047   2.552   3.731  16.288  0.3956  0.1867 -0.1225
11211TIP3    H155048   2.511   3.645  16.299 -1.1158  0.7391 -1.0328
11211TIP3    H255049   2.621   3.715  16.223  1.1100 -0.6001  0.7939
11212TIP3   OH255050   6.748   5.176  12.467 -0.1219  0.1398  0.1973
11212TIP3    H155051   6.738   5.094  12.515 -1.8023 -0.7399 -1.5272
11212TIP3    H255052   6.832   5.167  12.422  1.1280  0.6752  2.2837
11213TIP3   OH255053   4.097   6.257   3.119 -0.1820 -0.1405  0.3682
11213TIP3    H155054   4.102   6.250   3.214  0.0829  3.0843  0.7159
11213TIP3    H255055   4.007   6.285   3.102 -0.4895 -1.5718 -0.4386
11214TIP3   OH255056   2.413   3.325  11.202  0.4082  0.0694  0.8216
11214TIP3    H155057   2.503   3.349  11.182  0.8561 -0.2127  2.3944
11214TIP3    H255058   2.414   3.230  11.209 -0.7053 -0.2609 -2.2541
11215TIP3   OH255059   4.231   0.058  11.729  0.3806  0.3990  0.1701
11215TIP3    H155060   4.261  -0.015  11.784  0.2661  0.1532 -0.0913
11215TIP3    H255061   4.205   0.017  11.647 -0.5113  0.6193  0.3259
11216TIP3   OH255062   0.485   2.971  14.565 -0.7049 -0.3417  0.5737
11216TIP3    H155063   0.481   2.882  14.530 -0.5326  0.6202 -2.0540
11216TIP3    H255064   0.489   3.028  14.488  0.2298  1.9189  2.1754
11217TIP3   OH255065   5.988   4.461  15.286  0.5430  0.7672  0.4505
11217TIP3    H155066   5.968   4.508  15.205 -0.6603 -1.3037 -0.5224
11217TIP3    H255067   5.926   4.496  15.350 -0.0224  0.8353 -0.1266
11218TIP3   OH255068   4.728   4.205  11.816  0.3163 -0.1053  0.5978
11218TIP3    H155069   4.778   4.227  11.738 -0.5285  1.4085  0.4476
11218TIP3    H255070   4.677   4.283  11.836 -0.0452 -0.6979  2.2515
11219TIP3   OH255071   3.418   5.089  15.981  0.5065 -0.4293 -0.3105
11219TIP3    H155072   3.413   5.060  16.072  0.2386  0.2491 -0.1055
11219TIP3    H255073   3.449   5.179  15.986  0.8536 -0.5133 -0.9168
11220TIP3   OH255074   0.648   5.611   2.087  0.0981 -0.2219  0.1507
11220TIP3    H155075   0.586   5.549   2.125  2.4019 -2.2944  0.7657
11220TIP3    H255076   0.706   5.558   2.033  0.6208  1.8130 -1.4124
11221TIP3   OH255077   4.254   5.005  15.388 -0.3989  0.0604 -0.0630
11221TIP3    H155078   4.202   4.985  15.466  0.1335 -0.1177  0.2567
11221TIP3    H255079   4.345   4.988  15.415 -0.2637 -0.7025 -0.9327
11222TIP3   OH255080   4.344   3.409   5.304  0.2897 -0.5814  0.4375
11222TIP3    H155081   4.373   3.320   5.327  3.0274 -0.1677 -1.0299
11222TIP3    H255082   4.285   3.396   5.229  0.6606 -1.1696  0.2390
11223TIP3   OH255083   5.966   1.596  13.730 -0.1065 -0.2317 -0.4402
11223TIP3    H155084   6.025   1.665  13.760 -0.5669 -0.5401  1.2246
11223TIP3    H255085   6.002   1.571  13.644  0.5037  1.5189 -0.7420
11224TIP3   OH255086   0.953   3.538   1.295 -0.6055 -0.3424 -0.7436
11224TIP3    H155087   1.033   3.493   1.323 -1.7238 -1.7811  0.3247
11224TIP3    H255088   0.918   3.483   1.224 -0.7527  0.1600 -1.0632
11225TIP3   OH255089   1.549   3.167  12.594  0.2555 -0.1232 -0.8959
11225TIP3    H155090   1.566   3.087  12.644 -0.5704 -0.0565 -0.4956
11225TIP3    H255091   1.559   3.238  12.658  0.9453  0.1019 -1.2399
11226TIP3   OH255092   3.771   6.089   5.430  0.7200  0.8174 -0.0119
11226TIP3    H155093   3.779   6.052   5.342  1.2794 -0.1637  0.4350
11226TIP3    H255094   3.845   6.051   5.478  2.0644  3.4429  0.1622
11227TIP3   OH255095   3.462   6.630  16.716  0.1455 -0.1015  0.5469
11227TIP3    H155096   3.503   6.596  16.795  0.2120  0.6267  0.8346
11227TIP3    H255097   3.535   6.669  16.667 -0.2728  1.9258  1.4383
11228TIP3   OH255098   0.701   4.204   0.151 -0.2219 -0.4882 -0.2043
11228TIP3    H155099   0.795   4.213   0.167 -0.3370  0.3889  0.0053
11228TIP3    H255100   0.676   4.286   0.108 -0.4579 -1.6243 -2.4020
11229TIP3   OH255101   2.137   5.939  13.714 -0.4969 -0.2556  0.4312
11229TIP3    H155102   2.138   5.844  13.724 -2.5782 -0.3817 -0.0345
11229TIP3    H255103   2.066   5.955  13.652  1.2543  1.4942 -1.2580
11230TIP3   OH255104   0.633   4.183  14.842  0.5624  0.1266 -0.6053
11230TIP3    H155105   0.571   4.213  14.909  0.7301 -0.1223 -0.3339
11230TIP3    H255106   0.703   4.140  14.892  0.5477 -0.3138 -0.9562
11231TIP3   OH255107   4.970   0.843   1.300  0.3240  0.2676  0.1147
11231TIP3    H155108   5.008   0.783   1.365  2.0145  1.9458  0.7601
11231TIP3    H255109   5.046   0.878   1.253 -0.7761  0.1862 -1.8524
11232TIP3   OH255110   5.527   3.384  17.163  0.1119 -0.1897  0.0418
11232TIP3    H155111   5.552   3.350  17.077  0.5300 -0.5379  0.2955
11232TIP3    H255112   5.431   3.382  17.163  0.1027  0.1942 -0.5638
11233TIP3   OH255113   5.946   4.081  16.116 -0.2337  0.4667 -0.6485
11233TIP3    H155114   5.934   4.050  16.026 -0.5235  0.3828 -0.5807
11233TIP3    H255115   5.946   4.002  16.169 -0.9480  0.5756 -0.4787
11234TIP3   OH255116   5.477   3.761  12.711  0.1970  0.1432 -0.4347
11234TIP3    H155117   5.540   3.708  12.760  0.3345  0.1894 -0.5586
11234TIP3    H255118   5.391   3.728  12.738  0.2921 -0.6625 -1.0759
11235TIP3   OH255119   1.310   4.967   1.129 -0.0115 -0.5118  0.3874
11235TIP3    H155120   1.364   4.889   1.122  0.4403 -0.1980  0.3261
11235TIP3    H255121   1.226   4.936   1.163  0.0413 -1.0723  0.0163
11236TIP3   OH255122   6.372   5.388  15.519 -0.4365 -0.4865 -0.1582
11236TIP3    H155123   6.389   5.338  15.440 -1.0458 -1.3849  0.2625
11236TIP3    H255124   6.458   5.399  15.560 -0.0531  0.3743 -1.1499
11237TIP3   OH255125   1.556   5.255  12.584  0.7421 -0.0550 -0.7610
11237TIP3    H155126   1.617   5.305  12.639  0.4945  0.5130 -1.0017
11237TIP3    H255127   1.591   5.264  12.495  0.0543  0.6631 -0.9667
11238TIP3   OH255128   6.158   3.473  12.896 -0.2914  0.4178  0.0407
11238TIP3    H155129   6.164   3.567  12.908  1.5409  0.5179 -1.3032
11238TIP3    H255130   6.202   3.436  12.973  0.2601  0.7160 -0.1260
11239TIP3   OH255131   3.634   5.378  12.222  0.4766  0.1180  0.1957
11239TIP3    H155132   3.614   5.392  12.130  0.8620 -2.0983 -0.3022
11239TIP3    H255133   3.551   5.391  12.267  0.0643  0.3210 -0.6023
11240TIP3   OH255134   3.342   2.796   2.999 -0.6499  0.2944  0.7141
11240TIP3    H155135   3.248   2.790   3.017 -0.5879 -0.7661  0.7479
11240TIP3    H255136   3.369   2.706   2.981 -0.3498  0.9574 -2.9204
11241TIP3   OH255137   2.360   3.806  13.043 -0.5541  0.1055 -1.0719
11241TIP3    H155138   2.399   3.851  13.118 -0.0703 -2.4480  0.2938
11241TIP3    H255139   2.433   3.762  13.000 -1.4041 -2.1338 -0.3506
11242TIP3   OH255140   3.763   1.515  11.591 -0.1369  0.1332 -0.4441
11242TIP3    H155141   3.847   1.471  11.602  0.3779  1.4153  1.1577
11242TIP3    H255142   3.775   1.601  11.631 -2.0225  0.5958 -0.7533
11243TIP3   OH255143   1.992   2.315  15.245  0.1795 -0.6034 -0.2797
11243TIP3    H155144   1.986   2.393  15.191 -0.4427  0.2381  0.9703
11243TIP3    H255145   1.914   2.317  15.300  0.8079 -1.4016  0.6843
11244TIP3   OH255146   3.052   2.443  17.174 -0.1248 -0.3424  0.2500
11244TIP3    H155147   2.973   2.429  17.122  0.4244 -1.4912 -0.2988
11244TIP3    H255148   3.116   2.477  17.112  0.2603 -0.8514  0.3600
11245TIP3   OH255149   2.167   0.430   3.587  0.5023  0.0170 -0.2191
11245TIP3    H155150   2.201   0.489   3.654  0.0218  0.0450  0.0046
11245TIP3    H255151   2.218   0.452   3.509  1.3969 -0.3445  0.2460
11246TIP3   OH255152   3.622   2.322  15.518 -0.6050  0.1346 -0.3662
11246TIP3    H155153   3.636   2.265  15.594  1.5191  0.5904 -0.3756
11246TIP3    H255154   3.603   2.408  15.555 -2.7916 -0.2793 -0.3698
11247TIP3   OH255155   3.939   4.030  10.492 -0.0682  0.1115  0.3531
11247TIP3    H155156   3.862   3.984  10.525  0.4514 -0.0594  1.3506
11247TIP3    H255157   3.982   3.966  10.435 -0.9480  0.3959 -0.6571
11248TIP3   OH255158   3.014   0.857  13.264 -0.3936  0.0741  0.1114
11248TIP3    H155159   2.994   0.919  13.334  0.2214  0.1989  0.1846
11248TIP3    H255160   3.044   0.778  13.310  1.0456  0.5169 -0.0071
11249TIP3   OH255161   3.802   1.019  15.836 -0.4088  0.0058  0.1425
11249TIP3    H155162   3.843   1.003  15.751  1.9459  1.1544  0.9736
11249TIP3    H255163   3.754   0.938  15.855 -0.2017 -0.6379 -1.8139
11250TIP3   OH255164   3.705   6.083  16.463  0.3646  0.0842 -0.1989
11250TIP3    H155165   3.744   6.082  16.550 -0.4115 -0.4083  0.1473
11250TIP3    H255166   3.646   6.008  16.462 -0.4213  0.6881 -0.7864
11251TIP3   OH255167   2.712   5.518  10.583 -0.0058 -0.2086 -0.0184
11251TIP3    H155168   2.681   5.605  10.557 -1.8268 -0.5777  0.7547
11251TIP3    H255169   2.751   5.481  10.504  0.6087  1.2210 -0.4062
11252TIP3   OH255170   2.379   3.510  16.253  0.3569  0.0664  0.0661
11252TIP3    H155171   2.303   3.457  16.278 -1.5261  2.4921 -0.1663
11252TIP3    H255172   2.392   3.491  16.160  0.2954 -0.6627  0.2000
11253TIP3   OH255173   1.275   1.247  14.796 -0.4018  0.1527 -0.2747
11253TIP3    H155174   1.320   1.313  14.743  2.5695 -1.4925 -0.0830
11253TIP3    H255175   1.209   1.295  14.845  0.3322  2.6213 -1.5560
11254TIP3   OH255176   6.081   0.227   1.465 -0.1446  0.0936  0.3207
11254TIP3    H155177   6.034   0.251   1.545  0.2151 -0.2970  0.6509
11254TIP3    H255178   6.171   0.256   1.480  0.7694 -2.9186  1.4722
11255TIP3   OH255179   1.024   0.238  15.950  0.0605 -0.3590 -0.3899
11255TIP3    H155180   1.063   0.325  15.959  1.3706 -0.8794 -0.8421
11255TIP3    H255181   0.998   0.233  15.858 -1.3966  0.0873 -0.0350
11256TIP3   OH255182   1.978   4.833   2.581 -0.5390  0.1088  0.3255
11256TIP3    H155183   1.992   4.878   2.497  0.0171 -2.4886 -1.0621
11256TIP3    H255184   2.065   4.801   2.606 -1.3140 -2.9951 -0.5061
11257TIP3   OH255185   4.027   3.521  15.613 -0.5094 -0.4988 -0.1221
11257TIP3    H155186   4.072   3.561  15.539 -0.5274 -0.9182 -0.3643
11257TIP3    H255187   3.996   3.437  15.580  1.4670 -1.7441  0.9786
11258TIP3   OH255188   0.957   0.502  16.217 -0.0923 -0.4496 -0.1344
11258TIP3    H155189   1.016   0.430  16.195  0.3397  0.0647 -0.7174
11258TIP3    H255190   1.014   0.578  16.225 -0.6294 -0.0197 -0.3244
11259TIP3   OH255191   5.867   5.658  12.921  0.4498 -0.1460 -0.2520
11259TIP3    H155192   5.910   5.609  12.852 -1.3068 -0.1705 -1.4085
11259TIP3    H255193   5.938   5.698  12.971  1.8077  0.8424 -2.7760
11260TIP3   OH255194   4.562   6.458  17.325 -0.0095 -0.0394 -0.1535
11260TIP3    H155195   4.521   6.378  17.294  0.5558 -0.2282 -0.4296
11260TIP3    H255196   4.580   6.509  17.245 -1.7998  1.0822  0.1131
11261TIP3   OH255197   3.173   3.846   1.485 -0.3233  0.2063  0.3041
11261TIP3    H155198   3.266   3.869   1.489  0.0442 -1.0655 -0.4111
11261TIP3    H255199   3.166   3.787   1.409 -1.6057 -0.1941  0.7084
11262TIP3   OH255200   5.003   0.041   3.783  0.3019  0.9580  0.0400
11262TIP3    H155201   4.944   0.034   3.708  0.7745  2.4563 -0.4933
11262TIP3    H255202   5.023   0.134   3.790  0.8123  0.7617  1.6136
11263TIP3   OH255203   5.958   2.247   0.527  0.0039  0.2705 -0.0061
11263TIP3    H155204   6.036   2.244   0.582 -0.3879  0.7820  0.5937
11263TIP3    H255205   5.935   2.155   0.513  0.9945  0.1030 -0.6094
11264TIP3   OH255206   1.455   3.760  14.448 -0.4825 -0.1069 -0.2464
11264TIP3    H155207   1.366   3.726  14.454 -0.2369 -0.5788  1.4418
11264TIP3    H255208   1.446   3.854  14.461 -0.6193 -0.3699  2.0398
11265TIP3   OH255209   5.983   5.551   0.074 -0.2860  0.0343 -1.0457
11265TIP3    H155210   5.933   5.481   0.032 -0.2763  0.8648 -2.4832
11265TIP3    H255211   6.068   5.511   0.092 -0.5985 -0.6121 -0.9510
11266TIP3   OH255212   1.515   6.411  16.005  0.2498 -0.0706  0.4094
11266TIP3    H155213   1.574   6.460  15.947  1.0534 -0.0630  1.2012
11266TIP3    H255214   1.459   6.361  15.946  0.9725  0.0172 -0.3740
11267TIP3   OH255215   2.585   1.361  16.932  0.5341  0.1543 -0.3256
11267TIP3    H155216   2.493   1.382  16.913 -0.3356 -0.3339  2.7527
11267TIP3    H255217   2.633   1.439  16.906 -0.8904  0.8826 -0.9173
11268TIP3   OH255218   5.767   1.753   1.248  0.2360  0.0022 -0.7940
11268TIP3    H155219   5.815   1.836   1.252 -1.1112  0.7456  0.8368
11268TIP3    H255220   5.829   1.692   1.206  2.4288  1.0222  0.7683
11269TIP3   OH255221   4.053   0.019   3.881  0.2484 -0.6853  0.6589
11269TIP3    H155222   4.110   0.040   3.955 -1.3058 -0.7277  1.9418
11269TIP3    H255223   3.964   0.026   3.917 -0.5620 -0.6333 -1.2417
11270TIP3   OH255224   5.796   2.468   5.513  0.0930 -0.2691  0.1974
11270TIP3    H155225   5.785   2.563   5.518  0.7438 -0.2262  1.2169
11270TIP3    H255226   5.859   2.454   5.443  1.5015  0.2191  1.3131
11271TIP3   OH255227   1.799   4.586  12.936  0.3481 -0.0414  0.2677
11271TIP3    H155228   1.802   4.498  12.974 -3.7742 -0.5772 -0.1679
11271TIP3    H255229   1.756   4.640  13.003 -1.3240  0.4900 -1.1713
11272TIP3   OH255230   5.278   1.406   4.107  0.4967  0.0136  0.8066
11272TIP3    H155231   5.332   1.455   4.045 -1.6030 -0.3360 -1.4542
11272TIP3    H255232   5.320   1.320   4.113 -1.2473 -1.3991 -3.4289
11273TIP3   OH255233   5.169   5.351  11.397  0.5092 -1.2826  0.0825
11273TIP3    H155234   5.237   5.408  11.362  0.7749 -1.3828  0.4318
11273TIP3    H255235   5.144   5.391  11.480 -1.0382 -0.3239 -0.8027
11274TIP3   OH255236   3.323   5.969   3.211  0.4672 -0.2889 -0.8947
11274TIP3    H155237   3.266   5.912   3.263  0.7963 -0.0917 -0.3128
11274TIP3    H255238   3.411   5.945   3.237  0.6000  0.8623 -0.2394
11275TIP3   OH255239   4.525   5.677   1.987  0.2586  0.4105 -0.2901
11275TIP3    H155240   4.545   5.626   2.065 -1.5348  0.2269  0.1018
11275TIP3    H255241   4.556   5.765   2.007  1.0659  0.0471  0.0685
11276TIP3   OH255242   0.894   1.544  14.571 -0.2020 -0.0320 -0.1711
11276TIP3    H155243   0.801   1.545  14.548 -0.3841 -0.7317  0.5129
11276TIP3    H255244   0.918   1.452  14.571  0.3800  0.1139  0.1082
11277TIP3   OH255245   6.339   5.676   5.749  0.1295 -0.4975  0.0718
11277TIP3    H155246   6.278   5.698   5.679  1.7465 -0.3696 -1.3768
11277TIP3    H255247   6.419   5.724   5.727  1.1181 -1.5064  1.2859
11278TIP3   OH255248   3.776   4.178  12.707  0.4058 -0.3376 -0.7306
11278TIP3    H155249   3.855   4.233  12.705 -0.0015  0.4445  1.7169
11278TIP3    H255250   3.807   4.092  12.734  0.4072  0.1116  0.7933
11279TIP3   OH255251   3.493   5.181   3.946 -0.2943  0.0986  0.2474
11279TIP3    H155252   3.441   5.261   3.938 -1.3170 -0.3813  1.6497
11279TIP3    H255253   3.439   5.113   3.907 -0.4121 -0.2811  1.0545
11280TIP3   OH255254   5.673   1.912  15.747  0.2921 -0.3555  0.0834
11280TIP3    H155255   5.703   1.994  15.788 -1.0200 -1.4718  3.6755
11280TIP3    H255256   5.739   1.847  15.771 -0.5498 -1.0718  0.5027
11281TIP3   OH255257   4.832   6.179  16.304  0.2628 -0.1624  0.4432
11281TIP3    H155258   4.775   6.104  16.289 -1.0768  0.8451  0.3300
11281TIP3    H255259   4.847   6.180  16.398  0.7887 -0.9025  0.3804
11282TIP3   OH255260   4.610   1.910  15.423 -0.0059 -0.2186 -0.3055
11282TIP3    H155261   4.598   1.851  15.498  2.6600  1.1932  1.4036
11282TIP3    H255262   4.704   1.921  15.416 -0.3232  3.3434 -0.8515
11283TIP3   OH255263   0.628   6.233   6.451  0.5834  0.0345 -0.7384
11283TIP3    H155264   0.575   6.173   6.503 -0.2548 -0.2634 -1.8836
11283TIP3    H255265   0.646   6.306   6.509  1.2278 -1.0935  0.5421
11284TIP3   OH255266   2.852   2.139   6.296  0.1743 -0.5828  0.0611
11284TIP3    H155267   2.802   2.058   6.294  0.0512 -0.5101  0.1495
11284TIP3    H255268   2.930   2.118   6.346  0.7180 -0.9692 -0.9148
11285TIP3   OH255269   1.150   5.248   4.906  0.5090  0.3771 -0.3261
11285TIP3    H155270   1.214   5.309   4.870  1.4742 -0.6640 -0.4297
11285TIP3    H255271   1.106   5.212   4.829  0.9848 -0.1540 -0.3570
11286TIP3   OH255272   4.600   6.616   0.187 -0.3405 -0.4646 -0.3245
11286TIP3    H155273   4.648   6.690   0.151  1.0647 -1.0530  0.2385
11286TIP3    H255274   4.557   6.576   0.112  2.2790 -1.5052 -1.4068
11287TIP3   OH255275   0.914   0.638  14.793  0.1638  0.3543 -0.1221
11287TIP3    H155276   0.820   0.654  14.801  0.0213 -0.8616  1.0721
11287TIP3    H255277   0.955   0.709  14.842 -0.0163  1.8316 -2.0110
11288TIP3   OH255278   1.165   1.205  11.600  0.2481 -0.2559  0.3151
11288TIP3    H155279   1.175   1.212  11.695 -1.0983 -1.7869  0.6138
11288TIP3    H255280   1.143   1.293  11.571  2.8821  0.7469  1.0737
11289TIP3   OH255281   2.457   1.062   0.109  0.1501  0.7836 -0.7739
11289TIP3    H155282   2.483   0.974   0.079  0.2049  0.9249 -1.1481
11289TIP3    H255283   2.362   1.064   0.098  0.0764  0.5611 -0.1964
11290TIP3   OH255284   1.414   4.463   5.204 -0.4061 -0.0417  0.8386
11290TIP3    H155285   1.328   4.421   5.199  0.3237 -1.7312  1.5360
11290TIP3    H255286   1.422   4.512   5.122 -2.1075  0.3300  0.8624
11291TIP3   OH255287   1.833   3.455   0.914  0.2050 -0.0968  0.1644
11291TIP3    H155288   1.822   3.383   0.976  1.5070 -0.8857 -0.4739
11291TIP3    H255289   1.790   3.424   0.834 -1.4146  0.8911  0.6067
11292TIP3   OH255290   0.506   2.930   5.323 -0.1971  0.2774  0.7309
11292TIP3    H155291   0.568   2.858   5.332  0.1983  0.3817 -0.8982
11292TIP3    H255292   0.457   2.929   5.405 -0.5939 -2.2198  0.5553
11293TIP3   OH255293   4.004   4.820   3.638 -0.3001  0.0015 -0.3898
11293TIP3    H155294   4.028   4.750   3.577  2.2505 -1.7612  2.3479
11293TIP3    H255295   4.071   4.888   3.625 -0.2428 -0.0093 -0.1642
11294TIP3   OH255296   4.435   3.855   4.383 -0.2358 -0.0371 -0.2577
11294TIP3    H155297   4.387   3.936   4.401 -0.0615 -0.2767  1.3665
11294TIP3    H255298   4.371   3.800   4.336 -0.7891  0.5144 -0.1725
11295TIP3   OH255299   6.626   1.654   5.184  0.0469 -0.6384 -0.3718
11295TIP3    H155300   6.612   1.575   5.131 -2.8778  0.0460 -0.8300
11295TIP3    H255301   6.591   1.632   5.270  1.2319 -0.5140  0.1532
11296TIP3   OH255302   5.681   0.442  13.378  0.1856  0.4398  0.0258
11296TIP3    H155303   5.724   0.357  13.390  1.3822  1.2618  2.1515
11296TIP3    H255304   5.727   0.500  13.439 -0.4775  2.6722 -1.5009
11297TIP3   OH255305   0.586   6.253  17.238 -0.3389  0.2863  0.8710
11297TIP3    H155306   0.654   6.314  17.267  0.2383 -0.7010  1.6856
11297TIP3    H255307   0.534   6.236  17.316  0.2981 -1.2289  1.0019
11298TIP3   OH255308   1.489   1.722   1.856 -0.3436  0.4873 -0.3633
11298TIP3    H155309   1.431   1.662   1.808 -2.1028 -0.0714  2.2247
11298TIP3    H255310   1.555   1.665   1.896  0.6570  0.8542 -1.4639
11299TIP3   OH255311   2.909   4.614  16.541  0.3068  0.0763 -0.2231
11299TIP3    H155312   2.889   4.571  16.624  0.4153 -1.6070 -1.0215
11299TIP3    H255313   2.865   4.560  16.475  0.0340  1.5046 -1.2471
11300TIP3   OH255314   0.193   2.608  15.869  0.5092  0.2385 -0.1463
11300TIP3    H155315   0.130   2.543  15.899 -2.0411  2.9071  0.8010
11300TIP3    H255316   0.250   2.623  15.945  0.8817 -0.5764 -0.2529
11301TIP3   OH255317   1.613   3.211  16.824  0.7991  0.1391  0.1624
11301TIP3    H155318   1.612   3.306  16.826  0.7561  0.1741 -0.8339
11301TIP3    H255319   1.700   3.186  16.855  0.2635  0.4302  1.9806
11302TIP3   OH255320   4.855   3.084  16.002  0.1276  0.3186  0.1434
11302TIP3    H155321   4.849   3.097  16.096  1.3933  0.1554  0.2562
11302TIP3    H255322   4.784   3.137  15.966 -1.0205 -0.4215  1.2399
11303TIP3   OH255323   5.455   0.431  13.217  0.0726 -0.3219  0.6209
11303TIP3    H155324   5.539   0.440  13.263  0.7514  0.1630 -0.6441
11303TIP3    H255325   5.480   0.407  13.128 -0.9160  2.8214 -0.6572
11304TIP3   OH255326   4.406   5.844  11.953 -0.5918 -0.7770  0.2872
11304TIP3    H155327   4.481   5.895  11.982 -0.3979 -1.1675  0.4797
11304TIP3    H255328   4.393   5.869  11.862 -1.4421  0.7600  0.7839
11305TIP3   OH255329   0.391   5.593   1.488  0.4988  0.4494  0.4654
11305TIP3    H155330   0.404   5.511   1.440 -0.6233  1.0314 -0.9211
11305TIP3    H255331   0.432   5.660   1.432  0.6980  0.9489  1.1907
11306TIP3   OH255332   2.988   4.041  13.839 -0.4715  0.0881  0.4049
11306TIP3    H155333   2.943   4.118  13.876 -0.7984 -0.1092  0.4169
11306TIP3    H255334   3.068   4.077  13.800  0.2523  0.2246  1.9081
11307TIP3   OH255335   0.437   1.022   3.222 -0.4938 -0.3392 -0.1081
11307TIP3    H155336   0.408   0.941   3.264 -0.2078  0.8746  2.6492
11307TIP3    H255337   0.517   1.045   3.268  2.9229 -1.4057 -4.7049
11308TIP3   OH255338   1.194   3.580  15.085  0.0406 -0.4796  0.3249
11308TIP3    H155339   1.113   3.584  15.137  1.2082 -0.6576  2.2200
11308TIP3    H255340   1.207   3.670  15.055 -2.2968 -0.9089 -2.4140
11309TIP3   OH255341   4.932   2.581  16.651 -0.5295  0.1397 -0.4020
11309TIP3    H155342   4.883   2.498  16.651  0.6581 -0.6186  1.3105
11309TIP3    H255343   4.893   2.631  16.723 -1.2982  1.1599 -1.4822
11310TIP3   OH255344   4.129   2.400  16.650 -1.0928  0.0573 -0.1532
11310TIP3    H155345   4.136   2.320  16.597  1.5042 -0.1350  0.3443
11310TIP3    H255346   4.084   2.462  16.594 -1.0029 -1.0285 -1.4842
11311TIP3   OH255347   5.226   2.391   1.473  0.2819  0.1982  0.0873
11311TIP3    H155348   5.242   2.437   1.391 -0.5514  1.2224  0.4639
11311TIP3    H255349   5.273   2.308   1.464  0.7373  0.5619 -1.1518
11312TIP3   OH255350   6.334   2.036  11.118 -0.3600  0.2743 -0.1874
11312TIP3    H155351   6.404   1.979  11.086 -0.8868 -1.5196  1.6434
11312TIP3    H255352   6.328   2.106  11.053  3.9198  1.1927  0.1038
11313TIP3   OH255353   2.557   2.454   0.330 -0.1095 -0.1835 -0.1527
11313TIP3    H155354   2.631   2.456   0.269 -1.0497  0.5307 -1.3048
11313TIP3    H255355   2.593   2.414   0.410  1.3892 -0.2719 -0.8397
11314TIP3   OH255356   1.388   6.675  14.755 -0.1059  0.5064  0.0595
11314TIP3    H155357   1.360   6.633  14.836  1.8685 -0.6316  0.2223
11314TIP3    H255358   1.476   6.708  14.774 -0.7976  3.0674 -0.6890
11315TIP3   OH255359   1.799   1.168   1.059 -0.1091  0.7172 -0.3897
11315TIP3    H155360   1.894   1.174   1.068 -0.2081  2.0701 -0.0986
11315TIP3    H255361   1.781   1.205   0.973 -0.3107 -0.2798 -0.7819
11316TIP3   OH255362   2.608   0.853  16.309 -1.2442  0.5321 -0.4648
11316TIP3    H155363   2.562   0.932  16.279 -2.3322  0.2793  0.4668
11316TIP3    H255364   2.676   0.886  16.368 -1.1863  0.8205 -0.6878
11317TIP3   OH255365   1.028   2.527  13.287 -0.6360  0.1835  0.4901
11317TIP3    H155366   0.994   2.613  13.260 -1.4219  0.3350  1.8528
11317TIP3    H255367   1.055   2.540  13.378  2.3463 -0.1773 -0.2601
11318TIP3   OH255368   5.562   3.337  15.029  0.3976  0.3604 -0.2900
11318TIP3    H155369   5.596   3.260  15.074  0.1788  1.1956  1.3666
11318TIP3    H255370   5.594   3.329  14.939  1.1725 -1.1591  0.1015
11319TIP3   OH255371   1.647   5.241   4.370 -0.0167  0.2597 -0.6671
11319TIP3    H155372   1.658   5.324   4.416 -0.0803 -0.2867  0.3699
11319TIP3    H255373   1.695   5.178   4.423 -0.3860 -0.4591 -1.1694
11320TIP3   OH255374   2.769   0.769  11.518 -0.0826 -0.0761  0.1815
11320TIP3    H155375   2.847   0.823  11.506  0.1204 -0.6869 -1.6682
11320TIP3    H255376   2.707   0.824  11.565  1.4333  0.4401  1.6365
11321TIP3   OH255377   5.976   4.640   0.112 -0.4530  0.1137 -0.1490
11321TIP3    H155378   5.930   4.609   0.190 -0.7405  2.1261  0.5390
11321TIP3    H255379   5.954   4.733   0.107  2.5285  0.8795 -0.5088
11322TIP3   OH255380   3.200   2.616   4.570 -0.5995  0.4149  0.0231
11322TIP3    H155381   3.248   2.603   4.651 -0.9026  0.1828  0.1670
11322TIP3    H255382   3.208   2.532   4.524 -1.3374  0.1894  0.2996
11323TIP3   OH255383   1.285   3.507   1.156  0.1582 -0.1651  0.0247
11323TIP3    H155384   1.281   3.603   1.155 -0.5912 -0.1889 -0.6317
11323TIP3    H255385   1.261   3.482   1.067  2.9869 -0.9026 -0.5936
11324TIP3   OH255386   6.204   3.838  12.168 -0.0585  0.5233 -0.0488
11324TIP3    H155387   6.183   3.747  12.188 -2.3333  0.9551 -0.2481
11324TIP3    H255388   6.239   3.836  12.078 -0.6020 -0.0948 -0.2494
11325TIP3   OH255389   2.778   5.296   4.420  0.1603 -0.2231 -0.0672
11325TIP3    H155390   2.711   5.361   4.399  0.0867 -0.3040 -0.0838
11325TIP3    H255391   2.738   5.240   4.486  0.0387 -0.5547 -0.4165
11326TIP3   OH255392   2.868   5.290  12.411  0.4595  0.1844  0.4247
11326TIP3    H155393   2.935   5.222  12.405 -1.0704 -1.3285 -0.6861
11326TIP3    H255394   2.850   5.297  12.505 -0.0473 -1.7346  0.5241
11327TIP3   OH255395   4.560   4.353  16.368  0.4146 -0.2083 -0.1768
11327TIP3    H155396   4.509   4.398  16.435 -1.5848 -0.3037 -1.5416
11327TIP3    H255397   4.648   4.386  16.378 -0.4661  2.0868  0.5282
11328TIP3   OH255398   3.062   0.146  13.882  0.0493 -0.2224  0.6099
11328TIP3    H155399   3.001   0.150  13.956  1.3657 -1.8178  1.8525
11328TIP3    H255400   3.010   0.112  13.809 -1.1994  1.1138  0.8246
11329TIP3   OH255401   4.680   6.211  15.458  0.2637  0.2431 -0.2273
11329TIP3    H155402   4.624   6.135  15.441 -1.0234  0.6660  1.7621
11329TIP3    H255403   4.754   6.176  15.508  0.0127  0.1674  0.0999
11330TIP3   OH255404   1.831   0.340   2.576  0.2265 -0.4401 -0.4236
11330TIP3    H155405   1.784   0.314   2.655  0.2748  0.0611 -0.2291
11330TIP3    H255406   1.913   0.291   2.580  1.0121  0.9170  0.7428
11331TIP3   OH255407   6.022   5.094  17.092  0.2328 -0.3756  0.3744
11331TIP3    H155408   5.963   5.078  17.167  0.8691  0.4476  1.0719
11331TIP3    H255409   6.109   5.097  17.131  0.5528  0.2716 -0.3766
11332TIP3   OH255410   3.680   2.825  12.513  0.2624  0.4058 -0.4468
11332TIP3    H155411   3.708   2.875  12.589 -0.6443  0.1817  0.0483
11332TIP3    H255412   3.596   2.787  12.538  0.4443 -0.5329 -1.1833
11333TIP3   OH255413   1.726   1.936  11.661  0.0927  0.0329 -0.0042
11333TIP3    H155414   1.732   1.887  11.743  0.2447  0.4629  0.2401
11333TIP3    H255415   1.817   1.949  11.634  0.0367 -0.5404 -0.5061
11334TIP3   OH255416   2.652   2.438  11.405  0.3286 -0.2899  0.0036
11334TIP3    H155417   2.709   2.366  11.381  0.3818 -0.4178  0.4896
11334TIP3    H255418   2.579   2.397  11.452 -1.6121 -0.4447 -2.9230
11335TIP3   OH255419   0.758   4.505   0.345 -0.0678 -0.1094 -0.5543
11335TIP3    H155420   0.675   4.502   0.298 -0.1549  0.7273 -0.4644
11335TIP3    H255421   0.823   4.475   0.281 -0.7050 -3.3862  0.1183
11336TIP3   OH255422   1.721   1.371  15.257 -0.3407  0.0649  0.0528
11336TIP3    H155423   1.715   1.446  15.316 -0.7936  0.0105  0.0832
11336TIP3    H255424   1.781   1.311  15.300 -0.2938  0.2346  0.2261
11337TIP3   OH255425   0.694   4.460   4.294 -0.1836 -0.8919  0.3542
11337TIP3    H155426   0.771   4.517   4.305 -0.3682 -0.3855 -0.7963
11337TIP3    H255427   0.662   4.481   4.206 -0.9980 -1.8904  0.4026
11338TIP3   OH255428   3.712   0.957  16.515 -0.2045 -0.3409 -0.1762
11338TIP3    H155429   3.732   0.946  16.422  1.1744 -1.2637  0.1855
11338TIP3    H255430   3.710   1.051  16.528  2.5251 -0.1153 -0.6367
11339TIP3   OH255431   1.460   2.132   2.594  0.2939 -0.1044  0.2376
11339TIP3    H155432   1.379   2.168   2.632  0.2869 -0.6383  0.7550
11339TIP3    H255433   1.436   2.043   2.568  0.5351 -0.0324 -0.2354
11340TIP3   OH255434   3.887   4.038   4.425 -0.1155 -0.5608 -0.2615
11340TIP3    H155435   3.917   4.005   4.340  1.4182  0.6097 -0.2080
11340TIP3    H255436   3.806   4.086   4.405  0.3011 -0.1851 -1.0948
11341TIP3   OH255437   4.406   0.744   3.972 -0.1293 -0.0389  0.1182
11341TIP3    H155438   4.454   0.663   3.952 -0.2526 -0.0853  0.0081
11341TIP3    H255439   4.473   0.813   3.968 -0.3350  0.0905 -1.4461
11342TIP3   OH255440   6.702   3.730   2.898 -0.2255  0.1872 -0.4645
11342TIP3    H155441   6.711   3.643   2.939  0.5431  0.4824  0.0322
11342TIP3    H255442   6.609   3.739   2.881 -0.5230 -0.1277  0.8626
11343TIP3   OH255443   3.938   2.837   6.435  0.2119  0.6515 -0.4652
11343TIP3    H155444   3.868   2.799   6.381  0.0459 -1.5001  1.1269
11343TIP3    H255445   3.903   2.835   6.524  2.8403 -2.1818  0.6771
11344TIP3   OH255446   1.741   0.225  15.378 -0.0811  0.6457  0.1196
11344TIP3    H155447   1.740   0.308  15.330  0.1180 -0.4428 -1.8400
11344TIP3    H255448   1.801   0.241  15.451  1.0774  1.8033 -1.0316
11345TIP3   OH255449   1.973   3.212  17.352  0.0292  0.4304  0.2481
11345TIP3    H155450   2.057   3.188  17.391  0.6145  0.3390 -0.9961
11345TIP3    H255451   1.947   3.292  17.397 -0.7289 -1.1080  2.7565
11346TIP3   OH255452   2.697   3.061   1.977  0.0529  0.3829  0.1852
11346TIP3    H155453   2.663   3.068   1.888  0.6147  0.5693 -0.0171
11346TIP3    H255454   2.629   3.013   2.025  0.1706 -0.5685 -0.5750
11347TIP3   OH255455   4.274   3.018  12.770  0.2342  0.1497  0.0341
11347TIP3    H155456   4.299   2.972  12.850 -0.4541  0.6333  0.5368
11347TIP3    H255457   4.343   2.996  12.708  1.0621  0.1907  0.9147
11348TIP3   OH255458   2.249   0.134   5.951  0.1544 -0.3856  0.1698
11348TIP3    H155459   2.217   0.152   5.862  3.8646  0.4362 -1.1956
11348TIP3    H255460   2.179   0.164   6.009 -1.5112  1.1406 -2.4334
11349TIP3   OH255461   4.549   0.309   3.609  0.5273 -0.0585  0.1905
11349TIP3    H155462   4.547   0.373   3.680 -0.8766 -0.2908  0.3911
11349TIP3    H255463   4.588   0.231   3.649  1.3890  0.3589  0.1937
11350TIP3   OH255464   4.595   1.836  11.353 -0.7782 -0.6851  0.5617
11350TIP3    H155465   4.683   1.814  11.386 -0.9755  0.6384  2.0759
11350TIP3    H255466   4.580   1.925  11.383 -0.6183  1.1347 -4.0042
11351TIP3   OH255467   2.916   1.577   4.282 -0.6096 -0.3923 -0.5784
11351TIP3    H155468   2.872   1.562   4.365 -2.3888  0.0223 -1.3816
11351TIP3    H255469   3.008   1.559   4.299 -1.0697 -1.2486  1.2176
11352TIP3   OH255470   5.770   1.194   3.879  0.0382  0.0682  0.0315
11352TIP3    H155471   5.681   1.218   3.853  0.0469  1.9573  1.4727
11352TIP3    H255472   5.774   1.099   3.867 -1.7641  0.0980 -1.1992
11353TIP3   OH255473   4.847   1.954   0.633 -0.0231 -0.1821  0.5037
11353TIP3    H155474   4.828   2.046   0.615  0.9066  0.2467  1.5662
11353TIP3    H255475   4.777   1.906   0.589 -0.5401  1.0309 -0.0489
11354TIP3   OH255476   0.878   0.922   3.851 -0.1827 -0.2148  0.4904
11354TIP3    H155477   0.787   0.924   3.881  0.3092 -1.2534  2.2503
11354TIP3    H255478   0.928   0.952   3.927  1.0588 -1.3685  0.1647
11355TIP3   OH255479   5.294   5.350  14.901 -0.5559 -0.2024  0.5809
11355TIP3    H155480   5.380   5.308  14.908 -1.2139 -1.5926  0.6484
11355TIP3    H255481   5.244   5.292  14.844 -1.0807  1.2537 -0.4940
11356TIP3   OH255482   3.477   1.440  16.042  0.7169 -0.2168 -0.7999
11356TIP3    H155483   3.447   1.384  15.970  1.5920 -0.5651 -0.9145
11356TIP3    H255484   3.534   1.383  16.094 -0.0860 -0.0466  0.3199
11357TIP3   OH255485   6.000   2.437   0.174  0.0947 -0.0850  0.2872
11357TIP3    H155486   5.911   2.412   0.150 -1.3282  1.8155  3.0151
11357TIP3    H255487   6.011   2.524   0.136  0.4847  0.0214  0.6403
11358TIP3   OH255488   4.865   1.184  15.255 -0.0157 -0.2125 -0.0783
11358TIP3    H155489   4.913   1.267  15.249  0.8179 -0.6081  0.9572
11358TIP3    H255490   4.926   1.123  15.295 -0.6445 -1.3399 -0.7785
11359TIP3   OH255491   1.921   3.279   4.273  0.5165  0.3095 -0.2149
11359TIP3    H155492   1.930   3.371   4.248  1.8674 -0.4317 -2.8725
11359TIP3    H255493   1.838   3.251   4.234  1.5061 -0.2558 -2.0584
11360TIP3   OH255494   5.533   2.709  16.319  0.0016 -0.1971  0.3198
11360TIP3    H155495   5.449   2.731  16.278  0.0303 -0.0986  0.3127
11360TIP3    H255496   5.581   2.792  16.322 -0.7179  0.2143  2.2240
11361TIP3   OH255497   0.842   2.677  12.168 -0.0933 -0.5335 -0.4609
11361TIP3    H155498   0.909   2.630  12.119  1.6218  2.2446 -0.9849
11361TIP3    H255499   0.772   2.613  12.180  1.8532 -3.0341 -1.4673
11362TIP3   OH255500   2.477   2.944   0.165  0.0088  0.2566 -0.2727
11362TIP3    H155501   2.474   3.039   0.169  1.1255  0.3122 -0.2007
11362TIP3    H255502   2.540   2.925   0.095  0.1604 -0.4139  0.0317
11363TIP3   OH255503   0.700   6.512  15.419 -0.1052 -0.4763  0.5044
11363TIP3    H155504   0.640   6.587  15.428  0.4705 -0.0700  1.0326
11363TIP3    H255505   0.718   6.507  15.325  1.9980  1.7819  0.6879
11364TIP3   OH255506   6.074   4.203  12.699  0.3420 -0.3999  0.0589
11364TIP3    H155507   6.061   4.205  12.604  0.3461  0.0119  0.0638
11364TIP3    H255508   5.986   4.211  12.736  0.5144  2.2247  0.0885
11365TIP3   OH255509   1.389   2.841  11.476 -0.4217 -0.7739  0.0551
11365TIP3    H155510   1.394   2.793  11.394 -0.3165  0.0007 -0.3964
11365TIP3    H255511   1.469   2.894  11.479  0.0397 -1.4882  1.1040
11366TIP3   OH255512   5.465   4.504   2.605 -0.0116 -0.2666  0.3926
11366TIP3    H155513   5.506   4.519   2.520 -1.1590  1.5668  0.0931
11366TIP3    H255514   5.529   4.538   2.669  0.0702  0.1042  0.1178
11367TIP3   OH255515   5.520   5.063  14.092  0.3198 -0.4107  0.1577
11367TIP3    H155516   5.512   5.051  13.997 -0.3553  0.2978  0.1151
11367TIP3    H255517   5.577   4.992  14.120 -0.1049 -1.0974 -0.6699
11368TIP3   OH255518   2.622   1.074  15.376 -0.1148 -0.1831 -0.0731
11368TIP3    H155519   2.600   1.166  15.361 -0.8950 -0.3297  0.1121
11368TIP3    H255520   2.595   1.058  15.467  1.6209 -0.1407  0.4878
11369TIP3   OH255521   1.466   1.121  17.360 -0.1289 -0.0457 -0.7411
11369TIP3    H155522   1.504   1.139  17.446 -0.2076 -1.5128 -0.3734
11369TIP3    H255523   1.371   1.127  17.373 -0.2098 -1.6705 -0.3445
11370TIP3   OH255524   0.180   0.215   3.972  0.1605 -0.2409  0.5166
11370TIP3    H155525   0.168   0.204   4.066  1.5663 -2.4268  0.4991
11370TIP3    H255526   0.189   0.126   3.938  0.2099  0.5216 -1.6266
11371TIP3   OH255527   0.034   1.153   6.796  0.5604  0.1607  0.2527
11371TIP3    H155528  -0.042   1.128   6.848  0.1304  1.9602  0.5447
11371TIP3    H255529   0.039   1.087   6.727 -1.6294  0.3325 -0.1161
11372TIP3   OH255530   0.965   3.559   4.136  0.2344 -0.2504 -0.0156
11372TIP3    H155531   0.942   3.646   4.103  0.4175 -0.1533  0.1082
11372TIP3    H255532   0.881   3.514   4.147  0.1375 -0.0785 -0.0533
11373TIP3   OH255533   5.135   2.669  14.120  0.4079  0.6196  0.4587
11373TIP3    H155534   5.228   2.677  14.141  1.1197 -2.3288 -1.0255
11373TIP3    H255535   5.128   2.701  14.030  0.3366 -0.4963  0.0430
11374TIP3   OH255536   3.393   0.831  17.095 -0.0735  0.2417 -0.3536
11374TIP3    H155537   3.430   0.883  17.166 -1.7985  0.7794  0.1899
11374TIP3    H255538   3.319   0.786  17.134 -0.6690  0.0440 -1.6638
11375TIP3   OH255539   0.879   6.309  13.259  0.2929  0.1429 -0.3546
11375TIP3    H155540   0.849   6.224  13.225  0.4886  0.1853 -0.6423
11375TIP3    H255541   0.950   6.287  13.319  1.0735  0.1503 -1.2364
11376TIP3   OH255542   3.203   4.178   4.442 -0.3317 -0.4183 -0.3815
11376TIP3    H155543   3.126   4.129   4.470  0.7444 -2.7164 -1.2204
11376TIP3    H255544   3.258   4.183   4.520 -0.6712 -0.0586 -0.1604
11377TIP3   OH255545   2.370   0.647   5.873  0.3039 -0.3576  0.3838
11377TIP3    H155546   2.399   0.558   5.891 -0.2670 -0.7832 -0.6836
11377TIP3    H255547   2.308   0.668   5.943  0.3386 -0.8537  0.5606
11378TIP3   OH255548   0.280   0.115   3.555 -0.1548 -0.4783 -0.0207
11378TIP3    H155549   0.244   0.181   3.495 -0.6245 -1.6085 -1.0345
11378TIP3    H255550   0.212   0.102   3.621  0.5599  1.1264  1.0859
11379TIP3   OH255551   0.893   1.296  14.854  0.4351 -0.2421  0.0183
11379TIP3    H155552   0.892   1.226  14.789  0.1108 -0.2007 -0.0232
11379TIP3    H255553   0.874   1.254  14.937  0.3306 -0.2188  0.0071
11380TIP3   OH255554   4.707   1.075  13.916 -0.3741  0.3043  0.7251
11380TIP3    H155555   4.710   0.980  13.920 -0.7591  0.2206 -0.5142
11380TIP3    H255556   4.746   1.097  13.831 -1.6866  1.1581  0.3200
11381TIP3   OH255557   1.407   5.491   0.620  0.0108  0.6324  0.0729
11381TIP3    H155558   1.341   5.471   0.554  0.0670 -0.2064  0.2637
11381TIP3    H255559   1.423   5.585   0.610 -0.4236  0.6317 -0.6927
11382TIP3   OH255560   5.433   5.351  16.971 -0.2346  0.8072  0.3265
11382TIP3    H155561   5.476   5.434  16.949  1.0639 -0.1455 -0.8512
11382TIP3    H255562   5.496   5.284  16.949 -0.9627 -0.5151  1.9850
11383TIP3   OH255563   4.016   3.619   3.762  0.0777 -0.2640 -0.2811
11383TIP3    H155564   4.087   3.556   3.770  1.5466  1.2825 -0.3873
11383TIP3    H255565   4.019   3.648   3.671 -0.9868 -0.4808 -0.4012
11384TIP3   OH255566   6.405   4.437   1.149  0.3848  0.2569 -0.2055
11384TIP3    H155567   6.346   4.455   1.222  1.5187 -0.3179  0.9048
11384TIP3    H255568   6.367   4.483   1.075 -1.1450  0.3452  0.5999
11385TIP3   OH255569   4.904   3.995  15.907 -0.3021 -0.4848  0.1673
11385TIP3    H155570   4.866   3.945  15.835  1.3334 -3.4928  1.2242
11385TIP3    H255571   4.842   3.984  15.979  0.0538 -1.0309  0.3983
11386TIP3   OH255572   5.272   4.606  11.268  0.0965 -0.4669  0.3807
11386TIP3    H155573   5.265   4.550  11.191 -2.3737  1.2095 -0.7422
11386TIP3    H255574   5.191   4.590  11.316 -0.4431  1.6625  0.2853
11387TIP3   OH255575   0.932   3.700   0.042  0.0728 -0.4013 -0.2893
11387TIP3    H155576   0.952   3.647   0.119  0.5541 -0.5646 -0.5183
11387TIP3    H255577   0.855   3.659   0.003 -1.4010  0.8455  1.1841
11388TIP3   OH255578   1.088   6.203  17.074 -0.0966  0.1434  0.0820
11388TIP3    H155579   0.997   6.178  17.056  0.0293 -0.9723  0.8381
11388TIP3    H255580   1.130   6.120  17.100  1.5804  0.2801 -1.9534
11389TIP3   OH255581   4.478   4.415   5.035  0.6247  0.3000 -0.3669
11389TIP3    H155582   4.391   4.394   5.000  1.4016  0.5590 -2.6522
11389TIP3    H255583   4.505   4.336   5.082 -1.1605  0.5326  1.1674
11390TIP3   OH255584   2.423   4.294  15.232 -0.9132  0.0221 -0.3036
11390TIP3    H155585   2.399   4.252  15.149  0.1891 -0.3955 -0.4255
11390TIP3    H255586   2.470   4.373  15.206  0.1762 -0.5360 -0.1087
11391TIP3   OH255587   2.819   4.707  11.683  0.4227  0.1851  0.1164
11391TIP3    H155588   2.857   4.625  11.654  0.6522  0.4392 -0.3061
11391TIP3    H255589   2.731   4.708  11.647 -0.1463 -0.5883  1.4292
11392TIP3   OH255590   2.089   5.393   0.791 -0.0199 -0.1342  0.4045
11392TIP3    H155591   2.050   5.481   0.799  0.2393  0.0345 -0.1002
11392TIP3    H255592   2.166   5.396   0.847 -0.0401 -0.0581  0.4298
11393TIP3   OH255593   1.519   4.379  12.545  0.4470 -0.1797  0.0154
11393TIP3    H155594   1.452   4.439  12.579  0.9174 -0.0495  0.7395
11393TIP3    H255595   1.470   4.312  12.499 -0.2251 -0.3692  0.9762
11394TIP3   OH255596   3.521   5.827  11.756  0.1765 -0.2848 -0.3029
11394TIP3    H155597   3.538   5.906  11.809  1.0573 -0.2445 -0.6217
11394TIP3    H255598   3.426   5.817  11.758  0.2190 -1.2076  2.6379
11395TIP3   OH255599   0.501   1.352  14.915 -0.2913  0.1894  0.2550
11395TIP3    H155600   0.563   1.417  14.947  2.2860 -1.7018 -0.5076
11395TIP3    H255601   0.456   1.321  14.993  0.0135  1.3497  0.9020
11396TIP3   OH255602   0.756   5.151   1.438 -0.3040 -0.2116 -0.3110
11396TIP3    H155603   0.835   5.098   1.450  1.7454  2.6001 -0.5489
11396TIP3    H255604   0.685   5.087   1.440  1.5339 -2.5727  3.8036
11397TIP3   OH255605   1.900   6.739   3.852  0.6085 -0.0788  0.1711
11397TIP3    H155606   1.907   6.656   3.806  0.6841 -0.4284  0.7987
11397TIP3    H255607   1.938   6.803   3.793 -0.6413 -0.2791 -0.8754
11398TIP3   OH255608   1.671   5.570  12.529  0.4127  0.0062 -0.2923
11398TIP3    H155609   1.669   5.525  12.614  0.4959  0.7471  0.1180
11398TIP3    H255610   1.747   5.533  12.484  0.4194 -0.3318 -0.0077
11399TIP3   OH255611   2.165   3.456  15.000  0.5562  0.1706  0.0192
11399TIP3    H155612   2.182   3.486  14.911 -0.5098 -1.4291 -0.7669
11399TIP3    H255613   2.103   3.384  14.990  1.2863 -0.7991  1.9737
11400TIP3   OH255614   2.369   5.520  16.972 -0.3759  0.5037  0.3510
11400TIP3    H155615   2.439   5.585  16.971  0.8303 -0.7672  0.1983
11400TIP3    H255616   2.330   5.525  16.885 -1.8486  2.5880  1.0319
11401TIP3   OH255617   4.046   1.981   5.098  0.3899  0.4790 -0.2654
11401TIP3    H155618   3.968   2.026   5.130  0.7120  0.5073  0.4978
11401TIP3    H255619   4.081   2.038   5.030 -0.2065  0.5017 -0.5605
11402TIP3   OH255620   1.196   4.964   4.133 -0.3382  0.4091  0.4691
11402TIP3    H155621   1.265   4.912   4.174 -0.3321 -0.7662 -0.9629
11402TIP3    H255622   1.243   5.031   4.083 -0.3458  1.8421  2.2813
11403TIP3   OH255623   0.878   0.075  13.656 -0.4770 -0.0907 -0.1020
11403TIP3    H155624   0.784   0.056  13.652 -0.4299 -0.6616  1.2659
11403TIP3    H255625   0.903   0.056  13.746  0.6285  1.6131 -0.0066
11404TIP3   OH255626   4.194   0.434  10.596 -0.3878  0.5617  0.0425
11404TIP3    H155627   4.133   0.365  10.569  1.0329  0.2133 -2.7020
11404TIP3    H255628   4.141   0.497  10.642 -2.4054 -0.7398 -0.3774
11405TIP3   OH255629   1.159   2.552  14.495 -0.1601 -0.0721  0.0918
11405TIP3    H155630   1.165   2.478  14.556 -1.0724  0.7067  1.1537
11405TIP3    H255631   1.237   2.543  14.439  1.6250  0.0927  2.4042
11406TIP3   OH255632   3.588   4.189   5.880 -0.1198  0.6576 -0.2737
11406TIP3    H155633   3.594   4.102   5.841 -1.4671  0.3368  0.1849
11406TIP3    H255634   3.522   4.234   5.829 -1.7120  0.3300  1.3918
11407TIP3   OH255635   3.367   0.567   3.201  0.4101  0.1719  0.1963
11407TIP3    H155636   3.383   0.549   3.293  0.1105 -0.1688  0.1861
11407TIP3    H255637   3.291   0.625   3.200  0.6148  0.4417  0.1765
11408TIP3   OH255638   1.725   5.712  12.751 -0.2163 -0.0621  1.0884
11408TIP3    H155639   1.715   5.679  12.662  0.4578  0.0887  0.9530
11408TIP3    H255640   1.815   5.745  12.755 -0.4162  0.4304  1.6609
11409TIP3   OH255641   6.724   5.653   2.537  0.6575  0.3697 -0.0056
11409TIP3    H155642   6.710   5.732   2.588  0.7678  0.1242  0.4129
11409TIP3    H255643   6.675   5.667   2.456 -2.8711 -0.7711  1.7001
11410TIP3   OH255644   3.560   4.057  16.276  0.3431  0.0421  0.2133
11410TIP3    H155645   3.554   4.075  16.182  0.8724  0.1368  0.1916
11410TIP3    H255646   3.653   4.070  16.296  0.7067 -2.2469  0.2849
11411TIP3   OH255647   3.948   2.056   3.936  0.4452  0.6715  0.0301
11411TIP3    H155648   3.941   2.150   3.922  0.2609  0.6846  0.2060
11411TIP3    H255649   3.932   2.017   3.850 -1.0835  0.7322  0.2623
11412TIP3   OH255650   5.064   4.760  12.288 -0.5917 -0.0302  0.3681
11412TIP3    H155651   5.131   4.696  12.266 -0.2433 -0.0987  1.5387
11412TIP3    H255652   4.996   4.748  12.222  0.5434  0.0676 -0.8781
11413TIP3   OH255653   0.902   5.270   5.795  0.5910 -0.3402  0.1298
11413TIP3    H155654   0.964   5.316   5.852 -0.0406 -0.4305  0.9027
11413TIP3    H255655   0.956   5.239   5.723  1.2988  0.3162  0.3515
11414TIP3   OH255656   2.362   4.974   1.889 -0.0245  0.2142 -0.1167
11414TIP3    H155657   2.283   4.975   1.943 -0.1560 -0.0984 -0.2995
11414TIP3    H255658   2.344   5.037   1.819 -0.3157 -0.2318 -0.4443
11415TIP3   OH255659   0.635   6.119  14.994 -0.1158  0.6660 -0.5238
11415TIP3    H155660   0.595   6.187  15.047 -0.5161 -0.0556  0.1230
11415TIP3    H255661   0.603   6.135  14.905 -3.0527 -0.6893  0.1604
11416TIP3   OH255662   2.122   2.796   2.934  0.0688  0.4821  0.1086
11416TIP3    H155663   2.202   2.823   2.980  0.2645 -1.5021  1.0474
11416TIP3    H255664   2.104   2.708   2.968 -2.6868  0.9690  0.1386
11417TIP3   OH255665   4.997   0.893  12.566  0.6549 -0.3146  0.0336
11417TIP3    H155666   4.932   0.960  12.545  1.6570  0.5116 -0.4935
11417TIP3    H255667   4.946   0.813  12.576 -0.3277  0.0942 -1.4404
11418TIP3   OH255668   5.594   2.557   4.234 -0.1272 -0.2575 -0.2419
11418TIP3    H155669   5.560   2.467   4.231  0.3105 -0.4676  0.6987
11418TIP3    H255670   5.652   2.563   4.158 -1.7136 -0.1047 -1.4773
11419TIP3   OH255671   5.464   2.625  13.283  0.7344 -0.3711  0.1422
11419TIP3    H155672   5.497   2.579  13.205  3.2063  0.4558  0.6276
11419TIP3    H255673   5.539   2.675  13.315 -1.4291  2.9186  0.4791
11420TIP3   OH255674   6.223   5.165   0.230  0.5906 -0.0305 -0.3780
11420TIP3    H155675   6.266   5.167   0.316  0.2378 -1.2558 -0.1597
11420TIP3    H255676   6.130   5.170   0.250  0.4928 -0.6432 -0.6692
11421TIP3   OH255677   2.368   1.135   0.414  0.3675 -0.1726 -0.6226
11421TIP3    H155678   2.462   1.125   0.431  0.1680 -0.8403  0.1273
11421TIP3    H255679   2.336   1.046   0.404 -0.0781  0.0843 -1.5294
11422TIP3   OH255680   1.229   6.207  16.836 -0.2981  0.4415  0.4474
11422TIP3    H155681   1.195   6.213  16.926 -2.9442  0.5322 -0.4630
11422TIP3    H255682   1.290   6.280  16.829  0.5114  0.0070  2.3735
11423TIP3   OH255683   3.467   6.479   1.449 -0.2716  0.0007 -0.0071
11423TIP3    H155684   3.393   6.537   1.464 -0.6499 -0.4412 -0.1173
11423TIP3    H255685   3.488   6.443   1.535  1.4231  1.9866  0.4783
11424TIP3   OH255686   1.125   4.802  13.340 -0.2048 -0.4914 -0.1559
11424TIP3    H155687   1.057   4.740  13.365 -0.5515  0.9288  2.7808
11424TIP3    H255688   1.207   4.762  13.369  0.0861 -1.3430 -1.9914
11425TIP3   OH255689   3.225   6.662  15.392 -0.1615 -0.0326 -0.5103
11425TIP3    H155690   3.169   6.645  15.468 -1.0612  0.0424 -1.1457
11425TIP3    H255691   3.312   6.677  15.429 -0.0378 -2.5063  0.3428
11426TIP3   OH255692   6.511   0.718   1.769 -0.1651 -0.2403 -0.2302
11426TIP3    H155693   6.422   0.712   1.734 -0.5805 -1.9975  1.0172
11426TIP3    H255694   6.559   0.647   1.728  0.4156  0.1101 -0.1762
11427TIP3   OH255695   2.343   4.949  14.630 -0.6061 -0.2030  0.0682
11427TIP3    H155696   2.385   4.920  14.711 -1.5345  0.9057  0.9864
11427TIP3    H255697   2.362   4.880  14.567  2.2545  0.0393  0.5234
11428TIP3   OH255698   1.039   6.390   5.841 -0.1188 -0.3213  0.1549
11428TIP3    H155699   1.059   6.298   5.858  0.4800  0.1061  1.9285
11428TIP3    H255700   0.945   6.398   5.858  0.1982 -0.2143  1.9852
11429TIP3   OH255701   0.742   5.495  14.082 -0.3145  0.0753 -0.1787
11429TIP3    H155702   0.738   5.565  14.146 -0.0875 -0.0494 -0.0293
11429TIP3    H255703   0.822   5.511  14.033 -0.5203  0.2075 -0.4760
11430TIP3   OH255704   6.312   4.774  17.021  0.2937 -0.1967  0.6176
11430TIP3    H155705   6.387   4.806  17.071 -0.5189 -0.2327  1.9059
11430TIP3    H255706   6.282   4.851  16.972  1.1828 -0.1949  0.0471
11431TIP3   OH255707   0.212   1.448  16.179  0.3267  0.3560  0.7506
11431TIP3    H155708   0.308   1.449  16.180  0.3307  0.2069  0.6140
11431TIP3    H255709   0.188   1.524  16.127  0.4464 -1.6395 -2.4874
11432TIP3   OH255710   1.437   6.590  11.052  0.6797 -0.3925 -0.3421
11432TIP3    H155711   1.443   6.504  11.011  0.8568 -0.7698  0.4689
11432TIP3    H255712   1.375   6.639  10.996  0.0080 -1.2778 -0.3874
11433TIP3   OH255713   0.101   2.620   3.039 -0.2037 -0.0589  0.1857
11433TIP3    H155714   0.008   2.621   3.064  0.4152  0.2082  2.7554
11433TIP3    H255715   0.146   2.586   3.116  1.7048 -2.3792 -1.7633
11434TIP3   OH255716   5.985   2.151  11.990 -0.4698 -0.3591  0.0834
11434TIP3    H155717   6.072   2.134  11.954 -0.0374  1.3729  0.2429
11434TIP3    H255718   5.977   2.246  11.990 -1.9879 -0.4555  0.9780
11435TIP3   OH255719   2.202   1.299  14.905  0.1142  0.8044 -0.1263
11435TIP3    H155720   2.145   1.359  14.953 -1.8502 -1.3486  0.4194
11435TIP3    H255721   2.179   1.311  14.813 -1.2699  0.0011  0.0813
11436TIP3   OH255722   0.627   1.109   1.192  0.4551  0.0903  0.3533
11436TIP3    H155723   0.597   1.090   1.103 -0.9101  0.5803  0.6792
11436TIP3    H255724   0.623   1.205   1.198 -0.7993 -0.0073  1.3623
11437TIP3   OH255725   1.426   5.488   5.531  0.2479  0.5405  0.0609
11437TIP3    H155726   1.500   5.548   5.524  0.1694  0.6130 -0.1416
11437TIP3    H255727   1.423   5.444   5.446  2.6374 -2.4746  1.3488
11438TIP3   OH255728   1.605   3.187  11.799 -0.5579 -0.6888 -0.2252
11438TIP3    H155729   1.656   3.106  11.806  0.0989 -0.2896 -0.2385
11438TIP3    H255730   1.544   3.171  11.728 -0.2071 -1.0611 -0.4500
11439TIP3   OH255731   3.438   0.626  15.545 -0.2787  0.3672 -0.1099
11439TIP3    H155732   3.437   0.591  15.456  2.1561  1.0359 -0.4784
11439TIP3    H255733   3.425   0.721  15.533 -0.8109  0.3574  0.3423
11440TIP3   OH255734   2.269   4.988   2.597  0.1198  0.0851 -0.1402
11440TIP3    H155735   2.353   4.970   2.557 -0.9470 -1.2364 -1.9312
11440TIP3    H255736   2.236   5.065   2.550 -0.1284 -0.0457 -0.1815
11441TIP3   OH255737   1.576   3.600   4.759 -0.5307 -0.6406 -0.0465
11441TIP3    H155738   1.634   3.569   4.828 -0.5776  0.0963  0.3394
11441TIP3    H255739   1.532   3.676   4.797  2.0532  2.0725 -1.9733
11442TIP3   OH255740   3.132   2.013  11.953 -0.0116  0.9955 -0.1585
11442TIP3    H155741   3.129   2.048  11.864 -0.0878  0.4362 -0.3768
11442TIP3    H255742   3.217   2.042  11.987  1.1231 -0.8290 -1.2699
11443TIP3   OH255743   5.328   3.884  16.539 -0.8701 -0.3848  0.0277
11443TIP3    H155744   5.337   3.887  16.444  1.1880  0.7585  0.1980
11443TIP3    H255745   5.264   3.814  16.555 -2.0329  0.0662 -2.2038
11444TIP3   OH255746   1.007   5.164   3.935 -0.0039  0.6385 -0.2852
11444TIP3    H155747   1.028   5.173   4.028  1.5659 -0.5244 -0.4800
11444TIP3    H255748   1.078   5.110   3.900  1.4852  3.9251 -2.9313
11445TIP3   OH255749   5.021   1.300  13.175 -0.5326 -0.1125 -0.3628
11445TIP3    H155750   5.101   1.346  13.151  0.2697 -0.8519  0.7753
11445TIP3    H255751   5.040   1.208  13.157 -0.7130 -0.4159  0.8967
11446TIP3   OH255752   3.178   5.363  11.752 -0.8774  0.5135  0.3503
11446TIP3    H155753   3.199   5.335  11.841 -0.4321 -0.7025 -0.1239
11446TIP3    H255754   3.215   5.296  11.695 -1.1452  1.2722 -0.7682
11447TIP3   OH255755   0.260   5.640  16.470 -0.3362 -0.0687 -0.6930
11447TIP3    H155756   0.352   5.628  16.449 -0.2304 -0.0528 -0.2515
11447TIP3    H255757   0.213   5.598  16.398  0.0195 -0.2580 -0.8152
11448TIP3   OH255758   3.833   3.559  16.001  0.1984 -0.4628 -0.2180
11448TIP3    H155759   3.765   3.500  15.966 -0.0636  0.1465 -0.7818
11448TIP3    H255760   3.784   3.624  16.051  0.4847 -0.7179  0.3989
11449TIP3   OH255761   1.763   0.286  13.765  0.3332  0.0021 -0.7207
11449TIP3    H155762   1.773   0.254  13.675  1.7308 -0.8687 -0.2781
11449TIP3    H255763   1.743   0.208  13.816 -1.8644  0.6723 -0.4310
11450TIP3   OH255764   2.814   0.795   2.572  0.0449 -0.3949 -0.0571
11450TIP3    H155765   2.905   0.816   2.593  0.0115 -0.2554 -0.0558
11450TIP3    H255766   2.811   0.699   2.573  0.0824 -0.3925  0.3920
11451TIP3   OH255767   3.260   6.098  12.162 -0.1137  0.1221 -0.3664
11451TIP3    H155768   3.164   6.095  12.164 -0.1199  0.7724  0.4874
11451TIP3    H255769   3.285   6.013  12.125 -0.9951 -0.3815  0.1513
11452TIP3   OH255770   2.589   1.696  14.616 -0.2938  0.5849  0.6219
11452TIP3    H155771   2.638   1.657  14.543 -0.5791 -0.6901  1.0730
11452TIP3    H255772   2.520   1.746  14.574  0.6318  1.3734 -0.0022
11453TIP3   OH255773   2.133   5.757  11.700 -0.1007  0.2874  0.1958
11453TIP3    H155774   2.144   5.846  11.668  1.3085  0.2597  0.5315
11453TIP3    H255775   2.104   5.708  11.623 -0.2046  0.9015 -0.1637
11454TIP3   OH255776   2.810   3.370  14.725 -0.3491 -0.3533 -0.6712
11454TIP3    H155777   2.864   3.312  14.670 -1.2497 -2.7239  0.7748
11454TIP3    H255778   2.726   3.374  14.678 -0.6560 -1.2049 -0.2165
11455TIP3   OH255779   4.602   2.951  15.500  0.0121  0.1013 -0.6746
11455TIP3    H155780   4.565   2.874  15.458 -0.0069 -0.2476 -0.0278
11455TIP3    H255781   4.631   2.920  15.586  1.1625  0.5212 -0.8819
11456TIP3   OH255782   1.593   4.538   0.648  0.0492  0.0875  0.2840
11456TIP3    H155783   1.627   4.467   0.593  0.5446  0.9288 -0.5114
11456TIP3    H255784   1.509   4.505   0.680  0.1798 -0.7748 -0.2307
11457TIP3   OH255785   4.594   4.473   5.600 -0.2360 -0.1209 -0.2996
11457TIP3    H155786   4.623   4.434   5.517  0.1145  0.0313 -0.2492
11457TIP3    H255787   4.556   4.399   5.648  1.1027 -0.5662  0.1027
11458TIP3   OH255788   3.213   6.603   3.979  0.0175  0.9111  0.2274
11458TIP3    H155789   3.159   6.668   4.022  0.6813  1.1857  0.6594
11458TIP3    H255790   3.297   6.646   3.967  0.8441 -0.2392  1.5734
11459TIP3   OH255791   0.661   5.453  12.153  0.4737  0.5308 -0.3211
11459TIP3    H155792   0.568   5.462  12.130  0.2475  0.8139  0.6351
11459TIP3    H255793   0.689   5.543  12.173  1.0958  0.5150 -1.0785
11460TIP3   OH255794   1.633   1.048  14.929  0.1200  0.1379 -0.0614
11460TIP3    H155795   1.578   1.122  14.955 -1.7538 -0.4021 -2.2025
11460TIP3    H255796   1.573   0.974  14.923  1.4313 -0.9183 -0.6897
11461TIP3   OH255797   6.147   6.000   3.552 -0.2649 -0.5935  0.1023
11461TIP3    H155798   6.205   5.927   3.576  0.0028 -0.2957  0.3650
11461TIP3    H255799   6.162   6.013   3.459  2.7429  1.7570  0.7571
11462TIP3   OH255800   3.025   0.928   0.759  0.3698  0.4744  0.5737
11462TIP3    H155801   2.965   0.870   0.711  0.6427 -0.5087  1.3873
11462TIP3    H255802   3.111   0.912   0.720  0.2735  1.1602  0.0641
11463TIP3   OH255803   0.089   5.142   4.822  0.2121 -0.4335 -0.3014
11463TIP3    H155804   0.014   5.099   4.781  0.1878 -2.9472  2.0240
11463TIP3    H255805   0.163   5.084   4.803  0.6936 -0.2407  0.8931
11464TIP3   OH255806   4.356   1.722   0.528  0.1837 -0.0571 -0.4378
11464TIP3    H155807   4.348   1.628   0.510  0.2074 -0.4060  1.2126
11464TIP3    H255808   4.276   1.744   0.574  0.5132  0.5819 -0.1616
11465TIP3   OH255809   5.264   1.429   3.739  0.4016 -0.0504 -0.0117
11465TIP3    H155810   5.172   1.435   3.761 -0.0410 -1.8985 -1.2033
11465TIP3    H255811   5.289   1.520   3.719 -1.4433  0.3314 -0.7973
11466TIP3   OH255812   3.050   2.255  13.239  0.2972 -0.2369 -0.5576
11466TIP3    H155813   3.032   2.310  13.163  1.2265 -1.9496 -2.0662
11466TIP3    H255814   3.129   2.293  13.278  0.7627 -0.3203 -1.4140
11467TIP3   OH255815   4.095   4.660   4.505 -0.7251 -0.2871  0.2087
11467TIP3    H155816   4.017   4.616   4.540  0.4461 -1.5859  1.2758
11467TIP3    H255817   4.096   4.637   4.412 -0.9161 -1.3439  0.4580
11468TIP3   OH255818   4.710   2.309   4.320  0.2777 -0.6097  0.1654
11468TIP3    H155819   4.658   2.382   4.287  1.6880  0.4491  0.1674
11468TIP3    H255820   4.715   2.324   4.414  0.5427 -0.7133  0.1704
11469TIP3   OH255821   4.436   3.859   6.248 -0.6739  0.2121 -0.1194
11469TIP3    H155822   4.505   3.906   6.295  0.7879 -2.5620  0.7549
11469TIP3    H255823   4.396   3.803   6.315 -0.6477 -1.5579 -1.5068
11470TIP3   OH255824   6.737   1.165   1.156 -0.1687  0.2045 -1.0747
11470TIP3    H155825   6.750   1.141   1.247  0.3300 -1.4285 -1.5339
11470TIP3    H255826   6.662   1.113   1.128  0.3963 -0.2052 -1.8793
11471TIP3   OH255827   0.564   0.565  15.363 -0.0286  0.1381  0.1774
11471TIP3    H155828   0.659   0.557  15.369  0.1910  0.9419 -1.6168
11471TIP3    H255829   0.533   0.475  15.350  0.4230 -0.1620  1.0450
11472TIP3   OH255830   6.129   3.832   1.602  0.3765 -0.5907  0.5795
11472TIP3    H155831   6.094   3.883   1.530  0.7962 -0.2727  0.5990
11472TIP3    H255832   6.164   3.753   1.561 -0.3788 -0.9270  0.5632
11473TIP3   OH255833   0.088   0.498   2.948 -0.3348 -0.5537  0.4056
11473TIP3    H155834   0.168   0.467   2.990 -0.0208 -2.3464 -1.3655
11473TIP3    H255835   0.017   0.460   2.999 -0.0309 -0.3909  0.9596
11474TIP3   OH255836   4.286   6.000   4.612 -0.4557 -0.0903 -0.8122
11474TIP3    H155837   4.193   6.002   4.587 -1.2637 -0.3481  1.8580
11474TIP3    H255838   4.311   6.092   4.619 -0.6919 -0.0134 -0.9489
11475TIP3   OH255839   0.071   0.394   0.391 -0.4596 -0.2013  0.4964
11475TIP3    H155840   0.109   0.326   0.446 -0.3207  0.1636  0.8505
11475TIP3    H255841   0.146   0.436   0.349 -0.5445 -0.2531  0.2896
11476TIP3   OH255842   0.920   6.519  13.564 -0.1244  0.0203 -0.0350
11476TIP3    H155843   1.002   6.557  13.532  0.0928  0.8746  1.4177
11476TIP3    H255844   0.876   6.487  13.486  0.2892  2.0876 -1.1874
11477TIP3   OH255845   0.636   6.083   4.562 -0.2394  0.1383 -0.1828
11477TIP3    H155846   0.662   6.114   4.649 -2.2310  0.8291  0.2268
11477TIP3    H255847   0.581   6.007   4.580  0.5885 -0.6519 -0.9409
11478TIP3   OH255848   3.129   4.957   6.532 -0.2982  0.3341  0.8301
11478TIP3    H155849   3.204   5.014   6.550 -0.5140  0.1766  2.3578
11478TIP3    H255850   3.061   5.016   6.498  0.3406  0.5494 -0.1142
11479TIP3   OH255851   1.758   1.423  14.993 -0.2917  0.3848  0.6129
11479TIP3    H155852   1.748   1.377  15.076  2.4644  3.4242  2.8774
11479TIP3    H255853   1.668   1.446  14.968 -1.2087 -0.2502  2.9985
11480TIP3   OH255854   4.551   4.878   0.198  0.2094  0.0763  0.2242
11480TIP3    H155855   4.546   4.790   0.236  1.8555  0.3046  1.0113
11480TIP3    H255856   4.493   4.931   0.252 -1.4914 -0.6513 -0.7771
11481TIP3   OH255857   1.625   0.965  13.289 -0.0256 -0.5025  0.0162
11481TIP3    H155858   1.603   1.056  13.313 -0.7408 -0.7210  0.2240
11481TIP3    H255859   1.544   0.916  13.305  0.4823 -1.2594  0.3381
11482TIP3   OH255860   2.118   4.909   3.804  0.0960 -0.1427  0.1011
11482TIP3    H155861   2.114   4.820   3.770  0.8683 -0.3444  0.5068
11482TIP3    H255862   2.211   4.926   3.817 -0.0095  0.9194 -0.4557
11483TIP3   OH255863   2.021   5.080  12.059 -0.2464 -0.1665  0.0348
11483TIP3    H155864   1.967   5.129  12.121 -1.4976 -2.5423  0.9358
11483TIP3    H255865   1.971   5.081  11.977  0.0797  0.6016 -0.1705
11484TIP3   OH255866   5.995   5.128  14.261 -0.6244 -0.0922 -0.1863
11484TIP3    H155867   5.920   5.187  14.257  0.1868  0.9499 -0.7808
11484TIP3    H255868   5.962   5.044  14.229 -2.5991 -0.9347  3.4894
11485TIP3   OH255869   1.511   3.975  13.347  0.3933  0.2439  0.7119
11485TIP3    H155870   1.565   3.931  13.281 -0.9286  0.5465 -0.6324
11485TIP3    H255871   1.491   3.907  13.411  1.9608  0.0148  0.9951
11486TIP3   OH255872   2.187   0.075  16.215 -0.0325  0.0539 -0.2450
11486TIP3    H155873   2.201   0.009  16.282  0.7912 -0.1793 -0.6386
11486TIP3    H255874   2.187   0.026  16.133  0.4131  0.5201 -0.5271
11487TIP3   OH255875   5.948   5.415   0.587 -0.3801 -0.4057 -0.4444
11487TIP3    H155876   5.996   5.349   0.636 -1.8312 -1.1096  0.0854
11487TIP3    H255877   5.957   5.495   0.638  1.8621  0.0007 -1.3824
11488TIP3   OH255878   3.520   3.323  12.771  0.0625 -0.2726 -0.2224
11488TIP3    H155879   3.477   3.404  12.744  0.1949 -0.5550 -1.3645
11488TIP3    H255880   3.535   3.333  12.865 -1.9065  0.1030  0.0865
11489TIP3   OH255881   5.612   0.962   1.390 -0.0704 -0.1089 -0.2161
11489TIP3    H155882   5.664   1.042   1.380 -0.5752  0.3697  0.8621
11489TIP3    H255883   5.582   0.964   1.481  1.6420 -2.5815  0.5033
11490TIP3   OH255884   5.000   6.278  11.350 -0.0957  0.2073  0.5798
11490TIP3    H155885   5.090   6.258  11.375 -0.3660 -0.3379  1.1641
11490TIP3    H255886   4.998   6.373  11.338  0.6310  0.1806  0.2430
11491TIP3   OH255887   4.728   4.907  14.948  0.1559  0.1214  0.0028
11491TIP3    H155888   4.704   4.953  14.868  2.1105  0.0602 -0.6828
11491TIP3    H255889   4.824   4.912  14.951  0.2017 -0.7829  1.7965
11492TIP3   OH255890   0.482   3.838   4.454 -0.3062  0.7131 -1.2039
11492TIP3    H155891   0.416   3.900   4.485 -0.5390  0.1968 -0.6399
11492TIP3    H255892   0.507   3.788   4.532 -1.3921 -1.0720 -1.9263
11493TIP3   OH255893   1.556   3.584   0.844 -0.3173 -0.3147 -0.1185
11493TIP3    H155894   1.469   3.600   0.806 -0.0816  0.1343 -0.4763
11493TIP3    H255895   1.570   3.490   0.832  0.0012 -0.0941 -1.7080
11494TIP3   OH255896   5.272   3.204   3.033  1.1171 -0.3136  0.4488
11494TIP3    H155897   5.184   3.176   3.057  1.5065 -1.3424  0.7346
11494TIP3    H255898   5.259   3.284   2.982 -0.0078 -0.6750  0.1382
11495TIP3   OH255899   1.705   3.996   0.143 -0.0409 -0.3968 -0.0409
11495TIP3    H155900   1.695   3.922   0.202  0.3815 -0.2670  0.1997
11495TIP3    H255901   1.617   4.032   0.135  0.0848  0.3596  1.5446
11496TIP3   OH255902   5.930   1.550  12.121  0.7014 -0.1630 -0.4251
11496TIP3    H155903   5.951   1.638  12.090 -1.9412  0.0265 -1.9294
11496TIP3    H255904   5.850   1.560  12.172  0.5398 -1.6345 -0.3308
11497TIP3   OH255905   6.532   2.439  10.986  0.6309  0.1730 -0.1928
11497TIP3    H155906   6.583   2.501  11.038  1.1983  0.3297 -0.9162
11497TIP3    H255907   6.586   2.360  10.982 -0.5709 -0.7961  1.6479
11498TIP3   OH255908   0.996   0.146  12.658  0.1376  0.4556 -0.8022
11498TIP3    H155909   1.058   0.075  12.646 -0.7407 -0.4431 -0.2040
11498TIP3    H255910   1.046   0.226  12.640  1.2755 -0.2798 -0.9652
11499TIP3   OH255911   6.239   3.346  13.125  0.2758  0.0777 -0.0400
11499TIP3    H155912   6.197   3.363  13.210 -1.6046 -1.1541 -0.6545
11499TIP3    H255913   6.316   3.293  13.147 -0.4114 -0.5847  0.8834
11500TIP3   OH255914   6.058   4.264  13.399 -0.5216 -0.4292  0.7628
11500TIP3    H155915   6.098   4.259  13.312 -3.0687 -2.0258 -0.4599
11500TIP3    H255916   6.102   4.196  13.449  1.3117  0.8249  0.9540
11501TIP3   OH255917   0.072   0.282   1.093 -0.0154 -0.1458  0.3507
11501TIP3    H155918  -0.010   0.241   1.120 -0.8490  0.2741 -1.3479
11501TIP3    H255919   0.054   0.376   1.094 -0.0292 -0.0900 -1.2703
11502TIP3   OH255920   4.291   5.960  11.729  0.0820 -0.0300 -0.6783
11502TIP3    H155921   4.334   6.045  11.734  0.3272 -0.1652 -0.4596
11502TIP3    H255922   4.199   5.979  11.744  0.0679  0.2567 -1.1091
11503TIP3   OH255923   5.314   5.690  16.198 -0.8138  0.0328 -0.0822
11503TIP3    H155924   5.220   5.679  16.181 -0.5495  0.4839 -2.0353
11503TIP3    H255925   5.319   5.767  16.255 -1.6470 -0.2813  0.4349
11504TIP3   OH255926   4.116   2.762  12.420  0.3320  0.0465  0.0021
11504TIP3    H155927   4.059   2.696  12.460  0.6991 -0.2068  0.1111
11504TIP3    H255928   4.071   2.845  12.436 -0.3383 -0.2121 -0.4981
11505TIP3   OH255929   3.625   0.820  15.754 -0.3051 -0.4216  0.7410
11505TIP3    H155930   3.635   0.788  15.664 -0.9320  1.7132 -0.1714
11505TIP3    H255931   3.568   0.756  15.796 -1.4920 -0.5609 -0.9666
11506TIP3   OH255932   6.125   2.019  12.945  0.4945 -0.0135 -0.1957
11506TIP3    H155933   6.076   1.944  12.911 -0.1528  0.3355 -0.0449
11506TIP3    H255934   6.103   2.023  13.038  1.6560 -0.4967  0.1211
11507TIP3   OH255935   0.588   0.114  14.387  0.8272  0.0436  0.2500
11507TIP3    H155936   0.657   0.166  14.345 -1.2788  0.7360 -2.6502
11507TIP3    H255937   0.587   0.032  14.338 -0.1905 -0.0932  0.4786
11508TIP3   OH255938   1.403   5.710   1.226 -0.2206  0.0426 -0.1845
11508TIP3    H155939   1.333   5.656   1.263 -0.9507  1.8150  1.1803
11508TIP3    H255940   1.416   5.780   1.290  1.3049  0.9873 -1.4418
11509TIP3   OH255941   1.337   2.366   2.494  0.4400 -0.0978  0.4607
11509TIP3    H155942   1.392   2.430   2.449 -0.8716  1.6515  1.2419
11509TIP3    H255943   1.323   2.297   2.428  0.9643  0.9532 -0.8003
11510TIP3   OH255944   3.538   4.377   0.721 -0.3840 -0.3396 -0.4232
11510TIP3    H155945   3.613   4.337   0.765 -0.1638  0.6252  0.1113
11510TIP3    H255946   3.467   4.314   0.734  0.3833 -1.4135 -1.2063
11511TIP3   OH255947   2.122   4.052   4.523 -0.6113  0.0615  0.2468
11511TIP3    H155948   2.171   3.977   4.556  1.6512  1.0286 -0.7455
11511TIP3    H255949   2.041   4.015   4.490 -0.0750 -1.7723  0.8626
11512TIP3   OH255950   0.622   2.496   2.181 -0.3979 -0.1038  0.1159
11512TIP3    H155951   0.689   2.550   2.223  0.5209  0.7319 -2.1999
11512TIP3    H255952   0.554   2.486   2.247  0.9862  0.9367  1.8040
11513TIP3   OH255953   4.818   4.044   0.180 -0.1770 -0.0430 -0.2076
11513TIP3    H155954   4.747   4.081   0.232  0.2381 -1.0047  1.1090
11513TIP3    H255955   4.779   3.970   0.134 -0.2019 -0.1276 -0.0517
11514TIP3   OH255956   1.923   5.993  10.810 -0.0269 -0.4599  0.0147
11514TIP3    H155957   2.015   6.012  10.829  0.4986 -2.3013 -0.4586
11514TIP3    H255958   1.926   5.925  10.743 -1.7924  1.4114 -2.1047
11515TIP3   OH255959   4.906   4.254  17.167 -0.2514 -0.0525 -0.2064
11515TIP3    H155960   4.818   4.283  17.145 -0.4388 -0.4230  0.0588
11515TIP3    H255961   4.934   4.203  17.091 -0.6995 -0.8895  0.1860
11516TIP3   OH255962   4.211   1.329   3.152  0.7241  0.5159 -0.1211
11516TIP3    H155963   4.173   1.339   3.240  1.4674  2.7687  0.0065
11516TIP3    H255964   4.156   1.263   3.110 -0.2833  0.1272  1.6915
11517TIP3   OH255965   6.600   3.305   4.987  0.3534  0.0350  0.4508
11517TIP3    H155966   6.663   3.334   4.921 -1.1642  1.0713 -0.6009
11517TIP3    H255967   6.643   3.231   5.030  1.5228 -0.4959 -1.4994
11518TIP3   OH255968   0.448   2.203  16.961  0.7479 -0.2347  0.2993
11518TIP3    H155969   0.509   2.265  16.922  1.6633 -0.9510  0.5404
11518TIP3    H255970   0.434   2.235  17.050  1.9509 -0.8411  0.7359
11519TIP3   OH255971   0.392   3.223   0.555  0.5024  0.0011  0.3440
11519TIP3    H155972   0.367   3.295   0.496 -0.6583 -1.2236 -0.7312
11519TIP3    H255973   0.346   3.147   0.520  2.2000 -1.4232  1.0633
11520TIP3   OH255974   1.172   3.216  16.334 -0.5748  0.4827 -0.7000
11520TIP3    H155975   1.158   3.206  16.428 -0.9304  1.1495 -0.6714
11520TIP3    H255976   1.117   3.149  16.294  0.8382 -0.9103 -0.3989
11521TIP3   OH255977   0.148   4.986   3.822  0.1228  0.2130  0.4509
11521TIP3    H155978   0.134   4.897   3.790  0.8734 -0.2128  1.2622
11521TIP3    H255979   0.075   5.036   3.785 -0.5464 -0.8198  0.3165
11522TIP3   OH255980   0.247   4.400   3.370  0.8696  0.0586  0.5656
11522TIP3    H155981   0.270   4.414   3.278 -0.8303  0.8486  0.2268
11522TIP3    H255982   0.256   4.305   3.382  2.1802  0.0785 -0.0951
11523TIP3   OH255983   6.125   0.687   5.461  0.6988 -0.0256 -0.2994
11523TIP3    H155984   6.162   0.601   5.440 -0.0377 -0.8371  1.4546
11523TIP3    H255985   6.184   0.722   5.528  0.1573  0.1475  0.0909
11524TIP3   OH255986   5.089   3.702  15.427  0.4001  0.0058  0.2433
11524TIP3    H155987   5.122   3.613  15.414  1.2183  0.4240 -0.6349
11524TIP3    H255988   5.134   3.755  15.361  1.0094  1.3404  1.6678
11525TIP3   OH255989   3.488   2.130  14.672  0.3019 -0.2224 -0.7330
11525TIP3    H155990   3.509   2.038  14.684 -0.7515 -0.3362  0.4504
11525TIP3    H255991   3.552   2.177  14.726 -0.0079 -0.3556 -0.2378
11526TIP3   OH255992   0.600   5.771  12.227  0.0009  0.4380 -0.0735
11526TIP3    H155993   0.519   5.784  12.176  0.2869  0.9213 -0.4114
11526TIP3    H255994   0.628   5.859  12.251  1.4089  0.4364 -1.5159
11527TIP3   OH255995   3.478   5.876  13.331  0.0980 -0.4391 -0.4639
11527TIP3    H155996   3.518   5.953  13.289 -1.7194  0.6359 -0.3145
11527TIP3    H255997   3.522   5.802  13.290  3.0070  0.6402  0.4688
11528TIP3   OH255998   3.648   5.048  13.004  0.4499 -0.4693 -0.6637
11528TIP3    H155999   3.742   5.060  13.019  0.6517 -0.1655 -2.0687
11528TIP3    H256000   3.621   4.985  13.071  1.6711 -0.6148 -0.2853
11529TIP3   OH256001   1.322   0.447  15.643  0.2624  0.5619  0.0332
11529TIP3    H156002   1.298   0.505  15.715 -2.1081 -1.3498  0.9221
11529TIP3    H256003   1.255   0.378  15.644  2.4531 -1.7736 -1.4302
11530TIP3   OH256004   0.887   0.007  12.982 -0.9568 -0.3027  0.4594
11530TIP3    H156005   0.940  -0.058  12.936 -1.3096 -0.0564 -0.3128
11530TIP3    H256006   0.833  -0.044  13.042  0.2273 -0.5493  1.3636
11531TIP3   OH256007   2.782   0.462  14.131 -0.4796  0.9360  0.2959
11531TIP3    H156008   2.865   0.439  14.172 -0.7167  0.9160  0.7693
11531TIP3    H256009   2.805   0.482  14.040 -0.2040 -0.7722 -0.0405
11532TIP3   OH256010   2.755   2.307   1.645  0.1596 -0.3440 -0.1084
11532TIP3    H156011   2.814   2.302   1.720  0.1349 -0.3558 -0.0897
11532TIP3    H256012   2.687   2.242   1.664 -0.5300  0.5283  0.4492
11533TIP3   OH256013   6.121   0.723  14.809  0.7347  0.0850 -0.3814
11533TIP3    H156014   6.046   0.758  14.762  0.4093  0.1319  0.1552
11533TIP3    H256015   6.090   0.717  14.900  0.2476 -2.9522 -0.6420
11534TIP3   OH256016   1.996   6.371   5.603  0.3538  0.1101  0.1319
11534TIP3    H156017   1.951   6.293   5.571 -0.0603  0.4429 -0.0974
11534TIP3    H256018   1.933   6.442   5.592  0.6295  0.4326  0.5952
11535TIP3   OH256019   5.705   3.638   0.072  0.3118 -0.9326  0.1956
11535TIP3    H156020   5.799   3.619   0.072  0.6294  0.3275  2.3271
11535TIP3    H256021   5.664   3.558   0.038  2.0649 -2.0176  0.5506
11536TIP3   OH256022   3.734   2.410  13.605 -0.2829 -0.4363 -0.7452
11536TIP3    H156023   3.675   2.475  13.643 -1.1749  0.1130 -2.8972
11536TIP3    H256024   3.786   2.378  13.678 -1.5948  0.8409  0.8068
11537TIP3   OH256025   2.775   4.270   4.503 -0.4076 -0.3185 -0.3493
11537TIP3    H156026   2.813   4.184   4.488  0.7318 -0.1270  1.1351
11537TIP3    H256027   2.847   4.322   4.539 -1.0862  1.2462 -1.1833
11538TIP3   OH256028   5.473   6.424  12.978 -0.7612 -0.4571  0.0565
11538TIP3    H156029   5.460   6.332  13.001 -0.3837 -0.7948 -1.0225
11538TIP3    H256030   5.417   6.438  12.902 -0.8424  0.2257  0.2329
11539TIP3   OH256031   2.316   1.696  13.176 -0.1678 -0.2867  0.1343
11539TIP3    H156032   2.409   1.714  13.164 -0.4860  0.4334 -1.4655
11539TIP3    H256033   2.313   1.624  13.239  1.4695 -0.3970  0.1169
11540TIP3   OH256034   4.068   6.098  15.765 -0.1350  0.1217 -0.4152
11540TIP3    H156035   4.097   6.122  15.852 -0.8170 -0.6124  0.0253
11540TIP3    H256036   3.998   6.160  15.745 -1.1947 -0.8146  0.3019
11541TIP3   OH256037   3.122   5.295  10.795 -0.3129  0.1388 -0.6102
11541TIP3    H156038   3.142   5.255  10.710  1.6017  0.8425 -0.5397
11541TIP3    H256039   3.131   5.223  10.857 -1.1504 -0.2510 -0.9213
11542TIP3   OH256040   6.161   1.329  15.710  0.2215 -0.0676  0.0735
11542TIP3    H156041   6.144   1.369  15.625 -1.5903 -0.3499  0.2511
11542TIP3    H256042   6.195   1.401  15.764 -0.8909  0.7352 -0.2378
11543TIP3   OH256043   3.914   4.778  13.914 -0.6941  0.1464 -0.3091
11543TIP3    H156044   3.904   4.741  13.826 -1.8107 -0.0545 -0.1080
11543TIP3    H256045   4.001   4.749  13.942 -0.5872 -0.3257 -1.0936
11544TIP3   OH256046   1.012   1.181  12.106 -0.1358 -0.6844  0.6590
11544TIP3    H156047   1.041   1.189  12.196 -1.0813  0.2365  0.9100
11544TIP3    H256048   0.975   1.267  12.085  0.3423 -0.7889 -0.7034
11545TIP3   OH256049   4.410   3.671  16.530  0.3667 -0.4463 -0.1368
11545TIP3    H156050   4.431   3.585  16.495  0.4386 -0.2214 -0.6681
11545TIP3    H256051   4.483   3.692  16.588  1.2266 -0.0258 -1.3293
11546TIP3   OH256052   2.000   6.062   4.284 -0.4721  0.0619  0.4475
11546TIP3    H156053   2.004   6.104   4.370 -1.5665  3.5000 -1.0324
11546TIP3    H256054   2.078   6.093   4.238  1.1985 -3.3135  0.6709
11547TIP3   OH256055   1.748   1.819  10.895  0.0863  0.1159  0.0134
11547TIP3    H156056   1.770   1.851  10.807 -2.9650 -0.8022 -1.2439
11547TIP3    H256057   1.759   1.724  10.890 -0.7663 -0.0131  0.3821
11548TIP3   OH256058   1.830   0.933  13.118 -0.1262 -0.5165 -0.7751
11548TIP3    H156059   1.913   0.981  13.112  0.1606 -1.1892 -2.5195
11548TIP3    H256060   1.784   0.975  13.191  1.3791  0.4253 -0.3255
11549TIP3   OH256061   3.276   3.950  11.785  0.6892  0.3468 -0.4103
11549TIP3    H156062   3.317   3.899  11.855 -0.1482 -0.3071 -0.3798
11549TIP3    H256063   3.280   4.040  11.816  0.8802  0.1343  0.2025
11550TIP3   OH256064   1.539   6.037   1.675 -0.1702  0.1403 -0.3464
11550TIP3    H156065   1.545   5.990   1.592 -0.0454 -0.4069 -0.0306
11550TIP3    H256066   1.596   6.114   1.662 -0.5289  0.3189 -0.9288
11551TIP3   OH256067   2.756   1.057  13.399  0.2687 -0.1654  0.7041
11551TIP3    H156068   2.787   1.145  13.420 -0.6357  0.3217  0.0502
11551TIP3    H256069   2.737   1.060  13.305 -1.4824 -0.5181  1.0297
11552TIP3   OH256070   5.597   3.829  11.075 -0.3001  0.5710  0.3290
11552TIP3    H156071   5.604   3.815  11.170  2.1865  0.0504  0.1423
11552TIP3    H256072   5.563   3.745  11.042 -0.9775  0.6817  0.7170
11553TIP3   OH256073   3.735   5.824  17.053 -0.0472  0.2091 -0.1832
11553TIP3    H156074   3.696   5.875  16.983  1.4725  0.2834 -1.0194
11553TIP3    H256075   3.756   5.888  17.121 -2.4152  0.0098  0.8323
11554TIP3   OH256076   1.916   4.133  16.900 -0.0352 -0.4089  0.8753
11554TIP3    H156077   1.865   4.213  16.915 -0.1534 -0.4560  0.7279
11554TIP3    H256078   1.906   4.083  16.981 -1.4209 -1.0746  0.3314
11555TIP3   OH256079   5.956   2.526  13.726  0.2888  0.6895 -0.1672
11555TIP3    H156080   5.904   2.447  13.713 -2.1636  2.0673  0.5170
11555TIP3    H256081   5.907   2.576  13.791  2.6750  2.0227  0.7490
11556TIP3   OH256082   0.706   1.532   0.561 -0.2978 -0.8114  0.3448
11556TIP3    H156083   0.730   1.507   0.650  0.8756 -1.8958 -0.2605
11556TIP3    H256084   0.616   1.500   0.551 -0.2636 -1.1139  0.9693
11557TIP3   OH256085   5.985   6.312   2.540 -0.2263 -0.6411 -0.0415
11557TIP3    H156086   6.049   6.241   2.544 -0.0326 -0.4218  1.0072
11557TIP3    H256087   6.034   6.391   2.565 -0.8879 -0.4728  0.8022
11558TIP3   OH256088   3.830   0.092  12.128  0.0082  0.6435 -0.4903
11558TIP3    H156089   3.754   0.138  12.164  0.0868  1.3681 -1.2075
11558TIP3    H256090   3.902   0.153  12.138  0.4431  0.0691 -0.0722
11559TIP3   OH256091   5.720   3.456  11.419  0.0791 -0.4639  0.0546
11559TIP3    H156092   5.762   3.387  11.369 -0.5925 -1.2159  0.4947
11559TIP3    H256093   5.665   3.410  11.482 -1.2758  0.4626 -0.3900
11560TIP3   OH256094   2.738   4.997   0.354  0.0681 -0.2686  0.0997
11560TIP3    H156095   2.674   5.014   0.422  2.3562  2.0777  1.8714
11560TIP3    H256096   2.720   4.907   0.326 -1.8794 -0.8334  2.7696
11561TIP3   OH256097   1.197   6.529   2.827  0.1170 -0.3232 -0.5162
11561TIP3    H156098   1.107   6.558   2.838 -0.3075 -2.0636  1.0699
11561TIP3    H256099   1.251   6.603   2.855 -0.8458  0.1305  0.1554
11562TIP3   OH256100   3.809   1.718   0.424  0.9590 -0.6263 -0.4368
11562TIP3    H156101   3.835   1.640   0.375 -0.9770 -0.3620 -1.9996
11562TIP3    H256102   3.743   1.687   0.485 -0.1017 -0.1790 -1.3325
11563TIP3   OH256103   4.602   3.685  12.512  0.3449 -0.0925 -0.0052
11563TIP3    H156104   4.636   3.770  12.484 -1.7692  0.8328  0.0284
11563TIP3    H256105   4.612   3.629  12.436 -2.5493  1.5622 -1.7906
11564TIP3   OH256106   5.313   3.997   2.594  0.7481 -0.0190  0.0914
11564TIP3    H156107   5.291   4.088   2.575 -0.1924 -0.3104 -0.2658
11564TIP3    H256108   5.257   3.974   2.669  3.0280  0.5336  2.1039
11565TIP3   OH256109   6.506   4.169  12.138 -0.8039 -0.6727 -0.0649
11565TIP3    H156110   6.471   4.234  12.078  0.0414  2.0437  2.1532
11565TIP3    H256111   6.579   4.213  12.181 -3.5444 -0.6944  5.6674
11566TIP3   OH256112   1.243   5.427  12.670  0.7066 -0.4176  0.0928
11566TIP3    H156113   1.250   5.438  12.575  1.4326 -1.4317  0.0105
11566TIP3    H256114   1.314   5.479  12.706  1.4581 -1.3325 -0.0330
11567TIP3   OH256115   2.710   4.139  15.202 -0.4662 -0.1742  0.6736
11567TIP3    H156116   2.615   4.152  15.205 -0.2631  1.4983  0.5987
11567TIP3    H256117   2.739   4.194  15.130  0.6152 -0.3864  0.9351
11568TIP3   OH256118   5.937   0.277   1.223 -0.4508  0.6636 -0.1610
11568TIP3    H156119   5.993   0.265   1.300 -0.8051  0.3863  0.0599
11568TIP3    H256120   5.991   0.325   1.161  0.2590 -0.1620 -0.2104
11569TIP3   OH256121   2.574   0.603   0.152 -1.0252 -0.4883  0.0238
11569TIP3    H156122   2.513   0.534   0.128 -0.1893 -1.4346  0.5220
11569TIP3    H256123   2.621   0.569   0.228 -1.7889  1.3448  1.3897
11570TIP3   OH256124   1.697   0.995  13.574 -0.0113 -0.4803 -0.1886
11570TIP3    H156125   1.733   0.982  13.663 -0.4845 -0.0304  0.0706
11570TIP3    H256126   1.651   0.913  13.555  0.2896 -0.6695 -0.1149
11571TIP3   OH256127   1.490   5.520  17.018  0.2239  0.2674  0.4926
11571TIP3    H156128   1.452   5.469  17.090  0.8946 -0.1365  0.5762
11571TIP3    H256129   1.488   5.610  17.049  0.0403  0.1570  0.8090
11572TIP3   OH256130   3.594   1.498  11.942 -0.0778 -0.0830 -0.1701
11572TIP3    H156131   3.579   1.411  11.978 -0.2137 -0.4335 -1.0324
11572TIP3    H256132   3.643   1.544  12.010 -3.0534  0.3951  1.8213
11573TIP3   OH256133   5.309   0.882  16.870 -0.0038 -0.4363 -0.0905
11573TIP3    H156134   5.395   0.884  16.827 -0.5956 -0.0172 -1.3231
11573TIP3    H256135   5.297   0.790  16.895 -0.3819 -1.1236 -2.4968
11574TIP3   OH256136   3.754   5.874  16.170  0.3048 -0.6499  0.7582
11574TIP3    H156137   3.826   5.917  16.217  1.4449 -3.1772  1.4655
11574TIP3    H256138   3.778   5.782  16.168 -1.8983 -1.2636 -0.9403
11575TIP3   OH256139   1.304   4.134  13.945  0.2107  0.1441  0.0204
11575TIP3    H156140   1.319   4.219  13.987 -2.8144  1.3771 -1.0860
11575TIP3    H256141   1.346   4.143  13.859 -1.4718  1.2375 -0.7401
11576TIP3   OH256142   2.667   2.293   5.613  0.0912 -0.1399 -0.1884
11576TIP3    H156143   2.627   2.285   5.700 -1.2055  0.5860 -0.6822
11576TIP3    H256144   2.602   2.254   5.554  1.5361 -1.8876 -0.7255
11577TIP3   OH256145   1.968   2.116   2.156 -0.1047 -0.2281  0.1590
11577TIP3    H156146   1.969   2.071   2.240 -0.1988  0.4483  0.5321
11577TIP3    H256147   1.968   2.209   2.179 -0.0599 -0.0371 -0.5893
11578TIP3   OH256148   3.901   4.626   2.255  0.5379 -0.3575  0.8669
11578TIP3    H156149   3.985   4.630   2.301  0.3940  0.3549  1.0910
11578TIP3    H256150   3.838   4.663   2.317  0.2387  0.0655  0.3191
11579TIP3   OH256151   4.678   2.298  13.883  0.6650 -0.2152  0.2470
11579TIP3    H156152   4.731   2.259  13.813 -1.5515 -0.6917 -1.2732
11579TIP3    H256153   4.616   2.229  13.907 -0.5542  0.9321  0.5331
11580TIP3   OH256154   5.582   5.097  12.555 -0.1522  0.1782  0.1198
11580TIP3    H156155   5.631   5.069  12.632  0.3773  0.7401 -0.0058
11580TIP3    H256156   5.587   5.192  12.556 -0.8274  0.2263 -0.1721
11581TIP3   OH256157   4.271   1.404  14.962  0.1997  0.1070 -0.3626
11581TIP3    H156158   4.348   1.446  15.000  0.3739 -0.4684 -0.0648
11581TIP3    H256159   4.257   1.450  14.879 -0.4611  1.6967  0.5851
11582TIP3   OH256160   3.241   4.533  12.280  0.3186 -0.1279 -0.2041
11582TIP3    H156161   3.148   4.525  12.260  0.1768  0.6226  0.1228
11582TIP3    H256162   3.253   4.625  12.302  0.9776 -0.3961  0.5960
11583TIP3   OH256163   3.423   3.766   2.130 -0.2611  0.2967 -0.4873
11583TIP3    H156164   3.445   3.825   2.202 -1.7317  0.3563 -0.0492
11583TIP3    H256165   3.500   3.710   2.120  0.4328  1.0827  0.3219
11584TIP3   OH256166   0.874   2.734   5.590 -0.1052  0.1859 -0.0873
11584TIP3    H156167   0.903   2.724   5.681  0.5893  0.2446 -0.2976
11584TIP3    H256168   0.926   2.670   5.541  0.7483  1.3106 -0.6905
11585TIP3   OH256169   6.693   2.627  14.916 -0.5714  0.0184  0.0944
11585TIP3    H156170   6.634   2.619  14.841 -1.8962  1.6229  0.8963
11585TIP3    H256171   6.636   2.621  14.992  0.2695  1.5843  0.9007
11586TIP3   OH256172   6.023   3.156   1.272 -0.1254  0.4459 -0.1188
11586TIP3    H156173   6.027   3.100   1.350 -1.0489  0.3280 -0.1399
11586TIP3    H256174   6.110   3.194   1.265  0.3622 -0.5691  0.2114
11587TIP3   OH256175   3.468   5.823   0.094 -0.2750  0.1102  0.1545
11587TIP3    H156176   3.533   5.837   0.026  0.7401  1.1181  1.2816
11587TIP3    H256177   3.390   5.869   0.063  0.3929  1.1359 -0.0498
11588TIP3   OH256178   6.420   4.453   1.529 -0.1762  0.0596 -0.3478
11588TIP3    H156179   6.431   4.424   1.620 -2.3473  0.8110  0.2198
11588TIP3    H256180   6.442   4.376   1.477 -0.5104 -0.9117  0.8950
11589TIP3   OH256181   6.502   6.396   5.939  0.0402 -0.5410 -0.2267
11589TIP3    H156182   6.569   6.448   5.983  0.0504 -1.5129  0.9804
11589TIP3    H256183   6.518   6.306   5.970 -0.6992 -1.0666 -1.3270
11590TIP3   OH256184   6.395   3.946  14.163 -0.2720 -0.5834 -0.0762
11590TIP3    H156185   6.346   3.867  14.186 -3.3593  1.0855 -0.3410
11590TIP3    H256186   6.385   3.954  14.068  0.1615  0.0072 -0.0809
11591TIP3   OH256187   3.054   3.857   6.547 -0.2781 -0.3178 -0.6857
11591TIP3    H156188   2.958   3.853   6.552 -0.3548  1.2759  4.3625
11591TIP3    H256189   3.072   3.940   6.503 -1.0264 -1.5091 -3.4371
11592TIP3   OH256190   4.629   2.012  14.392  0.3845 -0.1800  0.4442
11592TIP3    H156191   4.545   2.057  14.381  0.7091  0.1739 -0.8236
11592TIP3    H256192   4.618   1.959  14.471 -0.8916  0.1653  0.5265
11593TIP3   OH256193   5.640   3.875   4.915  0.4481  0.1597  0.3619
11593TIP3    H156194   5.726   3.861   4.954 -0.0954  1.9072  2.3439
11593TIP3    H256195   5.583   3.894   4.989 -1.4415  0.1167 -1.0081
11594TIP3   OH256196   5.440   6.047  15.719  0.1470  0.4276 -0.0652
11594TIP3    H156197   5.413   6.016  15.805 -0.4401  0.4678 -0.2310
11594TIP3    H256198   5.535   6.041  15.720  0.1317  0.2391  0.5144
11595TIP3   OH256199   6.562   2.811  13.972  0.2101 -0.2313 -0.1746
11595TIP3    H156200   6.497   2.854  13.915  0.9039  0.4099 -0.4969
11595TIP3    H256201   6.521   2.728  13.996 -0.9392  0.3593  0.0133
11596TIP3   OH256202   5.618   1.185   0.093  0.0229 -0.7830 -0.4589
11596TIP3    H156203   5.676   1.124   0.047 -0.1873 -2.2133  1.1032
11596TIP3    H256204   5.628   1.268   0.045  2.0424 -1.4340 -1.2611
11597TIP3   OH256205   5.907   6.378   3.709 -0.0074  0.3985 -0.2708
11597TIP3    H156206   5.985   6.323   3.723  0.0582  0.5230 -0.1455
11597TIP3    H256207   5.838   6.332   3.757  0.2243  0.8358  0.5045
11598TIP3   OH256208   0.581   0.303   3.330  0.3428  0.1159  0.0743
11598TIP3    H156209   0.488   0.283   3.336  0.1944  0.8016  0.0799
11598TIP3    H256210   0.623   0.235   3.383 -0.1444 -0.2184  0.0419
11599TIP3   OH256211   3.754   0.070  13.477 -0.0224 -0.3113 -0.3371
11599TIP3    H156212   3.765  -0.013  13.430  1.5055 -0.5408  0.3548
11599TIP3    H256213   3.754   0.136  13.408  0.3083 -0.7773 -0.7978
11600TIP3   OH256214   3.048   3.538   4.082  0.3580  0.0153 -0.9001
11600TIP3    H156215   3.011   3.624   4.103 -0.0751 -0.0772 -1.2792
11600TIP3    H256216   3.108   3.554   4.010  0.6094  0.0697 -0.6796
11601TIP3   OH256217   6.614   1.620  16.297  0.3442 -0.2503  0.8441
11601TIP3    H156218   6.578   1.652  16.380 -2.6552  1.8438 -1.0527
11601TIP3    H256219   6.537   1.596  16.246  1.6496  2.4611 -2.8135
11602TIP3   OH256220   5.246   5.456  11.904 -0.5250 -0.0073  0.1881
11602TIP3    H156221   5.153   5.441  11.921 -0.0006 -1.6930  1.9142
11602TIP3    H256222   5.272   5.521  11.970 -0.2397 -0.4090  0.4753
11603TIP3   OH256223   1.468   2.060  13.030  0.1828  0.0082  0.6145
11603TIP3    H156224   1.463   2.008  13.110  0.6093 -0.1709  0.5283
11603TIP3    H256225   1.440   2.000  12.961  0.1697  0.0506  0.5833
11604TIP3   OH256226   4.149   0.636  13.460 -0.5482 -0.1752 -0.1043
11604TIP3    H156227   4.097   0.626  13.381 -1.0045  2.4672 -0.2458
11604TIP3    H256228   4.100   0.589  13.528 -1.9212  0.3452 -0.7151
11605TIP3   OH256229   4.686   1.044   4.741  0.7676 -0.5380  0.5225
11605TIP3    H156230   4.616   0.998   4.696 -0.2193 -1.2133  2.6207
11605TIP3    H256231   4.693   1.128   4.696 -0.3228 -1.0724 -0.6793
11606TIP3   OH256232   4.643   1.886  16.173 -0.2619  0.3175 -0.2553
11606TIP3    H156233   4.715   1.950  16.174  0.1238 -0.0727 -1.4224
11606TIP3    H256234   4.603   1.894  16.259  0.6016  1.2088  0.0838
11607TIP3   OH256235   2.224   0.444  13.242  0.3468 -0.2124  0.3469
11607TIP3    H156236   2.269   0.377  13.293 -0.4237 -0.4044  0.7748
11607TIP3    H256237   2.217   0.519  13.301 -1.2339 -0.6956  0.8195
11608TIP3   OH256238   1.335   4.791   0.406  0.8381  0.5811  0.2440
11608TIP3    H156239   1.314   4.764   0.496  1.0176  0.2077  0.1736
11608TIP3    H256240   1.335   4.887   0.410  0.1394  0.5828  0.4819
11609TIP3   OH256241   4.917   0.910   5.251 -0.4792  0.5726 -0.3451
11609TIP3    H156242   4.851   0.867   5.196  0.2484  0.6940 -1.3540
11609TIP3    H256243   4.940   0.844   5.317 -2.3835  0.9135  0.7242
11610TIP3   OH256244   0.010   1.578   6.078 -0.1112  0.2221 -0.7459
11610TIP3    H156245   0.001   1.488   6.109 -0.7214  0.4529 -0.2394
11610TIP3    H256246   0.090   1.577   6.025 -1.5195 -1.2428 -2.9912
11611TIP3   OH256247   1.949   2.189   1.418  0.2682 -0.0272 -0.6279
11611TIP3    H156248   1.937   2.218   1.508 -1.1157 -1.8749 -0.1511
11611TIP3    H256249   1.869   2.218   1.373 -0.7679 -2.1984 -0.3256
11612TIP3   OH256250   1.482   3.125   0.160  0.3570 -0.3572  0.1565
11612TIP3    H156251   1.485   3.120   0.065  0.0480  2.9176 -0.1325
11612TIP3    H256252   1.567   3.094   0.189  1.1995  0.4483 -1.3465
11613TIP3   OH256253   0.180   6.030   1.389 -0.0190 -0.0079 -0.0156
11613TIP3    H156254   0.189   5.955   1.448  2.6776  0.6397  0.5119
11613TIP3    H256255   0.120   6.089   1.434  1.3626  0.1198  1.7932
11614TIP3   OH256256   1.094   3.535   3.517  0.1308  0.0108 -0.3694
11614TIP3    H156257   1.143   3.576   3.589 -0.7965 -1.7529  1.3516
11614TIP3    H256258   1.125   3.445   3.515  0.2700  0.0669 -2.3654
11615TIP3   OH256259   6.725   4.629   5.460 -0.1295  0.2944 -0.3532
11615TIP3    H156260   6.711   4.545   5.502 -0.3600 -0.3130 -1.5887
11615TIP3    H256261   6.790   4.674   5.515 -1.0129 -0.1228  1.0503
11616TIP3   OH256262   3.947   3.164  16.644 -0.1402  0.4249  0.3796
11616TIP3    H156263   3.857   3.166  16.675  0.2492  0.7849  1.5351
11616TIP3    H256264   3.966   3.071  16.631 -0.1071  0.1868  1.9060
11617TIP3   OH256265   1.243   3.762   1.939  0.6816  0.2848  0.6746
11617TIP3    H156266   1.232   3.820   1.863  2.4142  0.3738  0.4550
11617TIP3    H256267   1.154   3.734   1.961  0.0938  0.6314 -1.1060
11618TIP3   OH256268   6.596   0.583  12.560  0.1310  0.5065  0.7381
11618TIP3    H156269   6.671   0.526  12.573  0.9962  1.8186  1.7840
11618TIP3    H256270   6.633   0.671  12.560 -1.2377  1.1170 -0.2053
11619TIP3   OH256271   2.838   5.923  12.199 -0.0964 -0.0021 -0.0569
11619TIP3    H156272   2.753   5.916  12.157 -0.1690  0.2236  0.0545
11619TIP3    H256273   2.822   5.903  12.291 -0.1937  0.9840  0.1449
11620TIP3   OH256274   3.978   2.592   0.216  0.3628 -0.1545 -0.0192
11620TIP3    H156275   4.043   2.646   0.170  0.2457  0.1044  0.1186
11620TIP3    H256276   3.974   2.511   0.165 -0.4305  0.4737 -0.9849
11621TIP3   OH256277   5.100   6.353   0.769 -0.7236  0.2724 -0.2323
11621TIP3    H156278   5.131   6.307   0.691  0.6165 -0.1181  0.4903
11621TIP3    H256279   5.093   6.285   0.836  0.5110  0.9414  0.6303
11622TIP3   OH256280   6.624   1.257   2.567  0.3634  0.4111  0.3318
11622TIP3    H156281   6.652   1.279   2.655  1.3365 -0.2816  0.2159
11622TIP3    H256282   6.678   1.181   2.543  2.2919  2.3246 -1.9701
11623TIP3   OH256283   5.571   0.918   0.783 -0.1394  0.5074 -0.3727
11623TIP3    H156284   5.651   0.967   0.805 -0.2633 -0.1822  1.9251
11623TIP3    H256285   5.505   0.986   0.768  0.3198  1.0704  0.0914
11624TIP3   OH256286   5.995   5.020   2.040  0.1629 -0.5268 -0.4418
11624TIP3    H156287   6.061   4.954   2.019  1.3484  0.9444 -1.6154
11624TIP3    H256288   6.034   5.103   2.011 -1.0434  0.7753  1.4428
11625TIP3   OH256289   3.314   4.384  10.653 -0.9630  0.0096 -0.7390
11625TIP3    H156290   3.343   4.335  10.576  1.1459 -0.6940  0.4263
11625TIP3    H256291   3.361   4.344  10.726 -3.2946  0.2737  1.0502
11626TIP3   OH256292   0.427   4.673   4.472  0.6138  0.0835 -0.1020
11626TIP3    H156293   0.493   4.648   4.536 -0.0523 -0.8238  0.2668
11626TIP3    H256294   0.396   4.589   4.436  1.4932  0.5891 -2.1627
11627TIP3   OH256295   6.750   3.403   5.526  0.2490 -0.8234 -0.2297
11627TIP3    H156296   6.672   3.457   5.537 -0.8139 -2.4686  0.6471
11627TIP3    H256297   6.795   3.408   5.610  0.8084 -0.3600 -0.5420
11628TIP3   OH256298   2.846   3.867  12.345  0.2010  0.2829 -0.4298
11628TIP3    H156299   2.837   3.960  12.364 -1.9450  0.0927 -0.2552
11628TIP3    H256300   2.894   3.831  12.419 -2.0320  0.7083  1.3263
11629TIP3   OH256301   2.252   3.895  14.603 -0.1867 -0.1809 -0.4922
11629TIP3    H156302   2.259   3.860  14.514 -2.0468 -0.3133 -0.6255
11629TIP3    H256303   2.159   3.917  14.613 -0.3645 -1.7038  1.9862
11630TIP3   OH256304   3.512   2.180   5.445  0.5466 -0.6748 -0.5117
11630TIP3    H156305   3.571   2.130   5.502  2.6798  0.7317 -1.3156
11630TIP3    H256306   3.571   2.226   5.385 -1.3748  1.2078 -1.0887
11631TIP3   OH256307   3.017   1.623  14.179 -0.1829 -0.3501 -0.1898
11631TIP3    H156308   3.025   1.530  14.200 -1.5862 -0.3764  0.3501
11631TIP3    H256309   2.934   1.630  14.132 -0.3831  0.7072  0.2920
11632TIP3   OH256310   1.679   0.758   4.658  0.0279  0.0006  0.0416
11632TIP3    H156311   1.766   0.717   4.650  0.9851  2.1371 -1.1895
11632TIP3    H256312   1.665   0.765   4.752  1.5676  0.3201  0.2789
11633TIP3   OH256313   3.364   4.402  15.724 -0.4245  0.3161  0.0057
11633TIP3    H156314   3.309   4.325  15.709 -0.0945 -0.0182  0.4485
11633TIP3    H256315   3.420   4.407  15.647  0.7883 -0.9675  0.7601
11634TIP3   OH256316   6.281   3.253   3.686 -1.2265  0.4085 -0.2839
11634TIP3    H156317   6.357   3.196   3.698 -0.7744  1.1186  0.3508
11634TIP3    H256318   6.220   3.226   3.755 -0.1458  2.0450  1.3989
11635TIP3   OH256319   0.774   5.034  12.327 -0.0668  0.1420  0.1073
11635TIP3    H156320   0.810   5.115  12.292 -0.5924  0.7562  0.9586
11635TIP3    H256321   0.817   5.023  12.412 -1.3951  0.5564  0.8551
11636TIP3   OH256322   5.144   5.609   2.458 -0.7620 -0.2616  0.9747
11636TIP3    H156323   5.179   5.697   2.472  3.5620 -1.5329 -0.4717
11636TIP3    H256324   5.188   5.555   2.523  1.0871 -2.1772 -1.6658
11637TIP3   OH256325   0.478   2.246   2.994 -0.2438 -0.1470  0.3351
11637TIP3    H156326   0.440   2.199   3.068 -0.7704  0.0849  0.2197
11637TIP3    H256327   0.424   2.219   2.919 -0.1923  0.1953  0.1710
11638TIP3   OH256328   0.060   6.326   6.757  0.0612  0.0456 -0.5762
11638TIP3    H156329   0.123   6.370   6.699  0.0108  1.0483  0.1022
11638TIP3    H256330   0.003   6.397   6.787  0.0917 -0.4565  0.7004
11639TIP3   OH256331   4.790   5.858   1.824  0.1106 -0.5646  0.1062
11639TIP3    H156332   4.809   5.897   1.738 -0.3180  0.4673  0.4591
11639TIP3    H256333   4.841   5.777   1.825  1.0203 -0.0265 -0.6749
11640TIP3   OH256334   6.407   2.982   5.196 -0.3974  0.2415  0.3573
11640TIP3    H156335   6.375   3.063   5.234 -2.2942 -0.3973  0.2047
11640TIP3    H256336   6.416   2.922   5.271  2.8532  1.0634  0.7765
11641TIP3   OH256337   5.840   2.181  15.631  0.0704  0.4787  0.1842
11641TIP3    H156338   5.766   2.229  15.594 -0.1770  1.0351  1.3495
11641TIP3    H256339   5.911   2.245  15.634  0.3213  0.2132 -0.0565
11642TIP3   OH256340   4.424   5.404   0.616 -0.1139  0.1418  0.2224
11642TIP3    H156341   4.401   5.380   0.526  0.2400 -0.5799  0.3112
11642TIP3    H256342   4.519   5.410   0.615 -0.1608  1.0105  0.3509
11643TIP3   OH256343   5.905   0.278  11.848  0.7551 -0.2768 -0.3230
11643TIP3    H156344   5.972   0.294  11.782  2.5690 -0.6443  1.3189
11643TIP3    H256345   5.909   0.183  11.863 -0.2864 -0.3289 -0.3281
11644TIP3   OH256346   1.305   4.216  12.454 -0.6695 -0.2261  0.6840
11644TIP3    H156347   1.362   4.177  12.388 -1.5438 -0.4729  0.0518
11644TIP3    H256348   1.274   4.142  12.505 -2.9563 -0.5535 -1.0072
11645TIP3   OH256349   2.555   0.156  15.165  0.3302 -0.1789  0.0988
11645TIP3    H156350   2.541   0.067  15.197 -1.0076 -0.3237 -0.7774
11645TIP3    H256351   2.539   0.151  15.071  0.2567  0.9740  0.0288
11646TIP3   OH256352   1.982   3.809  12.344 -0.8800 -0.3394  0.0839
11646TIP3    H156353   2.023   3.761  12.416  0.2348  0.2830 -0.1103
11646TIP3    H256354   2.041   3.882  12.327 -2.8387  1.5002  0.7907
11647TIP3   OH256355   3.460   6.008   5.431  0.1571 -0.2574  0.6126
11647TIP3    H156356   3.546   6.011   5.390  1.1070  0.3309  2.5224
11647TIP3    H256357   3.400   5.985   5.360  1.6072  1.2273 -1.1946
11648TIP3   OH256358   2.716   5.397   0.470 -0.6274  0.0356 -0.6084
11648TIP3    H156359   2.721   5.422   0.378  3.0033 -1.0209 -0.8676
11648TIP3    H256360   2.795   5.436   0.509 -1.2179 -0.9207  1.6835
11649TIP3   OH256361   0.580   2.889  11.349 -0.3405 -0.0738 -0.1961
11649TIP3    H156362   0.506   2.881  11.289 -0.7754  0.3273  0.2687
11649TIP3    H256363   0.539   2.890  11.436  0.3959 -3.1600  0.3114
11650TIP3   OH256364   5.061   5.362  16.439 -0.1605  0.1226 -0.0203
11650TIP3    H156365   5.068   5.307  16.361 -1.9219  1.4932 -1.2395
11650TIP3    H256366   4.995   5.320  16.494  0.8023 -0.6373  0.5830
11651TIP3   OH256367   3.873   4.002  14.664  0.1902  0.3677  0.5040
11651TIP3    H156368   3.920   4.047  14.594 -0.3947  2.6855  1.5062
11651TIP3    H256369   3.921   4.025  14.743 -0.3605 -0.5262  1.1162
11652TIP3   OH256370   1.111   4.550  12.029  0.0726  0.1321 -0.1695
11652TIP3    H156371   1.148   4.629  11.990  0.5563  0.8286  1.6300
11652TIP3    H256372   1.182   4.513  12.081  0.2085 -2.1265 -1.7908
11653TIP3   OH256373   5.694   0.537   3.819  0.5213  0.3705  0.0395
11653TIP3    H156374   5.730   0.453   3.789  1.4791  1.2768 -1.4306
11653TIP3    H256375   5.602   0.534   3.790  0.5233 -0.1978  0.0706
11654TIP3   OH256376   1.633   1.945   4.072 -0.7531  0.1416 -0.3565
11654TIP3    H156377   1.624   1.984   3.985 -1.5435  1.3590  0.2448
11654TIP3    H256378   1.599   1.856   4.061 -1.2107  0.4053 -1.2067
11655TIP3   OH256379   0.160   1.606   0.854  0.1992  0.0325 -0.2755
11655TIP3    H156380   0.231   1.604   0.790  0.0550 -0.1615 -0.4305
11655TIP3    H256381   0.154   1.698   0.880  2.0219 -0.2657  1.4455
11656TIP3   OH256382   2.687   6.120   4.427  0.4516  0.5792  0.2011
11656TIP3    H156383   2.657   6.037   4.466  2.3311  0.3778  1.3329
11656TIP3    H256384   2.619   6.141   4.362 -1.6127 -0.2882  1.9304
11657TIP3   OH256385   6.070   4.412  13.924  0.2240 -0.2036 -0.1407
11657TIP3    H156386   6.047   4.319  13.927 -0.3123 -0.0978 -0.7270
11657TIP3    H256387   6.112   4.423  13.839 -0.9049  0.3434 -0.6544
11658TIP3   OH256388   5.600   3.640   4.076 -0.0597  0.0174  0.1179
11658TIP3    H156389   5.540   3.571   4.047 -0.5954  0.3879  0.3185
11658TIP3    H256390   5.687   3.609   4.051 -0.1670 -1.2652  1.1894
11659TIP3   OH256391   1.006   5.352  11.796  0.7697  0.6021  0.6207
11659TIP3    H156392   0.929   5.399  11.828 -0.1803 -0.1890 -0.4158
11659TIP3    H256393   1.011   5.376  11.703  1.5502  0.3323  0.5855
11660TIP3   OH256394   0.018   2.166   1.025 -0.0800  0.1443  0.5645
11660TIP3    H156395   0.044   2.258   1.025  2.6876 -0.5241 -0.4619
11660TIP3    H256396   0.068   2.127   1.097 -1.0464 -0.6147  0.8437
11661TIP3   OH256397   4.270   3.064   6.611 -0.3070 -0.6683 -0.5787
11661TIP3    H156398   4.191   3.087   6.662 -0.2849 -0.7080 -0.5255
11661TIP3    H256399   4.335   3.129   6.637 -0.7538  0.2607 -1.7182
11662TIP3   OH256400   4.940   0.160   2.414 -0.0494  0.3635  0.0879
11662TIP3    H156401   4.955   0.234   2.472 -0.6275  2.5834 -2.3660
11662TIP3    H256402   5.021   0.153   2.363  0.3102 -1.2909  0.8255
11663TIP3   OH256403   2.815   5.213  12.713  0.4097 -0.0849 -0.0159
11663TIP3    H156404   2.830   5.284  12.775 -1.4919 -1.3087  1.9793
11663TIP3    H256405   2.786   5.139  12.767 -1.2597 -1.2480 -2.3314
11664TIP3   OH256406   1.077   1.805   0.715 -0.3456 -0.4084  0.3069
11664TIP3    H156407   1.018   1.778   0.786 -0.4435 -0.0804  0.3541
11664TIP3    H256408   1.111   1.890   0.744 -0.0153 -0.4961  0.1787
11665TIP3   OH256409   1.413   0.018   1.889 -0.3776 -0.0606  0.5024
11665TIP3    H156410   1.339   0.045   1.835 -0.9412 -0.2001  1.1870
11665TIP3    H256411   1.401   0.065   1.971 -0.0279 -0.5278  0.8241
11666TIP3   OH256412   4.232   3.718   2.557  0.3052 -0.3007  0.8283
11666TIP3    H156413   4.257   3.766   2.636 -1.3793  2.0497  0.0708
11666TIP3    H256414   4.136   3.716   2.560  0.2476 -1.1431 -0.6033
11667TIP3   OH256415   2.610   5.339  11.072 -0.4403  0.3192 -0.4174
11667TIP3    H156416   2.516   5.329  11.087 -0.3023 -0.1949  0.1608
11667TIP3    H256417   2.650   5.268  11.122  0.2813  0.7717 -0.3320
11668TIP3   OH256418   0.720   6.447  17.371 -0.1133  0.2085  0.5634
11668TIP3    H156419   0.814   6.463  17.377 -0.1332  0.2129  0.8667
11668TIP3    H256420   0.684   6.483  17.452 -0.4238  0.5452  0.2817
11669TIP3   OH256421   6.683   5.738  13.856 -0.0129  0.2703 -0.4553
11669TIP3    H156422   6.611   5.706  13.911  1.6472 -0.8767  1.1830
11669TIP3    H256423   6.699   5.668  13.793  0.7838 -0.2660  0.3218
11670TIP3   OH256424   1.762   6.632   3.138  0.3208  0.2370  0.1191
11670TIP3    H156425   1.760   6.537   3.132  0.0079  0.2173  0.5188
11670TIP3    H256426   1.845   6.657   3.096  0.7277 -0.2494  0.6208
11671TIP3   OH256427   6.141   3.052  10.907  0.6411  0.1012 -0.1489
11671TIP3    H156428   6.055   3.093  10.896  0.3646 -0.9471 -2.4918
11671TIP3    H256429   6.138   3.012  10.994 -1.3678 -0.1852 -0.3133
11672TIP3   OH256430   0.906   4.300   5.541  0.4029  0.5605 -0.2855
11672TIP3    H156431   0.898   4.225   5.482  1.5470  1.3323 -1.4539
11672TIP3    H256432   0.925   4.261   5.626 -3.4087 -0.7124  0.1862
11673TIP3   OH256433   0.737   0.423  14.246 -0.1035  0.4215  0.4925
11673TIP3    H156434   0.798   0.389  14.181 -2.4693  0.2541 -1.8230
11673TIP3    H256435   0.692   0.495  14.201 -0.3112  1.8276  2.7656
11674TIP3   OH256436   1.703   4.167  13.606  0.4101  0.0085 -0.4786
11674TIP3    H156437   1.764   4.236  13.631 -0.8068  0.3641  1.8198
11674TIP3    H256438   1.650   4.206  13.536  0.0445  1.2643  0.4661
11675TIP3   OH256439   0.634   1.584  16.622  0.7040  0.4095  0.7734
11675TIP3    H156440   0.667   1.608  16.535 -2.3629  2.3449 -0.0093
11675TIP3    H256441   0.619   1.668  16.666  0.5528 -0.4994  2.5351
11676TIP3   OH256442   3.568   2.271   1.573 -0.2195  0.7241 -0.0684
11676TIP3    H156443   3.518   2.336   1.523  1.6340  2.2321 -0.1014
11676TIP3    H256444   3.601   2.319   1.649 -0.5394 -0.7698  1.0616
11677TIP3   OH256445   4.292   5.656  16.324 -0.3744  0.5027  0.5108
11677TIP3    H156446   4.216   5.609  16.290 -0.6132  0.1547  1.5201
11677TIP3    H256447   4.367   5.612  16.283 -0.7041  1.2562 -1.0034
11678TIP3   OH256448   0.899   3.302  11.146 -0.3464 -0.3602 -0.0508
11678TIP3    H156449   0.949   3.319  11.066 -0.6411  2.1550  0.2254
11678TIP3    H256450   0.814   3.271  11.115  0.3083 -1.6818 -0.6031
11679TIP3   OH256451   6.760   3.778  12.507  0.0572 -0.2639  0.0055
11679TIP3    H156452   6.687   3.824  12.467  0.0829  2.1446  2.4874
11679TIP3    H256453   6.835   3.799  12.451  0.0223  2.6614  0.9090
11680TIP3   OH256454   1.068   2.068  13.896 -0.0734  0.4827  0.3493
11680TIP3    H156455   1.136   2.135  13.908 -0.7192  1.2743 -0.2747
11680TIP3    H256456   0.988   2.119  13.880 -0.5950 -0.4496 -0.0509
11681TIP3   OH256457   3.953   0.480  13.602 -0.0404 -0.2010  0.0933
11681TIP3    H156458   3.961   0.385  13.606 -0.9479 -0.2672  0.6351
11681TIP3    H256459   3.860   0.496  13.586  0.1763  0.5904 -0.4289
11682TIP3   OH256460   1.886   5.972  17.352  0.0889  0.0410 -0.5041
11682TIP3    H156461   1.895   6.047  17.293  1.1512  1.7486  1.7009
11682TIP3    H256462   1.974   5.934  17.355  0.1233  0.1782  0.2411
11683TIP3   OH256463   0.161   5.868   4.198  0.5187 -0.1796  0.3420
11683TIP3    H156464   0.073   5.851   4.164  0.4881  1.3216 -0.3927
11683TIP3    H256465   0.202   5.781   4.204 -0.1419 -0.6674 -1.7343
11684TIP3   OH256466   0.364   6.367   2.359 -0.3455  0.0217  0.6027
11684TIP3    H156467   0.372   6.349   2.452 -1.8167 -2.0662  0.3914
11684TIP3    H256468   0.427   6.307   2.318  1.6949  2.2481  0.2700
11685TIP3   OH256469   4.131   0.743  13.951  0.3809  0.3980 -0.3609
11685TIP3    H156470   4.221   0.711  13.950 -0.5681 -2.6858 -0.2914
11685TIP3    H256471   4.102   0.731  14.042 -0.2055  1.0594 -0.4480
11686TIP3   OH256472   2.194   1.726   6.409 -0.2089 -0.4150  0.1895
11686TIP3    H156473   2.152   1.646   6.441  2.2099 -0.9645  2.3714
11686TIP3    H256474   2.282   1.698   6.383  0.1761  1.2995 -0.5037
11687TIP3   OH256475   3.598   6.075   2.743 -0.0986 -0.0010  0.3309
11687TIP3    H156476   3.558   6.136   2.680 -0.7517  0.2603  0.9765
11687TIP3    H256477   3.523   6.040   2.792  0.5173  1.1756  2.1820
11688TIP3   OH256478   0.797   2.365   6.618 -0.1322  0.1300 -0.7155
11688TIP3    H156479   0.837   2.451   6.625 -1.1700  0.4907  3.1530
11688TIP3    H256480   0.730   2.375   6.550  0.4081  2.0352 -1.0310
11689TIP3   OH256481   1.165   5.544  11.369  0.5644  0.4808  0.3130
11689TIP3    H156482   1.143   5.584  11.285  1.0110 -1.5855 -0.8458
11689TIP3    H256483   1.081   5.531  11.412  0.3118  1.3030  0.0971
11690TIP3   OH256484   3.114   5.121  14.634 -0.1792 -0.0298  0.6461
11690TIP3    H156485   3.203   5.138  14.665  0.4855 -1.6484 -0.2650
11690TIP3    H256486   3.097   5.030  14.657  0.1757 -1.2244 -3.0733
11691TIP3   OH256487   0.188   4.909   3.476 -0.2880 -0.7342 -0.0738
11691TIP3    H156488   0.240   4.958   3.539 -0.4334  1.4488 -1.5467
11691TIP3    H256489   0.251   4.855   3.429 -0.0381 -1.5672  1.1835
11692TIP3   OH256490   4.310   5.472   6.155 -0.1693  0.3093  0.3954
11692TIP3    H156491   4.321   5.560   6.118  2.6100  0.7493  1.9810
11692TIP3    H256492   4.248   5.484   6.228  0.7561  1.1526  1.0732
11693TIP3   OH256493   5.992   1.477  16.605 -0.2509 -0.0436 -0.0047
11693TIP3    H156494   5.965   1.501  16.516  0.7548  1.1347 -0.0154
11693TIP3    H256495   6.050   1.402  16.593  2.0722  1.7273 -0.6673
11694TIP3   OH256496   2.178   0.173  10.906  0.1995 -0.2189 -0.4494
11694TIP3    H156497   2.086   0.193  10.891  0.1103 -0.0743  0.2238
11694TIP3    H256498   2.190   0.188  11.000  0.7563 -0.8336 -0.4144
11695TIP3   OH256499   4.748   4.097  15.300 -0.5439  0.3862 -0.4187
11695TIP3    H156500   4.672   4.069  15.249 -0.6642 -1.3565  0.6210
11695TIP3    H256501   4.714   4.109  15.389  0.3405 -0.1826  0.0092
11696TIP3   OH256502   4.867   4.982   4.986 -0.1112 -0.1711 -0.0662
11696TIP3    H156503   4.902   4.952   4.901  0.6474 -0.6470  0.4004
11696TIP3    H256504   4.783   4.937   4.994  0.6425 -1.5972  0.2508
11697TIP3   OH256505   0.498   5.416  13.913  0.0756 -0.0922  0.5325
11697TIP3    H156506   0.561   5.432  13.983  2.0423 -1.7883 -0.7440
11697TIP3    H256507   0.535   5.344  13.863 -1.6431  0.5247 -1.8055
11698TIP3   OH256508   5.154   0.846  17.321  0.1932 -0.0184  0.1614
11698TIP3    H156509   5.144   0.840  17.226 -2.0039  0.3466  0.3040
11698TIP3    H256510   5.239   0.887  17.335 -0.2371  1.6076 -1.7036
11699TIP3   OH256511   0.948   5.120  15.536  0.4573  0.0116  0.7267
11699TIP3    H156512   0.898   5.066  15.597 -0.3459  0.0380  0.1009
11699TIP3    H256513   1.002   5.057  15.487  0.9739 -0.0248  1.3288
11700TIP3   OH256514   5.319   0.243   2.744 -0.4276  0.5972 -0.1056
11700TIP3    H156515   5.354   0.224   2.657  0.2127  0.9550  0.0704
11700TIP3    H256516   5.379   0.308   2.781 -0.4324  0.1093  0.7865
11701TIP3   OH256517   4.762   3.961  11.438 -0.1430 -0.2007  0.1416
11701TIP3    H156518   4.669   3.937  11.439 -0.2228  0.0930 -0.1915
11701TIP3    H256519   4.777   4.000  11.524 -0.7998  1.5146 -0.4686
11702TIP3   OH256520   0.295   2.372  15.438  0.1057 -0.2187 -0.2011
11702TIP3    H156521   0.304   2.428  15.361 -0.9795 -1.0601 -0.9667
11702TIP3    H256522   0.290   2.434  15.511  1.5567  0.5822 -0.7223
11703TIP3   OH256523   2.802   0.163  14.045 -0.7260  0.3111  0.0645
11703TIP3    H156524   2.810   0.221  13.969 -1.3420 -0.0366 -0.2748
11703TIP3    H256525   2.711   0.135  14.044 -0.3852 -0.8718  0.0669
11704TIP3   OH256526   6.318   1.516  16.416 -0.0432  0.0268  0.7415
11704TIP3    H156527   6.270   1.562  16.347  1.3759 -0.0126 -0.2993
11704TIP3    H256528   6.258   1.446  16.444 -0.8906  0.4423  0.0207
11705TIP3   OH256529   0.328   3.755  15.298  0.3748  0.1187  0.1160
11705TIP3    H156530   0.305   3.777  15.208  0.1943  0.7668  0.3156
11705TIP3    H256531   0.415   3.717  15.292  1.0828  1.7112 -0.1556
11706TIP3   OH256532   6.318   5.464  14.783 -0.2110  0.3652 -0.4019
11706TIP3    H156533   6.326   5.552  14.820 -0.3462  0.6872 -1.1175
11706TIP3    H256534   6.401   5.421  14.805  0.2897  1.0270 -0.9492
11707TIP3   OH256535   6.449   0.309   0.568 -0.2259  0.1045 -0.1481
11707TIP3    H156536   6.439   0.225   0.614  1.5492 -0.4038 -0.6001
11707TIP3    H256537   6.363   0.350   0.574 -0.3702 -0.3835  2.7337
11708TIP3   OH256538   2.444   1.396   0.042  0.0531 -0.2244  0.1743
11708TIP3    H156539   2.479   1.333  -0.021 -1.8491 -1.6184  0.4218
11708TIP3    H256540   2.389   1.344   0.101  1.8334  0.9872  3.1415
11709TIP3   OH256541   3.694   3.983  13.911 -0.0068 -0.0906 -0.2816
11709TIP3    H156542   3.621   3.981  13.972  0.5779  0.5831  0.4615
11709TIP3    H256543   3.679   3.908  13.853 -1.3924  0.1710 -0.2858
11710TIP3   OH256544   2.916   0.416  14.902  0.1919 -0.5931  0.0306
11710TIP3    H156545   2.871   0.383  14.979  0.8281 -1.7866 -0.0917
11710TIP3    H256546   2.968   0.342  14.870  0.7591  0.1871 -0.9297
11711TIP3   OH256547   1.062   2.251   1.243  0.0671 -0.2297 -0.6436
11711TIP3    H156548   1.092   2.204   1.165  0.0201 -1.3682 -0.0013
11711TIP3    H256549   1.142   2.291   1.279  0.4860 -1.4890 -0.1112
11712TIP3   OH256550   3.822   3.414   3.084 -0.1077  0.3782 -0.5808
11712TIP3    H156551   3.838   3.468   3.161 -1.6572  0.6088 -0.3790
11712TIP3    H256552   3.905   3.368   3.068 -0.2894 -1.3216  2.5022
11713TIP3   OH256553   0.434   2.879  13.060 -0.0984  0.4874 -0.0222
11713TIP3    H156554   0.469   2.875  13.149  0.7721  0.2940 -0.3619
11713TIP3    H256555   0.472   2.960  13.024  1.0027 -0.3466 -0.7945
11714TIP3   OH256556   5.518   4.754  11.333  0.2177  0.3672 -0.3026
11714TIP3    H156557   5.590   4.703  11.298 -0.1428  0.1617 -0.7491
11714TIP3    H256558   5.439   4.714  11.296 -0.1335  0.5421  0.2364
11715TIP3   OH256559   3.567   0.425  16.498  0.1117  0.1430  0.2149
11715TIP3    H156560   3.623   0.482  16.551 -0.6429  0.0730  1.1259
11715TIP3    H256561   3.518   0.374  16.563 -1.3105  0.5067 -0.5333
11716TIP3   OH256562   2.197   0.595   4.938  0.2481 -0.1358 -0.2287
11716TIP3    H156563   2.249   0.580   5.017 -1.4921  0.3715  1.0894
11716TIP3    H256564   2.243   0.666   4.892  0.6698  0.3787  0.9517
11717TIP3   OH256565   4.274   2.665   3.394  0.1457 -0.1277 -0.0110
11717TIP3    H156566   4.289   2.759   3.379 -1.4180  0.0017 -0.9637
11717TIP3    H256567   4.211   2.662   3.465  0.3711 -0.4709  0.1758
11718TIP3   OH256568   0.563   4.733   5.361 -0.6014 -0.0895 -0.1946
11718TIP3    H156569   0.517   4.673   5.302 -0.3732  0.1967 -0.6740
11718TIP3    H256570   0.510   4.812   5.361  0.2060  0.4929 -1.2834
11719TIP3   OH256571   0.708   3.575  17.363  0.2734  0.1807 -0.0888
11719TIP3    H156572   0.660   3.633  17.306  2.3105  1.5259 -0.5491
11719TIP3    H256573   0.720   3.495  17.312 -1.2148 -0.0950 -0.0395
11720TIP3   OH256574   3.651   5.837   2.292  0.0300  0.1023  0.0966
11720TIP3    H156575   3.657   5.852   2.387 -0.4010 -2.1573  0.5296
11720TIP3    H256576   3.741   5.823   2.264 -0.0025 -0.9857  0.5122
11721TIP3   OH256577   6.391   4.814  13.387 -0.1067  0.2467  0.7990
11721TIP3    H156578   6.427   4.734  13.348  0.8872  0.6935  0.7753
11721TIP3    H256579   6.318   4.783  13.441 -0.7293 -0.5103 -0.4250
11722TIP3   OH256580   4.507   6.104  14.903  0.1410 -0.2875 -0.0364
11722TIP3    H156581   4.591   6.122  14.859 -0.7321  1.7693 -0.9958
11722TIP3    H256582   4.532   6.070  14.989  2.0031  1.2226  0.0909
11723TIP3   OH256583   1.622   4.614   1.203 -0.4813  0.4433  0.5105
11723TIP3    H156584   1.559   4.636   1.272  0.5637 -1.1174  2.0567
11723TIP3    H256585   1.669   4.538   1.237 -0.8592 -1.3014 -2.5454
11724TIP3   OH256586   2.895   1.998   0.267 -0.1801  0.0052  0.2677
11724TIP3    H156587   2.905   1.973   0.359 -0.4196  1.0098  0.5867
11724TIP3    H256588   2.983   1.987   0.230  0.1103  0.3569  0.8246
11725TIP3   OH256589   6.247   4.269   3.706  0.0213 -0.4105  0.0400
11725TIP3    H156590   6.292   4.353   3.709  1.3248 -1.1250  1.1760
11725TIP3    H256591   6.161   4.290   3.669  0.0152  1.5483  1.0188
11726TIP3   OH256592   2.798   4.091   0.027  0.2043 -0.0287 -0.0733
11726TIP3    H156593   2.782   4.165  -0.031  1.5441  1.0404  0.8671
11726TIP3    H256594   2.810   4.017  -0.032 -2.3838  0.1753 -1.0023
11727TIP3   OH256595   3.925   2.276   3.328  1.1180 -0.1077 -0.4930
11727TIP3    H156596   3.868   2.305   3.400  0.3667 -0.6803 -0.8532
11727TIP3    H256597   4.013   2.276   3.366  0.5528 -2.0610  0.9666
11728TIP3   OH256598   3.979   2.504  15.179  0.4484  0.1100 -0.0036
11728TIP3    H156599   3.934   2.483  15.261 -0.2435  0.5603 -0.2545
11728TIP3    H256600   4.033   2.580  15.200  0.7897 -0.1911  0.2037
11729TIP3   OH256601   4.115   1.388   3.430 -0.4860  0.1663  0.4227
11729TIP3    H156602   4.180   1.415   3.494 -1.1759  0.2205  1.1102
11729TIP3    H256603   4.064   1.320   3.474  1.6391 -2.9042 -1.4893
11730TIP3   OH256604   3.174   3.792   2.786 -0.7475 -0.3983  0.8276
11730TIP3    H156605   3.121   3.841   2.724 -0.8267 -2.5728 -0.9465
11730TIP3    H256606   3.163   3.700   2.761  2.1271 -1.1175  1.7198
11731TIP3   OH256607   0.503   3.052   6.767  0.1978  0.1475  0.2729
11731TIP3    H156608   0.416   3.045   6.729 -0.0263  1.3402  0.5350
11731TIP3    H256609   0.504   2.987   6.837  0.1372 -1.0929 -0.8422
11732TIP3   OH256610   5.083   1.190  15.902  0.3096  0.3353 -0.0728
11732TIP3    H156611   5.012   1.175  15.965  0.7366  1.0293  0.5941
11732TIP3    H256612   5.039   1.198  15.818 -0.4909  1.3244  0.4085
11733TIP3   OH256613   3.857   5.397   2.929 -0.3607  0.0639  0.2460
11733TIP3    H156614   3.911   5.350   2.993 -0.6391 -1.2475 -0.4519
11733TIP3    H256615   3.882   5.488   2.940 -1.1356  0.0558  2.9735
11734TIP3   OH256616   5.286   5.729  12.397  0.0897 -0.8320 -0.1390
11734TIP3    H156617   5.277   5.634  12.395  0.8755 -0.9090 -1.9326
11734TIP3    H256618   5.359   5.745  12.457 -0.7839 -1.2678  1.0653
11735TIP3   OH256619   2.695   1.781   4.162 -0.2578  0.4697 -0.1078
11735TIP3    H156620   2.757   1.853   4.147 -2.0256  1.7518 -1.7976
11735TIP3    H256621   2.750   1.706   4.183  1.7364  2.0286  0.6049
11736TIP3   OH256622   4.915   5.700   0.288 -0.2891  0.3867  0.2371
11736TIP3    H156623   4.858   5.776   0.300  0.3262  0.8963 -0.0403
11736TIP3    H256624   4.855   5.625   0.293 -1.1621  0.9525 -1.0504
11737TIP3   OH256625   4.664   5.962   1.523 -0.0229 -0.4108 -0.0887
11737TIP3    H156626   4.629   5.873   1.531  0.9332 -0.7419  0.4710
11737TIP3    H256627   4.586   6.018   1.531 -0.3968 -1.1061  1.7745
11738TIP3   OH256628   6.412   0.571   2.863  0.4696  0.0823  0.3611
11738TIP3    H156629   6.448   0.541   2.780  0.0093  1.1970 -0.2602
11738TIP3    H256630   6.324   0.603   2.841 -0.9761 -2.5289  1.8189
11739TIP3   OH256631   5.598   5.005   3.539  0.4003 -0.1985 -0.0870
11739TIP3    H156632   5.692   4.986   3.552  0.8018  1.6535 -0.1114
11739TIP3    H256633   5.560   4.994   3.626  0.1212 -3.3520 -0.4916
11740TIP3   OH256634   5.110   6.179   3.847  0.4472 -0.8403  0.0648
11740TIP3    H156635   5.172   6.165   3.775  0.5490 -1.9681  0.3434
11740TIP3    H256636   5.124   6.269   3.875  3.1520 -1.5117  1.1920
11741TIP3   OH256637   0.762   2.959  13.288 -0.3838  0.1760 -0.2620
11741TIP3    H156638   0.833   2.928  13.345  0.5317  0.7631 -1.0564
11741TIP3    H256639   0.806   2.989  13.209 -1.4704  1.1920 -0.5012
11742TIP3   OH256640   5.329   3.071  13.936  0.0320 -0.1644  0.2175
11742TIP3    H156641   5.366   3.095  13.851 -1.0801 -1.4832 -0.6724
11742TIP3    H256642   5.356   2.980  13.950  1.1004  0.3464  1.8166
11743TIP3   OH256643   3.125   2.422  11.758 -0.1239 -0.1022 -0.2797
11743TIP3    H156644   3.099   2.392  11.670  0.3925 -0.7168 -0.2317
11743TIP3    H256645   3.132   2.517  11.749 -1.3519 -0.0195 -0.5597
11744TIP3   OH256646   5.638   1.879   2.945 -0.4342 -0.1613 -0.9231
11744TIP3    H156647   5.642   1.917   2.857 -0.3673  1.2031 -0.3379
11744TIP3    H256648   5.554   1.832   2.946 -0.2826 -0.4714 -1.8198
11745TIP3   OH256649   2.338   5.245  15.756 -0.2847 -0.0700 -0.5657
11745TIP3    H156650   2.399   5.182  15.794 -0.4442 -0.3420 -0.7522
11745TIP3    H256651   2.255   5.227  15.800 -0.2457  0.2566 -0.3558
11746TIP3   OH256652   5.270   4.871   0.174  0.3004 -0.4223  0.1855
11746TIP3    H156653   5.353   4.908   0.144  0.9090 -1.0206  1.0771
11746TIP3    H256654   5.273   4.880   0.270 -1.3546  0.9632  0.1634
11747TIP3   OH256655   1.346   2.827  13.086 -0.0319  0.2276  0.0228
11747TIP3    H156656   1.279   2.857  13.148  0.5213 -1.6781  1.6604
11747TIP3    H256657   1.320   2.738  13.064  1.5391 -0.2863  0.1185
11748TIP3   OH256658   3.230   4.864  16.210  0.4771 -0.3419 -0.5050
11748TIP3    H156659   3.143   4.844  16.244  0.0356  2.0873 -0.0127
11748TIP3    H256660   3.273   4.779  16.200 -1.4465 -1.4936  0.5855
11749TIP3   OH256661   2.551   2.523  11.726  0.3998  0.1115  0.2973
11749TIP3    H156662   2.489   2.539  11.797  1.9446  0.8106  1.5157
11749TIP3    H256663   2.532   2.433  11.698 -0.3340 -0.1139  1.4555
11750TIP3   OH256664   3.778   2.830  15.516 -0.3386 -0.4614  0.3270
11750TIP3    H156665   3.830   2.824  15.596  1.9512 -0.0918 -1.0487
11750TIP3    H256666   3.818   2.903  15.467 -2.8775  0.5829 -0.3423
11751TIP3   OH256667   1.451   2.499   2.717 -0.1351  0.1797 -0.2376
11751TIP3    H156668   1.521   2.463   2.771 -0.9614 -0.4812  0.4175
11751TIP3    H256669   1.444   2.437   2.644 -1.5952 -1.0789  0.9193
11752TIP3   OH256670   1.427   1.142   2.057  0.0406 -0.5407 -0.1495
11752TIP3    H156671   1.461   1.061   2.095  2.1219 -0.5198 -1.7722
11752TIP3    H256672   1.454   1.211   2.117  0.3070 -0.8373  0.0736
11753TIP3   OH256673   5.857   2.041  10.850  0.4902 -0.7425  0.4456
11753TIP3    H156674   5.904   2.109  10.801  1.4418 -0.7597  1.3133
11753TIP3    H256675   5.879   2.058  10.941 -1.6135 -0.4373  0.9561
11754TIP3   OH256676   3.540   6.438   1.778  0.2342  0.0991  0.1867
11754TIP3    H156677   3.612   6.399   1.827  0.9551 -2.2363 -2.4708
11754TIP3    H256678   3.461   6.399   1.816  0.5446  0.4052  1.1791
11755TIP3   OH256679   2.128   0.336  11.642 -0.1348 -0.3639  0.0065
11755TIP3    H156680   2.196   0.373  11.585 -0.6148  1.5993  0.6345
11755TIP3    H256681   2.054   0.320  11.584  0.1739 -0.6059 -0.3261
11756TIP3   OH256682   0.350   3.152  15.639  0.2125 -0.1510  0.0272
11756TIP3    H156683   0.296   3.126  15.713 -0.6124  0.7115 -0.2513
11756TIP3    H256684   0.419   3.086  15.635 -0.5050 -0.9626  0.7331
11757TIP3   OH256685   6.234   0.418   5.041  0.4772  0.3685  0.0423
11757TIP3    H156686   6.146   0.451   5.024 -0.6398 -1.6901  1.5453
11757TIP3    H256687   6.223   0.351   5.108  3.2415  0.2619  0.5070
11758TIP3   OH256688   4.720   0.507   3.393 -0.9732 -0.1559  0.2233
11758TIP3    H156689   4.726   0.436   3.457 -0.1308 -0.0391  0.2770
11758TIP3    H256690   4.802   0.503   3.344 -0.8696  0.8603  0.3063
11759TIP3   OH256691   3.711   3.456  14.839 -0.3391 -0.5267 -0.4506
11759TIP3    H156692   3.696   3.503  14.922  0.0373 -1.5930  0.2455
11759TIP3    H256693   3.802   3.476  14.817 -0.5218 -0.0204 -0.7619
11760TIP3   OH256694   2.006   5.583  11.483 -0.6209 -0.2833  0.3164
11760TIP3    H156695   1.921   5.624  11.467 -0.5127 -0.2195 -0.0916
11760TIP3    H256696   1.986   5.509  11.541 -1.1730 -1.1812 -0.9838
11761TIP3   OH256697   3.238   0.919  15.257 -0.4538  0.2949 -0.7603
11761TIP3    H156698   3.257   0.972  15.179 -1.8729  0.4760 -1.0133
11761TIP3    H256699   3.150   0.947  15.283 -0.2301 -0.1916  0.5649
11762TIP3   OH256700   5.364   6.056  16.950 -0.0405  0.1804  0.0310
11762TIP3    H156701   5.452   6.094  16.941  0.0851  0.1601  1.0452
11762TIP3    H256702   5.378   5.974  16.997 -0.6726  0.5089  0.8028
11763TIP3   OH256703   1.446   2.093  15.645  0.0042 -0.0658  0.4495
11763TIP3    H156704   1.419   2.015  15.597  1.1485 -0.7047  0.7985
11763TIP3    H256705   1.364   2.132  15.675 -0.6332 -0.6458 -0.4685
11764TIP3   OH256706   6.539   2.597  11.862 -0.0075 -0.0143 -0.1512
11764TIP3    H156707   6.454   2.641  11.850  0.8562  1.1923 -2.5529
11764TIP3    H256708   6.594   2.662  11.905  0.3183  0.0587 -0.6655
11765TIP3   OH256709   3.950   4.834   6.773 -0.3922 -0.3948 -0.4246
11765TIP3    H156710   3.923   4.773   6.705 -1.5461 -0.6792  0.2628
11765TIP3    H256711   4.028   4.794   6.813 -0.6423 -0.9974 -0.5409
11766TIP3   OH256712   2.037   4.337   3.889 -0.1420 -0.1126  0.4892
11766TIP3    H156713   2.075   4.251   3.873  1.1871  0.6914 -0.8527
11766TIP3    H256714   2.076   4.366   3.971 -0.4489 -0.6968  0.8453
11767TIP3   OH256715   2.138   3.412  12.780  0.0255 -0.2258  0.7227
11767TIP3    H156716   2.058   3.379  12.740  0.5989  0.2089 -0.8750
11767TIP3    H256717   2.201   3.340  12.774  1.3377  0.9942 -2.9453
11768TIP3   OH256718   5.276   5.638  12.743 -0.1451  0.2166  0.6898
11768TIP3    H156719   5.334   5.683  12.682 -1.6486  0.2870 -0.7607
11768TIP3    H256720   5.328   5.565  12.777  1.1708  0.9787  0.3997
11769TIP3   OH256721   5.289   2.072   5.995  0.1719 -0.8485  0.0981
11769TIP3    H156722   5.225   2.129   6.038 -0.6493 -0.9998 -0.8724
11769TIP3    H256723   5.330   2.128   5.928  1.4986 -0.5889  1.0839
11770TIP3   OH256724   5.982   5.805   2.957 -0.7363 -0.4160 -0.2916
11770TIP3    H156725   5.933   5.751   3.019 -0.4677  0.5936  0.8431
11770TIP3    H256726   6.068   5.815   2.996 -0.3711 -0.2392 -1.1243
11771TIP3   OH256727   3.497   1.893   3.082 -0.2734  0.2772 -0.0494
11771TIP3    H156728   3.493   1.850   2.997 -1.3338  0.5635 -0.1635
11771TIP3    H256729   3.406   1.912   3.103  0.0699  1.2787  0.5986
11772TIP3   OH256730   5.205   2.741   0.536 -0.4647 -0.0057  0.8675
11772TIP3    H156731   5.171   2.809   0.594 -1.3935 -1.3659  1.9894
11772TIP3    H256732   5.289   2.717   0.575 -0.9618 -0.7264  1.5264
11773TIP3   OH256733   1.522   4.768  17.095 -0.2933  0.1311  0.4777
11773TIP3    H156734   1.612   4.767  17.129 -0.6443 -0.1630  1.4460
11773TIP3    H256735   1.471   4.808  17.166 -0.5628  2.7424 -1.0701
11774TIP3   OH256736   5.885   6.546   2.062 -0.0816  0.1402 -0.3279
11774TIP3    H156737   5.850   6.593   1.986  0.3518  0.2632 -0.4536
11774TIP3    H256738   5.847   6.459   2.056 -0.5600  0.3439 -0.3268
11775TIP3   OH256739   5.966   0.179   2.251  0.0122  0.2038  0.0506
11775TIP3    H156740   5.930   0.098   2.286 -0.6561  0.7904  0.7685
11775TIP3    H256741   5.937   0.246   2.313  2.3711  0.7249  0.6986
11776TIP3   OH256742   6.494   3.450   0.845  0.0253 -0.2465 -0.2857
11776TIP3    H156743   6.436   3.523   0.868 -0.2912 -0.9464  1.2639
11776TIP3    H256744   6.573   3.465   0.896  0.7853  0.0749 -1.5150
11777TIP3   OH256745   0.993   2.237   2.880  0.1469  0.3918  0.6385
11777TIP3    H156746   1.079   2.195   2.887  0.2211  0.2542 -0.8610
11777TIP3    H256747   0.974   2.238   2.787 -0.7393  1.9394  0.7932
11778TIP3   OH256748   1.995   0.906  11.866 -0.3757  0.1694 -0.0760
11778TIP3    H156749   2.057   0.837  11.842  0.7893  0.5226  1.6774
11778TIP3    H256750   2.022   0.982  11.814 -0.2095 -0.0597 -0.3268
11779TIP3   OH256751   6.262   3.174   2.841  0.9907  1.1797 -0.2082
11779TIP3    H156752   6.238   3.254   2.889  2.2107  1.5564 -0.1849
11779TIP3    H256753   6.333   3.135   2.893  0.6165  0.2362 -0.3830
11780TIP3   OH256754   1.985   1.277   5.928  0.2920  0.5827 -0.4613
11780TIP3    H156755   2.075   1.259   5.956 -0.6068 -1.7598  1.2353
11780TIP3    H256756   1.971   1.368   5.953  1.3079  0.1611  2.0693
11781TIP3   OH256757   0.571   4.656   3.795  0.2638 -0.7256 -0.0340
11781TIP3    H156758   0.490   4.620   3.833 -0.1593  0.7745  0.5705
11781TIP3    H256759   0.559   4.751   3.800  2.9954 -0.3634  2.1827
11782TIP3   OH256760   4.124   5.644   1.955 -0.4751  0.1249  0.2271
11782TIP3    H156761   4.139   5.682   2.041 -0.0561 -0.7481  0.5524
11782TIP3    H256762   4.212   5.628   1.920 -0.6420 -0.0536 -0.1172
11783TIP3   OH256763   1.881   5.312  16.641  0.2880 -0.4075 -0.3645
11783TIP3    H156764   1.809   5.333  16.700  0.4565 -0.7325 -0.0414
11783TIP3    H256765   1.927   5.396  16.630  0.4886 -0.4233  0.2851
11784TIP3   OH256766   2.163   2.462   2.708 -0.2354  0.8478  0.1266
11784TIP3    H156767   2.219   2.539   2.697  0.3634  0.2451 -1.3306
11784TIP3    H256768   2.190   2.425   2.792  2.6027 -0.1944 -1.1313
11785TIP3   OH256769   5.774   2.505   4.019  0.1991 -0.2503 -0.4928
11785TIP3    H156770   5.753   2.413   4.004 -0.6861 -0.0937 -0.3067
11785TIP3    H256771   5.798   2.539   3.933  0.6211 -0.6711 -0.5462
11786TIP3   OH256772   6.073   1.113   1.935 -0.3507 -0.3384  0.2549
11786TIP3    H156773   6.007   1.057   1.895 -0.5807  2.3819 -3.8064
11786TIP3    H256774   6.157   1.075   1.907 -0.4454 -0.0158 -0.4988
11787TIP3   OH256775   1.597   2.067  11.213  0.1772 -0.0416 -0.3374
11787TIP3    H156776   1.641   2.076  11.129 -1.5859  1.7799 -1.1512
11787TIP3    H256777   1.659   2.103  11.277  0.8224  0.2220 -1.1021
11788TIP3   OH256778   0.710   4.892   0.339  0.0074 -0.2266  0.2318
11788TIP3    H156779   0.803   4.869   0.336 -0.2034 -1.2342  1.1137
11788TIP3    H256780   0.703   4.967   0.280  1.5463  0.4545  0.8477
11789TIP3   OH256781   0.846   3.043  12.588  0.0224 -0.5896  0.1649
11789TIP3    H156782   0.855   2.956  12.550  1.5305 -0.2806 -0.2407
11789TIP3    H256783   0.928   3.087  12.567  0.1299  0.2502  2.1010
11790TIP3   OH256784   4.015   4.232  17.206 -0.0105  0.3760  0.4445
11790TIP3    H156785   3.989   4.156  17.154 -1.8808 -0.4608  2.4582
11790TIP3    H256786   3.982   4.307  17.156  1.9539 -0.0097 -1.6218
11791TIP3   OH256787   4.394   1.869   2.357  0.1155  0.6219  0.3151
11791TIP3    H156788   4.467   1.812   2.383 -0.5778 -1.3929 -1.8137
11791TIP3    H256789   4.434   1.935   2.301  0.3163 -0.6580 -1.1051
11792TIP3   OH256790   1.931   5.926  15.405  0.1770 -0.2721 -0.0920
11792TIP3    H156791   1.869   5.989  15.444 -0.3338 -0.4677 -0.5716
11792TIP3    H256792   1.915   5.844  15.451  2.2484  0.3749  1.9754
11793TIP3   OH256793   2.306   0.492  17.243  0.1999  0.0920  0.0379
11793TIP3    H156794   2.393   0.454  17.247 -0.3605 -1.1965  0.4753
11793TIP3    H256795   2.285   0.495  17.149  0.0811 -1.1351  0.0085
11794TIP3   OH256796   5.781   5.435   5.237 -0.9166 -0.1124  0.2078
11794TIP3    H156797   5.783   5.392   5.152  0.4353 -2.2603  1.2474
11794TIP3    H256798   5.752   5.367   5.297 -3.6618  1.8322  1.2865
11795TIP3   OH256799   6.660   5.533   1.672 -0.3859 -0.4920  0.0622
11795TIP3    H156800   6.573   5.495   1.669  0.5568 -2.7169 -0.7112
11795TIP3    H256801   6.691   5.530   1.582  1.0899 -1.1982  0.5655
11796TIP3   OH256802   6.761   0.130   5.724 -0.0637  0.2953  0.0827
11796TIP3    H156803   6.714   0.207   5.757 -0.1193 -0.3333  1.5294
11796TIP3    H256804   6.695   0.061   5.723  0.9461 -0.8696  3.1081
11797TIP3   OH256805   0.319   5.677   5.872  0.1230  0.1508  0.4643
11797TIP3    H156806   0.403   5.692   5.914 -0.0862  1.6793  0.3735
11797TIP3    H256807   0.341   5.630   5.791  0.7490 -0.6342  1.0770
11798TIP3   OH256808   1.276   3.347   4.164  0.2507  0.2432 -0.5490
11798TIP3    H156809   1.279   3.265   4.214 -1.3766  0.7565  0.4610
11798TIP3    H256810   1.217   3.329   4.091 -1.2818  0.8882  0.4817
11799TIP3   OH256811   3.664   0.248  12.250  0.3876  0.3705 -0.0458
11799TIP3    H156812   3.716   0.306  12.305  0.1783  0.0179  0.5415
11799TIP3    H256813   3.575   0.254  12.285  0.6268 -1.4337  1.0444
11800TIP3   OH256814   5.822   0.766  15.756 -0.0710 -0.3693  0.1628
11800TIP3    H156815   5.791   0.697  15.698 -0.3814 -0.3456  0.3012
11800TIP3    H256816   5.900   0.801  15.712  0.5150 -1.2886  0.4335
11801TIP3   OH256817   3.434   0.936  14.132  0.0050 -0.1977 -0.2637
11801TIP3    H156818   3.527   0.954  14.119 -0.0608 -0.0496 -0.5291
11801TIP3    H256819   3.426   0.921  14.226  0.5493 -1.6923 -0.4222
11802TIP3   OH256820   2.608   0.260   0.215 -0.0361 -0.4948 -0.6062
11802TIP3    H156821   2.553   0.338   0.218  0.0963 -0.4448  1.8635
11802TIP3    H256822   2.683   0.286   0.162 -0.0035  1.0483  0.1690
11803TIP3   OH256823   4.856   0.972  11.848 -0.2780  0.8487  0.1186
11803TIP3    H156824   4.846   1.048  11.791  0.8624  1.4878  0.7411
11803TIP3    H256825   4.895   0.905  11.792 -1.0193  0.8058 -0.3585
11804TIP3   OH256826   4.940   3.098  17.248 -0.0756 -0.3987 -0.5093
11804TIP3    H156827   4.975   3.178  17.288  0.1022 -0.1450 -1.1555
11804TIP3    H256828   4.956   3.030  17.313 -0.7556  0.1883  0.2982
11805TIP3   OH256829   4.713   3.068   0.037  0.3419  0.0492 -0.3143
11805TIP3    H156830   4.773   3.013  -0.012  1.1038  0.4830  0.1005
11805TIP3    H256831   4.761   3.151   0.049  0.1023  0.0316  0.9384
11806TIP3   OH256832   2.487   4.469   0.554  0.4314  0.1894  0.5227
11806TIP3    H156833   2.513   4.553   0.517 -0.7867  0.2395 -0.2531
11806TIP3    H256834   2.565   4.439   0.602  1.5073  0.8948 -0.7106
11807TIP3   OH256835   0.106   3.208   3.687 -0.1386 -0.1447  0.2685
11807TIP3    H156836   0.161   3.132   3.668  1.9434  1.2379  0.3592
11807TIP3    H256837   0.159   3.261   3.747 -1.0599  1.8787 -0.6242
11808TIP3   OH256838   4.772   1.200   1.473 -0.0729  0.2561  0.2270
11808TIP3    H156839   4.762   1.284   1.427  0.1663  0.6378  0.8520
11808TIP3    H256840   4.760   1.222   1.566  0.3925 -0.3292  0.4357
11809TIP3   OH256841   4.664   2.517   0.535  0.1366  0.0035  0.3623
11809TIP3    H156842   4.652   2.426   0.563  1.2970 -0.9439 -1.9293
11809TIP3    H256843   4.576   2.555   0.539 -0.2171 -0.9057  2.2392
11810TIP3   OH256844   1.674   2.091   6.024 -0.1250 -0.2527 -0.3201
11810TIP3    H156845   1.735   2.019   6.041  0.2688 -0.0473 -0.8690
11810TIP3    H256846   1.641   2.115   6.111  0.3082 -0.5937 -0.0581
11811TIP3   OH256847   0.922   3.516   2.641  0.2716  0.0258 -0.5250
11811TIP3    H156848   0.848   3.475   2.687  0.4412  0.0357 -0.2449
11811TIP3    H256849   0.999   3.473   2.677  0.4832  0.9250  0.1170
11812TIP3   OH256850   5.862   3.812   5.236 -0.3397 -0.2569  0.1936
11812TIP3    H156851   5.783   3.791   5.285 -0.4714 -0.4483 -0.0937
11812TIP3    H256852   5.917   3.734   5.246 -0.0991 -0.0422  0.5635
11813TIP3   OH256853   6.743   2.755   3.982  0.5907 -0.0476 -0.9135
11813TIP3    H156854   6.810   2.824   3.975  1.0153 -0.5297 -1.7056
11813TIP3    H256855   6.785   2.677   3.946  0.7568 -1.1957  1.5367
11814TIP3   OH256856   0.276   6.430   4.819  0.0600 -0.0286 -0.0346
11814TIP3    H156857   0.310   6.340   4.816  0.5663  0.1356  0.8094
11814TIP3    H256858   0.255   6.450   4.727 -0.3466 -1.1133 -0.1942
11815TIP3   OH256859   6.043   5.330   1.188  0.0562  0.2555  0.6506
11815TIP3    H156860   6.031   5.284   1.105  0.7269  1.2118 -0.0028
11815TIP3    H256861   5.965   5.386   1.196 -0.2288 -0.1754  0.8971
11816TIP3   OH256862   3.566   1.734  11.706  0.4596 -0.2539  0.0021
11816TIP3    H156863   3.578   1.679  11.783  1.9256  0.5483  0.3968
11816TIP3    H256864   3.515   1.681  11.645 -0.6419 -0.9454  1.4647
11817TIP3   OH256865   5.913   2.089   3.521 -0.4502  0.7388  0.0225
11817TIP3    H156866   6.004   2.060   3.518 -0.6672 -0.0188  0.5535
11817TIP3    H256867   5.882   2.082   3.431 -0.1594  0.4174 -0.0546
11818TIP3   OH256868   0.702   1.749  15.556 -0.1841 -0.0045 -0.0467
11818TIP3    H156869   0.674   1.673  15.504 -0.3992 -0.5976  0.9189
11818TIP3    H256870   0.765   1.794  15.500  3.0961 -3.0705  0.7854
11819TIP3   OH256871   4.956   1.372  11.361  0.2103  0.2109 -0.7046
11819TIP3    H156872   4.962   1.437  11.292  0.2727  3.9968  2.5134
11819TIP3    H256873   5.047   1.354  11.385  0.2216 -1.6252 -1.8758
11820TIP3   OH256874   2.816   2.190   4.010  0.1891 -0.6579 -0.7268
11820TIP3    H156875   2.813   2.264   3.949  1.7989  1.3914  1.5229
11820TIP3    H256876   2.908   2.163   4.011  0.6926  0.7412  2.1889
11821TIP3   OH256877   1.142   0.717  16.102  0.0828  0.1574 -0.9560
11821TIP3    H156878   1.092   0.767  16.038 -2.3071 -1.7298 -0.6872
11821TIP3    H256879   1.135   0.767  16.183 -1.7289 -0.2332 -0.8420
11822TIP3   OH256880   1.758   2.397  16.977 -0.0161  0.7532  0.5890
11822TIP3    H156881   1.727   2.480  17.011 -0.5644 -0.8018  4.4671
11822TIP3    H256882   1.844   2.385  17.018  0.4723 -0.1737 -0.6508
11823TIP3   OH256883   4.689   4.992   1.717  0.6451 -0.0921  0.4023
11823TIP3    H156884   4.772   5.033   1.692  0.2225  0.2745 -0.4745
11823TIP3    H256885   4.644   4.977   1.633 -0.7837  1.0394  0.9181
11824TIP3   OH256886   5.898   1.137   2.678  0.4390 -0.2327  0.3497
11824TIP3    H156887   5.824   1.079   2.659 -1.2085  1.0313  2.4190
11824TIP3    H256888   5.956   1.085   2.733  0.7882 -1.0141 -0.7234
11825TIP3   OH256889   0.116   6.476   0.808 -0.0629  0.0919 -0.4643
11825TIP3    H156890   0.086   6.527   0.733  1.2687  0.1157 -1.0046
11825TIP3    H256891   0.138   6.542   0.874 -2.2169  0.0382  0.3701
11826TIP3   OH256892   1.072   5.700  14.349 -0.6676 -0.2628  0.1925
11826TIP3    H156893   1.159   5.728  14.378 -0.2119 -2.0441  0.6480
11826TIP3    H256894   1.025   5.679  14.430 -1.3496  0.1699 -0.0796
11827TIP3   OH256895   5.751   5.086   4.467  0.2772 -0.3183  0.0684
11827TIP3    H156896   5.836   5.104   4.507 -0.5084 -0.7939  2.0878
11827TIP3    H256897   5.687   5.109   4.535 -1.2026 -0.1132 -1.3383
11828TIP3   OH256898   3.133   2.401  16.862 -0.3762 -0.2723 -0.2796
11828TIP3    H156899   3.050   2.407  16.813 -1.0593 -0.7443  0.7769
11828TIP3    H256900   3.145   2.307  16.876 -1.3994 -0.0693  2.3871
11829TIP3   OH256901   0.770   1.232   0.545 -0.6277  0.1094  0.1461
11829TIP3    H156902   0.837   1.227   0.613  0.4148 -0.6261 -0.8970
11829TIP3    H256903   0.697   1.180   0.580 -1.3716  2.2287  1.9873
11830TIP3   OH256904   3.105   1.246  11.304 -0.0587  0.1150  0.2295
11830TIP3    H156905   3.155   1.202  11.235 -1.0682 -1.4210  0.4383
11830TIP3    H256906   3.171   1.287  11.359  0.9173 -0.9465 -0.1145
11831TIP3   OH256907   0.474   4.997   0.506  0.6139  0.7059 -0.0080
11831TIP3    H156908   0.514   4.946   0.436 -1.1046 -0.4947 -0.1850
11831TIP3    H256909   0.382   5.006   0.480 -0.4890 -1.1295  2.7570
11832TIP3   OH256910   0.961   0.920   5.116  0.3509  0.2019 -0.5641
11832TIP3    H156911   0.982   0.898   5.026  0.8392  0.0359 -0.4115
11832TIP3    H256912   0.956   0.835   5.161 -0.2747  0.2559 -0.5101
11833TIP3   OH256913   4.326   3.093  11.819 -0.3612 -0.0418  0.4221
11833TIP3    H156914   4.344   3.129  11.732 -2.4964  3.0816  1.0800
11833TIP3    H256915   4.273   3.015  11.802 -1.3211  0.8863 -1.1042
11834TIP3   OH256916   3.134   3.540  15.766  0.4400 -0.0260  0.1347
11834TIP3    H156917   3.208   3.588  15.729  0.5130 -0.0844  0.2058
11834TIP3    H256918   3.057   3.582  15.728  0.5131 -0.0377 -0.0246
11835TIP3   OH256919   3.783   4.149   3.898 -0.0404  0.3430  0.3350
11835TIP3    H156920   3.808   4.238   3.873  0.9155  0.1892  0.7234
11835TIP3    H256921   3.703   4.160   3.949  0.7089  1.0871  1.3607
11836TIP3   OH256922   2.165   1.447  13.514  0.0484 -0.0782 -0.3522
11836TIP3    H156923   2.224   1.385  13.472 -1.1058 -0.7112 -1.1082
11836TIP3    H256924   2.113   1.483  13.442 -0.1224  0.8676  0.2279
11837TIP3   OH256925   3.448   2.382   1.354 -0.0350  0.4835 -0.1239
11837TIP3    H156926   3.446   2.337   1.270  2.6008  0.8586 -0.4674
11837TIP3    H256927   3.419   2.471   1.335 -1.2838  0.0873 -0.2125
11838TIP3   OH256928   1.923   1.947   4.051  0.2674 -0.5327 -0.8421
11838TIP3    H156929   1.958   1.934   3.963 -1.5125  0.7880 -1.8100
11838TIP3    H256930   1.828   1.949   4.039  0.0123  0.3752  1.0014
11839TIP3   OH256931   3.552   2.796   5.033  0.3756  0.4856 -0.7204
11839TIP3    H156932   3.640   2.830   5.013  0.1376  1.6707  0.1573
11839TIP3    H256933   3.535   2.824   5.122 -0.4989 -0.6425 -0.5077
11840TIP3   OH256934   0.385   2.399  17.158 -0.2954  0.4229  0.3761
11840TIP3    H156935   0.335   2.424  17.235  2.0292  0.8722  1.8289
11840TIP3    H256936   0.466   2.449  17.164  0.6162 -0.6755 -1.5617
11841TIP3   OH256937   5.611   1.321   2.564 -0.4957  0.5545  0.3001
11841TIP3    H156938   5.527   1.282   2.590 -0.9604  2.3774  1.7831
11841TIP3    H256939   5.586   1.402   2.519  0.4466 -0.4049 -2.1414
11842TIP3   OH256940   0.277   6.281  12.368 -0.1028  0.3503  0.8258
11842TIP3    H156941   0.352   6.227  12.342  0.0316  0.3839  1.1345
11842TIP3    H256942   0.296   6.368  12.333 -1.1345 -0.1658 -1.1943
11843TIP3   OH256943   4.119   3.174  15.959  0.2959 -0.0657 -0.3926
11843TIP3    H156944   4.191   3.177  15.896  1.9276 -0.5539  1.3569
11843TIP3    H256945   4.081   3.262  15.956  0.9043  0.1750 -1.4202
11844TIP3   OH256946   5.139   1.110   0.287 -0.7629 -0.0563  0.2267
11844TIP3    H156947   5.152   1.157   0.205  0.1437  2.0976  1.5244
11844TIP3    H256948   5.071   1.046   0.267 -0.8937  0.7108 -2.0771
11845TIP3   OH256949   3.621   1.720   3.256 -0.1650  0.1379 -0.2936
11845TIP3    H156950   3.556   1.764   3.201 -1.1988 -1.2272 -0.2397
11845TIP3    H256951   3.578   1.638   3.282  1.5690 -0.8073 -0.2310
11846TIP3   OH256952   0.175   1.939  14.973  0.1204  0.1250 -0.0327
11846TIP3    H156953   0.191   1.878  14.901 -1.2979 -2.1202  1.4176
11846TIP3    H256954   0.261   1.979  14.991  0.5067  0.8196 -2.9002
11847TIP3   OH256955   0.399   5.276  16.583  0.0331 -0.1043 -0.1891
11847TIP3    H156956   0.471   5.300  16.641 -0.9586  2.1084  0.2150
11847TIP3    H256957   0.436   5.282  16.495  0.8498 -0.9607  0.0799
11848TIP3   OH256958   0.009   1.006   2.496 -0.1467 -0.3514 -0.0386
11848TIP3    H156959  -0.016   0.914   2.482 -0.3473 -0.2663 -0.2486
11848TIP3    H256960   0.014   1.043   2.407  0.5303 -0.3153  0.0078
11849TIP3   OH256961   0.408   0.356   0.682  0.1656 -0.2738 -0.4150
11849TIP3    H156962   0.412   0.390   0.593  1.7379  3.4635  0.9011
11849TIP3    H256963   0.319   0.372   0.711  0.0702 -0.0817 -0.8207
11850TIP3   OH256964   2.085   2.115   4.383 -0.5339  0.5586  0.3776
11850TIP3    H156965   2.138   2.048   4.340  0.6070  1.9194 -0.4411
11850TIP3    H256966   2.123   2.198   4.353 -0.5651  1.5841  2.9148
11851TIP3   OH256967   1.938   2.177   5.878  0.0845  0.2754 -0.5373
11851TIP3    H156968   1.893   2.109   5.929 -0.3108  1.1950  0.3829
11851TIP3    H256969   1.992   2.223   5.943  0.6342  0.6106 -1.2200
11852TIP3   OH256970   6.682   2.052   3.954 -0.5749 -0.3178  0.4324
11852TIP3    H156971   6.614   2.004   3.906  0.1846 -0.0785 -0.9546
11852TIP3    H256972   6.634   2.117   4.006 -1.3993  0.3899 -1.1372
11853TIP3   OH256973   5.516   4.267   5.181  0.0289 -0.0064 -0.1423
11853TIP3    H156974   5.582   4.197   5.183  1.2577  1.0726 -1.1621
11853TIP3    H256975   5.437   4.224   5.149 -0.0434 -1.5125  1.8758
11854TIP3   OH256976   2.990   1.937   1.497  0.3042 -0.1725  0.2287
11854TIP3    H156977   3.085   1.932   1.500  0.4569 -0.1887 -2.2147
11854TIP3    H256978   2.962   1.936   1.589  2.5135 -2.3010  0.9673
11855TIP3   OH256979   2.820   0.857  15.745 -0.3696  0.6563  0.0899
11855TIP3    H156980   2.842   0.793  15.678 -0.1686 -1.1164  1.7728
11855TIP3    H256981   2.724   0.861  15.745 -0.3957  0.0114  0.2884
11856TIP3   OH256982   5.674   1.393  11.476  0.0234 -0.6727  0.0684
11856TIP3    H156983   5.681   1.346  11.559  0.6381  0.3883  0.6403
11856TIP3    H256984   5.625   1.473  11.498 -1.0471 -1.0419 -0.8924
11857TIP3   OH256985   5.164   6.552   0.088 -0.3357  0.4094  0.3300
11857TIP3    H156986   5.214   6.482   0.132 -0.2278  0.4330  0.2471
11857TIP3    H256987   5.112   6.592   0.158  0.8048  1.3025  0.6970
11858TIP3   OH256988   4.171   0.712  13.116 -0.0748  0.5252 -0.2520
11858TIP3    H156989   4.139   0.741  13.030  0.0819  0.5314 -0.3086
11858TIP3    H256990   4.254   0.759  13.127 -0.1950  0.6781 -0.0069
11859TIP3   OH256991   1.778   3.078  15.940 -0.0201 -0.1450  0.3744
11859TIP3    H156992   1.762   3.152  15.881 -0.8781 -0.5167  0.1288
11859TIP3    H256993   1.731   3.101  16.020  2.3725  1.0771  1.5547
11860TIP3   OH256994   5.175   2.304  14.396 -0.3785  0.1939 -0.6725
11860TIP3    H156995   5.128   2.261  14.325  0.7432 -0.3569 -1.1051
11860TIP3    H256996   5.163   2.247  14.471  1.1622 -0.9827 -1.2607
11861TIP3   OH256997   0.793   3.280   5.124 -0.1273 -0.7665  0.0045
11861TIP3    H156998   0.810   3.197   5.079  0.2503 -1.3181  1.1381
11861TIP3    H256999   0.792   3.258   5.217  0.4216  0.5759  0.3573
11862TIP3   OH257000   0.016   1.504   1.832 -0.2010  0.7957  0.2017
11862TIP3    H157001   0.089   1.482   1.890  0.6659 -0.8775 -1.4142
11862TIP3    H257002  -0.025   1.420   1.812 -0.0125  1.1806 -2.1398
11863TIP3   OH257003   0.003   1.064  15.611  0.0915 -0.0331  0.3333
11863TIP3    H157004  -0.063   1.125  15.645 -1.1521 -0.2396 -1.5665
11863TIP3    H257005  -0.028   0.977  15.639 -0.8255 -0.1836 -1.0052
11864TIP3   OH257006   0.729   3.770  13.784 -0.2144 -0.2250 -0.2397
11864TIP3    H157007   0.757   3.861  13.786 -1.2978  0.1328 -0.7696
11864TIP3    H257008   0.726   3.744  13.876  2.5589 -0.5407 -0.1537
11865TIP3   OH257009   1.797   5.534   2.272 -0.4514 -0.0831  0.5251
11865TIP3    H157010   1.734   5.491   2.215 -1.7037  2.1494  0.1113
11865TIP3    H257011   1.873   5.476   2.272 -0.9227 -0.8413 -2.3034
11866TIP3   OH257012   1.454   2.825   1.621 -0.2576  0.3091  0.8033
11866TIP3    H157013   1.447   2.753   1.559  0.2750  1.3474 -0.5126
11866TIP3    H257014   1.373   2.875   1.610 -0.1146  0.5587  0.8693
11867TIP3   OH257015   5.239   6.276  11.452 -0.2224 -0.1667 -0.0306
11867TIP3    H157016   5.223   6.191  11.493 -0.0347 -1.2252 -2.0274
11867TIP3    H257017   5.317   6.262  11.398  0.7891  1.7550  0.8451
11868TIP3   OH257018   5.908   2.142   6.742 -0.0090 -0.5350  0.0059
11868TIP3    H157019   5.820   2.149   6.778 -0.2285 -2.4275 -0.0552
11868TIP3    H257020   5.930   2.231   6.714 -0.8524  0.4827  2.3613
11869TIP3   OH257021   3.686   5.226   2.833  0.3785  0.2371 -0.1404
11869TIP3    H157022   3.738   5.296   2.870 -1.8499  2.6921 -1.3116
11869TIP3    H257023   3.661   5.172   2.908  1.7119  0.9579  0.8698
11870TIP3   OH257024   0.421   2.896   0.686  0.5456 -0.6371  0.0104
11870TIP3    H157025   0.444   2.803   0.686  0.3584 -0.7019 -1.3861
11870TIP3    H257026   0.444   2.926   0.598 -0.8959  0.2498 -0.1004
11871TIP3   OH257027   5.307   1.986  15.341 -0.0838  0.5657 -0.9603
11871TIP3    H157028   5.264   1.905  15.367  0.0609 -0.0277 -2.4450
11871TIP3    H257029   5.237   2.051  15.339 -0.1939  0.5051  0.2816
11872TIP3   OH257030   5.916   4.435   3.450 -0.2934 -0.6128 -0.5628
11872TIP3    H157031   5.877   4.417   3.364 -2.0808  2.6351 -0.5794
11872TIP3    H257032   5.981   4.504   3.433 -1.4738  0.8924  0.7684
11873TIP3   OH257033   2.299   2.096  13.548  0.2075  0.5861  0.1558
11873TIP3    H157034   2.315   2.030  13.616 -1.0028  0.7841  0.6548
11873TIP3    H257035   2.332   2.177  13.586 -1.3605  0.8845  0.9422
11874TIP3   OH257036   1.315   1.046   1.623  0.2370  0.7789 -1.0004
11874TIP3    H157037   1.294   1.105   1.696  2.9306  0.4338  0.1692
11874TIP3    H257038   1.377   0.983   1.660 -2.4001 -2.8625 -2.2055
11875TIP3   OH257039   3.339   6.344   5.070  0.4239 -0.6831  0.4377
11875TIP3    H157040   3.311   6.256   5.046  1.5974 -1.0437  0.2882
11875TIP3    H257041   3.424   6.355   5.027  1.4869 -0.4489  2.4671
11876TIP3   OH257042   2.800   2.833   4.212  0.4411  0.1376  0.3552
11876TIP3    H157043   2.731   2.816   4.147 -1.1996  3.0842  1.1509
11876TIP3    H257044   2.754   2.831   4.296  1.8414 -0.1932  1.1463
11877TIP3   OH257045   5.425   4.455   6.038 -0.0820  0.1317 -0.1457
11877TIP3    H157046   5.386   4.526   5.987 -0.4398 -0.4830 -0.7416
11877TIP3    H257047   5.519   4.461   6.020 -0.1811  0.0517 -0.7182
11878TIP3   OH257048   3.841   1.402   1.755 -0.8332  0.2026 -0.1284
11878TIP3    H157049   3.920   1.381   1.806 -1.4264 -1.0484  0.3159
11878TIP3    H257050   3.853   1.493   1.730  0.4152  0.2603  0.5572
11879TIP3   OH257051   2.068   1.987   0.262 -0.4845 -0.6046  0.2894
11879TIP3    H157052   2.068   2.082   0.275  1.1365 -0.2222 -1.8447
11879TIP3    H257053   2.022   1.975   0.178 -2.4009 -1.9511  1.4573
11880TIP3   OH257054   6.022   4.810   2.410  0.0757  0.0654 -0.1845
11880TIP3    H157055   6.016   4.898   2.372  1.4615  0.6705  0.9030
11880TIP3    H257056   6.043   4.825   2.502 -2.6065 -1.3914  0.7710
11881TIP3   OH257057   0.528   0.126  15.668  0.1031  0.0814 -0.2276
11881TIP3    H157058   0.542   0.101  15.760 -1.5849  1.4250  0.4534
11881TIP3    H257059   0.612   0.162  15.641 -0.0131  1.9870  1.6410
11882TIP3   OH257060   1.948   6.537  14.413 -0.1363 -0.4778  0.3074
11882TIP3    H157061   1.888   6.474  14.454 -1.3009  0.8734  0.7269
11882TIP3    H257062   1.903   6.568  14.336  0.2913  0.0961  0.2815
11883TIP3   OH257063   4.856   0.862  15.924  0.7203  0.4269 -0.3437
11883TIP3    H157064   4.803   0.879  16.002  0.2162  1.7270 -0.9381
11883TIP3    H257065   4.792   0.844  15.855  1.0750  1.2167 -0.8880
11884TIP3   OH257066   6.250   3.407  16.104 -0.0032  0.3322 -0.1282
11884TIP3    H157067   6.191   3.405  16.179 -1.0069  1.2560 -0.8551
11884TIP3    H257068   6.250   3.317  16.071  2.2145 -0.6572  2.2361
11885TIP3   OH257069   0.585   3.977  16.461 -0.2452  0.4399 -0.0223
11885TIP3    H157070   0.516   4.034  16.494 -1.3717 -1.1311  0.4677
11885TIP3    H257071   0.647   3.970  16.533  0.1442  1.3571 -0.2442
11886TIP3   OH257072   0.443   1.466   0.426  0.1626  0.8551 -0.1315
11886TIP3    H157073   0.506   1.413   0.376 -0.7244  0.1383 -0.5136
11886TIP3    H257074   0.432   1.545   0.373 -0.9073  0.0214 -1.1926
11887TIP3   OH257075   5.647   1.404   4.117  0.5976  0.0038  0.0361
11887TIP3    H157076   5.692   1.477   4.158  1.1640 -0.6713  0.6390
11887TIP3    H257077   5.702   1.379   4.043  0.6270 -0.0857  0.0873
11888TIP3   OH257078   5.282   0.897  16.345 -0.0590  0.6920  0.2276
11888TIP3    H157079   5.205   0.945  16.314  0.1341  1.2443  0.5685
11888TIP3    H257080   5.247   0.816  16.382 -0.7471  1.8536  2.3348
11889TIP3   OH257081   6.051   3.652   3.297 -0.5027  0.1764 -0.5210
11889TIP3    H157082   6.072   3.628   3.207  0.1357 -0.0298 -0.3233
11889TIP3    H257083   6.084   3.742   3.306  1.5842 -0.5962  0.1794
11890TIP3   OH257084   1.197   5.672   6.490 -0.8830  0.5803  0.4489
11890TIP3    H157085   1.210   5.754   6.443 -0.9504 -0.4139 -1.4034
11890TIP3    H257086   1.277   5.662   6.541 -1.0900  2.0260  1.0983
11891TIP3   OH257087   0.136   1.153   4.722 -0.3234  0.2036 -0.2725
11891TIP3    H157088   0.104   1.223   4.665  1.2045  0.7055 -0.5572
11891TIP3    H257089   0.230   1.170   4.731 -0.4775  0.1336  2.3841
11892TIP3   OH257090   1.062   0.498  15.898 -0.6939  0.2242  0.1196
11892TIP3    H157091   1.031   0.541  15.978 -0.8222  0.0728  0.1510
11892TIP3    H257092   1.128   0.558  15.862  1.0337 -0.7280  1.5403
11893TIP3   OH257093   3.883   5.259  12.965  0.3471  0.1659 -0.0260
11893TIP3    H157094   3.939   5.309  12.905  2.3980  0.1232  1.7357
11893TIP3    H257095   3.847   5.325  13.024 -2.2459  0.3030 -1.6213
11894TIP3   OH257096   3.935   0.787   3.100 -0.1290  0.2285  0.5432
11894TIP3    H157097   3.914   0.740   3.180 -1.1612 -0.0891  0.1074
11894TIP3    H257098   4.030   0.802   3.104  0.0300 -0.8798  1.2291
11895TIP3   OH257099   5.756   2.612   0.959  0.0421  0.5718  0.6154
11895TIP3    H157100   5.687   2.646   0.903 -0.8125  0.8021  1.7607
11895TIP3    H257101   5.805   2.552   0.904 -3.0823 -2.2207  0.5535
11896TIP3   OH257102   3.785   4.702   4.251  0.2331 -0.1957  0.4190
11896TIP3    H157103   3.814   4.782   4.296 -2.3841  0.2324  1.5647
11896TIP3    H257104   3.713   4.669   4.305  0.7281 -2.9455 -0.4520
11897TIP3   OH257105   3.110   2.624   0.820 -0.2103 -0.3538  0.2368
11897TIP3    H157106   3.147   2.684   0.886  1.2822 -2.5797  1.5520
11897TIP3    H257107   3.016   2.637   0.826  0.0186  1.1715  1.1523
11898TIP3   OH257108   5.770   6.453   4.949 -0.0857  0.3534  0.3695
11898TIP3    H157109   5.743   6.364   4.928 -1.1162  1.0723 -1.7235
11898TIP3    H257110   5.847   6.443   5.004 -0.6057 -1.8169  0.7899
11899TIP3   OH257111   5.079   1.583   6.511  0.1985 -0.4451  0.4394
11899TIP3    H157112   5.158   1.546   6.549 -0.0378 -0.0604  1.3304
11899TIP3    H257113   5.052   1.520   6.445 -0.9894 -2.6357  2.8486
11900TIP3   OH257114   4.681   5.607   3.866 -0.0196 -0.2828  0.1591
11900TIP3    H157115   4.629   5.652   3.934  0.2148  0.3782 -0.0866
11900TIP3    H257116   4.682   5.669   3.793  1.4034 -0.1409  0.2826
11901TIP3   OH257117   5.360   5.480  11.270  0.0090  0.1956 -0.3422
11901TIP3    H157118   5.442   5.516  11.303 -1.8098  2.2765  2.4289
11901TIP3    H257119   5.374   5.469  11.176  2.8364  2.1699 -0.2712
11902TIP3   OH257120   2.233   4.514  14.041 -0.2694 -0.1058 -0.0892
11902TIP3    H157121   2.211   4.606  14.054 -1.1449 -0.0029 -1.9123
11902TIP3    H257122   2.329   4.511  14.043 -0.2651  0.5668  1.4916
11903TIP3   OH257123   2.498   1.260   4.183 -0.2270 -0.2225  0.5375
11903TIP3    H157124   2.577   1.233   4.136 -0.8957 -0.9017 -0.2205
11903TIP3    H257125   2.517   1.240   4.275  0.0711 -1.4504  0.2332
11904TIP3   OH257126   3.403   0.446  12.320 -0.0881 -0.4627 -0.2208
11904TIP3    H157127   3.356   0.529  12.318  0.1406 -0.3431 -0.9194
11904TIP3    H257128   3.351   0.388  12.262 -0.5743 -0.9891  0.7175
11905TIP3   OH257129   0.286   4.441   1.838 -0.2549  0.1451  0.0867
11905TIP3    H157130   0.299   4.517   1.894 -0.7805  2.0022 -2.1469
11905TIP3    H257131   0.355   4.447   1.772  1.0250 -2.5698  1.0421
11906TIP3   OH257132   3.323   0.302  10.912 -0.3637  0.5957  0.0615
11906TIP3    H157133   3.361   0.297  10.824  2.2961 -1.7852  1.1751
11906TIP3    H257134   3.248   0.243  10.908  0.7588 -0.8976 -0.2684
11907TIP3   OH257135   4.235   0.332   4.246  0.1010  0.4321  0.0846
11907TIP3    H157136   4.205   0.396   4.182 -1.3907 -1.4412 -1.2087
11907TIP3    H257137   4.193   0.358   4.328 -1.3384  0.5510 -0.6602
11908TIP3   OH257138   3.869   2.583   0.889  0.3250  0.2756  0.0501
11908TIP3    H157139   3.887   2.528   0.812 -0.0477 -0.7640  0.6798
11908TIP3    H257140   3.953   2.623   0.910  1.2919 -2.1782  1.1747
11909TIP3   OH257141   4.715   3.800   0.071 -0.4875 -0.0346  0.1931
11909TIP3    H157142   4.770   3.735   0.029  0.6270  1.0886 -0.1439
11909TIP3    H257143   4.642   3.750   0.107 -0.0722 -1.3556 -0.7305
11910TIP3   OH257144   1.644   2.564  14.460  0.3073 -0.5900  0.0073
11910TIP3    H157145   1.627   2.653  14.492  1.4686 -0.1630 -0.5215
11910TIP3    H257146   1.671   2.516  14.538 -2.1102 -1.0226  0.6809
11911TIP3   OH257147   4.771   4.407  14.279  0.0187  0.6127  0.2468
11911TIP3    H157148   4.850   4.460  14.268  0.2792 -0.0115 -1.0414
11911TIP3    H257149   4.802   4.317  14.272 -0.5689  0.2925  1.4279
11912TIP3   OH257150   1.544   2.896  11.840 -0.2758  0.1814 -0.2996
11912TIP3    H157151   1.549   2.866  11.931  0.0546 -0.5603 -0.5639
11912TIP3    H257152   1.493   2.829  11.795 -1.3065  1.0417 -0.4633
11913TIP3   OH257153   6.200   3.796   5.943 -0.3625  0.3282 -0.4689
11913TIP3    H157154   6.137   3.785   6.014 -0.7887  0.0490 -0.8791
11913TIP3    H257155   6.271   3.735   5.963 -0.0302  0.9129  0.1933
11914TIP3   OH257156   4.385   0.805   2.563  0.0918  0.8818 -0.2476
11914TIP3    H157157   4.322   0.848   2.505 -1.6286 -1.9266 -0.6838
11914TIP3    H257158   4.457   0.780   2.506 -1.5940 -1.8687 -1.3812
11915TIP3   OH257159   6.667   4.136  14.835 -0.0587 -0.4990 -0.5206
11915TIP3    H157160   6.688   4.164  14.746  0.1347  0.5128 -0.1630
11915TIP3    H257161   6.581   4.093  14.827  0.3333 -1.1716 -1.3238
11916TIP3   OH257162   4.823   5.483  10.427  0.0615 -0.4691 -0.4350
11916TIP3    H157163   4.880   5.560  10.426  1.1195 -1.1525  1.5384
11916TIP3    H257164   4.742   5.513  10.467  0.7021 -0.4973  0.9136
11917TIP3   OH257165   2.071   4.429   2.440  0.2209  0.0058  0.2678
11917TIP3    H157166   2.103   4.407   2.527  1.1523  0.4924  0.0585
11917TIP3    H257167   2.114   4.366   2.382 -0.1970 -0.1483  0.1180
11918TIP3   OH257168   4.151   3.561  14.117 -0.1285  0.2256  0.7958
11918TIP3    H157169   4.097   3.500  14.067 -1.1560  2.0372 -0.3667
11918TIP3    H257170   4.157   3.639  14.062  0.1622  1.6379  2.7452
11919TIP3   OH257171   2.155   4.759  12.427 -0.3888 -0.4644 -0.2351
11919TIP3    H157172   2.103   4.762  12.508  1.6787 -3.7377  1.4476
11919TIP3    H257173   2.099   4.714  12.364 -1.0445 -0.3013  0.2191
11920TIP3   OH257174   6.380   5.070  14.689  0.4806  0.0788  0.0212
11920TIP3    H157175   6.376   4.977  14.713  0.0031  0.3696  1.1356
11920TIP3    H257176   6.431   5.110  14.759 -0.4798  0.8702  0.2893
11921TIP3   OH257177   1.948   4.886   6.080  0.3696  0.0954  0.2484
11921TIP3    H157178   2.026   4.906   6.132  0.4858  0.3403 -0.0232
11921TIP3    H257179   1.980   4.832   6.008  0.0452 -1.2313  1.0437
11922TIP3   OH257180   2.796   1.789  16.542  0.1942 -0.4621 -0.8113
11922TIP3    H157181   2.745   1.710  16.527  0.6451 -0.7238 -0.9772
11922TIP3    H257182   2.807   1.792  16.637  1.8831 -1.7015 -0.9220
11923TIP3   OH257183   5.622   5.025   2.832  0.2587 -0.2389  0.1524
11923TIP3    H157184   5.659   5.101   2.786  2.6895 -1.0706  0.5426
11923TIP3    H257185   5.545   5.001   2.781  0.4817  1.3766 -1.0330
11924TIP3   OH257186   2.031   3.654  12.922  0.0207 -0.3316 -0.0207
11924TIP3    H157187   2.003   3.618  13.007 -2.0370 -2.2148 -1.3752
11924TIP3    H257188   2.069   3.579  12.876 -1.2029 -0.0104 -1.6510
11925TIP3   OH257189   6.168   3.490  15.010 -0.1871 -0.1066  0.1954
11925TIP3    H157190   6.179   3.582  15.035  0.5472 -0.2641  0.4815
11925TIP3    H257191   6.215   3.442  15.078 -1.4633 -0.7559  0.6458
11926TIP3   OH257192   6.253   1.660   6.302  0.2468  0.3468  0.2085
11926TIP3    H157193   6.325   1.662   6.240  0.9608 -2.2526  0.8158
11926TIP3    H257194   6.237   1.752   6.325  0.8796  1.2603 -2.6873
11927TIP3   OH257195   6.038   5.902   4.326 -0.0566  0.2720  0.0690
11927TIP3    H157196   5.947   5.930   4.320 -0.2795 -0.2432  0.8185
11927TIP3    H257197   6.067   5.936   4.411  0.2099 -0.2141  0.1775
11928TIP3   OH257198   4.129   2.124  13.591 -0.1149 -0.3634 -0.6080
11928TIP3    H157199   4.063   2.138  13.523 -0.1593  1.0835 -0.2881
11928TIP3    H257200   4.202   2.181  13.566 -0.2964  0.5093  0.7451
11929TIP3   OH257201   3.878   3.275   5.544 -0.3774  0.7450 -0.5228
11929TIP3    H157202   3.887   3.200   5.602 -2.7038  1.3468  0.7211
11929TIP3    H257203   3.963   3.280   5.499  0.8487 -0.8856  1.4170
11930TIP3   OH257204   5.404   0.601   4.105 -0.2259  0.0369 -0.0339
11930TIP3    H157205   5.470   0.668   4.123 -0.8738  0.4524  0.9027
11930TIP3    H257206   5.380   0.568   4.192 -0.0968 -1.2497 -0.4674
11931TIP3   OH257207   5.869   6.005   2.391  0.2320  0.9274  0.4801
11931TIP3    H157208   5.795   6.065   2.386 -1.0349 -0.5748  0.4274
11931TIP3    H257209   5.867   5.956   2.309  2.0222  1.6414 -0.0426
11932TIP3   OH257210   2.577   3.272  16.691 -0.5603  0.3280  0.5294
11932TIP3    H157211   2.567   3.186  16.734 -1.2332 -1.3843 -2.7301
11932TIP3    H257212   2.489   3.309  16.691 -0.6230  0.1781  0.3165
11933TIP3   OH257213   2.294   0.161   1.426  0.2837  0.3871  0.0224
11933TIP3    H157214   2.289   0.095   1.357 -0.1544  1.1601 -0.7040
11933TIP3    H257215   2.204   0.193   1.434 -0.0060 -0.7398  2.0251
11934TIP3   OH257216   2.004   0.262   5.258 -0.2549 -0.0902  0.4366
11934TIP3    H157217   2.075   0.198   5.266  0.5309  0.8404  1.2190
11934TIP3    H257218   2.011   0.294   5.168 -0.8232 -1.2710 -0.0459
11935TIP3   OH257219   1.776   4.551   5.378 -0.7831 -0.1288 -0.2363
11935TIP3    H157220   1.718   4.504   5.438  0.7896 -0.1290  1.3533
11935TIP3    H257221   1.856   4.498   5.375 -0.3100  0.5996 -1.2547
11936TIP3   OH257222   6.567   2.246  13.350 -0.2258  0.0831 -0.0142
11936TIP3    H157223   6.612   2.256  13.434  1.7711 -1.9419 -0.7320
11936TIP3    H257224   6.570   2.152  13.332 -0.5533  0.4508 -2.3627
11937TIP3   OH257225   4.308   0.337  12.889 -0.5307  0.2744 -0.0650
11937TIP3    H157226   4.398   0.308  12.873 -1.0125 -1.2258 -0.1980
11937TIP3    H257227   4.258   0.305  12.813 -1.7096 -1.5219  1.3849
11938TIP3   OH257228   1.965   6.011   5.777 -0.2215  0.3542 -0.1902
11938TIP3    H157229   1.983   5.991   5.685 -0.1783  1.4234 -0.4257
11938TIP3    H257230   2.027   6.081   5.799  0.8576 -0.9454  1.1237
11939TIP3   OH257231   3.225   5.670  11.239 -0.3728  0.1304  1.0352
11939TIP3    H157232   3.217   5.664  11.144 -0.7630 -2.6593  1.1788
11939TIP3    H257233   3.315   5.699  11.254  0.0233 -0.4399 -0.1681
11940TIP3   OH257234   4.063   5.772   5.901  0.2340 -0.0264 -0.6439
11940TIP3    H157235   4.012   5.722   5.838 -0.4929 -0.6508  0.3987
11940TIP3    H257236   4.006   5.844   5.927 -0.2184 -0.8202  0.6496
11941TIP3   OH257237   5.812   6.235   5.765 -0.4689  0.0000  0.2105
11941TIP3    H157238   5.758   6.295   5.816 -0.6756  1.8729 -2.0204
11941TIP3    H257239   5.749   6.173   5.728 -1.0653  1.5556 -1.5480
11942TIP3   OH257240   5.954   6.141  12.604 -0.1854 -0.0375 -0.4970
11942TIP3    H157241   6.007   6.087  12.545 -0.9752 -0.1629 -1.1154
11942TIP3    H257242   5.907   6.078  12.659 -1.3146 -0.0210 -1.4004
11943TIP3   OH257243   5.864   2.459  16.253 -0.0052 -0.0226  0.4820
11943TIP3    H157244   5.861   2.453  16.158 -1.1589 -0.4188  0.5234
11943TIP3    H257245   5.887   2.550  16.271 -0.2541  0.1735 -0.1754
11944TIP3   OH257246   5.688   6.605  11.910  0.3166  0.5638  0.5411
11944TIP3    H157247   5.758   6.585  11.848 -0.9046 -0.5897 -0.5440
11944TIP3    H257248   5.691   6.533  11.974 -0.3519  0.0736  0.0358
11945TIP3   OH257249   0.624   4.955  13.381 -0.7041 -0.0945  0.0042
11945TIP3    H157250   0.586   4.869  13.399 -0.6097  0.0578  1.0181
11945TIP3    H257251   0.702   4.937  13.329 -1.1937 -0.5444 -0.5914
11946TIP3   OH257252   3.172   5.103   3.340 -0.1181 -0.0947 -0.4352
11946TIP3    H157253   3.105   5.068   3.282  2.8020 -3.1399 -2.2845
11946TIP3    H257254   3.148   5.070   3.427 -1.7186  0.1604 -0.7429
11947TIP3   OH257255   2.078   3.086   5.924  0.2927  0.2564  0.0430
11947TIP3    H157256   2.070   3.140   6.003  2.1913  0.0626  0.4123
11947TIP3    H257257   2.077   3.148   5.852 -0.4121  0.5246  0.2734
11948TIP3   OH257258   3.736   0.487   2.154  0.2655 -0.2086  0.2154
11948TIP3    H157259   3.761   0.406   2.198 -0.0888 -0.7555 -0.5579
11948TIP3    H257260   3.811   0.545   2.166  1.1640 -1.1741 -0.4825
11949TIP3   OH257261   3.662   0.726   2.432 -0.4006  0.4065 -0.0280
11949TIP3    H157262   3.731   0.669   2.398 -0.3181  1.3464 -1.5295
11949TIP3    H257263   3.699   0.761   2.514  0.8158  0.7046 -0.6760
11950TIP3   OH257264   5.237   3.842   3.035  0.4023  0.3548  0.1887
11950TIP3    H157265   5.177   3.838   3.110 -1.4346  3.1774 -0.9638
11950TIP3    H257266   5.322   3.865   3.073  0.0239 -0.3651  1.5618
11951TIP3   OH257267   0.116   5.548   3.318  0.3258 -0.2850  0.0156
11951TIP3    H157268   0.045   5.506   3.268 -0.2313 -0.2544  0.7631
11951TIP3    H257269   0.196   5.513   3.279 -0.1130 -1.5837  0.2005
11952TIP3   OH257270   0.113   0.544  13.945 -0.2688 -0.2267 -0.1063
11952TIP3    H157271   0.101   0.459  13.989  0.6482 -1.7278 -2.5288
11952TIP3    H257272   0.026   0.565  13.910 -0.6639  0.2380  1.1042
11953TIP3   OH257273   5.495   5.497   4.482 -0.7433 -0.4060 -0.0397
11953TIP3    H157274   5.470   5.481   4.574 -3.4005  0.9720 -0.4300
11953TIP3    H257275   5.445   5.432   4.432 -1.8025  0.8982 -0.7125
11954TIP3   OH257276   4.053   1.399  13.626 -0.4680 -0.4070  0.1239
11954TIP3    H157277   4.069   1.311  13.591  1.8570  0.5431 -1.4536
11954TIP3    H257278   4.118   1.410  13.695 -1.8884 -0.4954  1.5318
11955TIP3   OH257279   4.272   4.883   1.449 -0.1515 -0.1096 -0.0504
11955TIP3    H157280   4.309   4.960   1.406  0.8073  0.6542  2.0346
11955TIP3    H257281   4.326   4.810   1.417 -0.9637  0.0573 -1.9082
11956TIP3   OH257282   5.617   5.737  14.742 -0.1295 -0.1857 -0.0930
11956TIP3    H157283   5.592   5.651  14.775 -0.0556 -0.0856  0.2292
11956TIP3    H257284   5.709   5.747  14.767 -0.0951 -0.0760 -0.2582
11957TIP3   OH257285   4.046   5.990  11.585  0.2329  0.4511 -0.0861
11957TIP3    H157286   4.030   5.903  11.621 -0.4358  0.5858 -0.0378
11957TIP3    H257287   4.050   5.976  11.490 -0.7791  0.4843 -0.1480
11958TIP3   OH257288   5.714   5.683  14.282 -0.2408  0.4445 -0.6447
11958TIP3    H157289   5.782   5.718  14.224 -0.9532 -0.4998 -2.0990
11958TIP3    H257290   5.758   5.613  14.330  0.2394  0.9344 -0.3562
11959TIP3   OH257291   2.553   1.200   4.435  0.4897 -0.3005  0.4803
11959TIP3    H157292   2.612   1.192   4.511 -0.0073  0.2572  0.9361
11959TIP3    H257293   2.474   1.153   4.461  0.2243  0.1013  0.4064
11960TIP3   OH257294   3.454   1.521   5.944  0.4332 -0.2640 -0.6498
11960TIP3    H157295   3.433   1.565   5.861 -0.7775 -0.4875 -0.4792
11960TIP3    H257296   3.398   1.564   6.009 -0.9472 -2.1397 -0.5187
11961TIP3   OH257297   5.483   6.591   3.247 -0.3024  0.1429 -0.0345
11961TIP3    H157298   5.474   6.612   3.340  0.7702  0.7200 -0.0495
11961TIP3    H257299   5.449   6.669   3.202  0.6952  0.5527 -0.1051
11962TIP3   OH257300   4.128   3.601  16.466  0.1648  0.6103  0.4602
11962TIP3    H157301   4.074   3.588  16.543 -0.5274  0.9010  0.0347
11962TIP3    H257302   4.215   3.621  16.501 -0.0575  0.3978  1.1548
11963TIP3   OH257303   2.933   4.875  13.874  0.0104  0.2046 -0.6866
11963TIP3    H157304   2.895   4.938  13.935 -0.3204 -0.9523  0.3286
11963TIP3    H257305   3.019   4.913  13.852 -0.1719  0.9955 -0.0860
11964TIP3   OH257306   3.634   5.579   0.740  0.0018  0.0862  0.5386
11964TIP3    H157307   3.605   5.565   0.830 -0.0226  1.5700  0.7818
11964TIP3    H257308   3.629   5.673   0.727 -1.0008 -0.1783 -1.3826
11965TIP3   OH257309   0.816   5.069   6.303  0.2741 -0.0209 -0.5846
11965TIP3    H157310   0.892   5.012   6.294 -0.6409 -1.6225  1.2199
11965TIP3    H257311   0.854   5.155   6.322  1.6798 -0.9850  1.3198
11966TIP3   OH257312   0.460   5.886   4.531 -0.1141  0.2609 -0.1037
11966TIP3    H157313   0.379   5.911   4.487 -0.2007  1.1589  0.5437
11966TIP3    H257314   0.473   5.794   4.506 -0.9244  0.3230 -0.8163
11967TIP3   OH257315   3.789   2.286   1.020 -0.2913  0.2932 -0.1179
11967TIP3    H157316   3.843   2.232   1.077  1.5598  0.7206 -1.3736
11967TIP3    H257317   3.753   2.353   1.077  1.6650  0.8286  0.5576
11968TIP3   OH257318   3.526   4.810   3.541  0.2974  0.0748 -0.6052
11968TIP3    H157319   3.601   4.810   3.600  1.3096 -0.7602 -1.8472
11968TIP3    H257320   3.479   4.729   3.562  1.0863 -0.6157 -1.4427
11969TIP3   OH257321   1.082   5.839  15.571 -0.2411 -0.0149 -0.1111
11969TIP3    H157322   1.069   5.889  15.490  1.9580 -1.0275 -1.1779
11969TIP3    H257323   1.067   5.748  15.544 -0.3315 -0.2857  0.8411
11970TIP3   OH257324   2.071   6.341   1.526  0.3216 -0.2786 -0.1826
11970TIP3    H157325   2.080   6.286   1.448  0.8627  0.1842 -0.4569
11970TIP3    H257326   1.978   6.363   1.530 -0.0483 -1.7919  0.3354
11971TIP3   OH257327   4.325   5.600   5.096  0.7123  0.6528 -0.2130
11971TIP3    H157328   4.363   5.682   5.127  2.0183  0.2657 -0.7316
11971TIP3    H257329   4.340   5.601   5.001 -1.5472  0.9631 -0.6195
11972TIP3   OH257330   1.652   2.528  15.381  0.0600  0.3163  0.5327
11972TIP3    H157331   1.674   2.446  15.425 -1.6532 -0.7206 -0.4095
11972TIP3    H257332   1.600   2.501  15.305  0.7410  2.2019 -0.6763
11973TIP3   OH257333   0.060   5.412   1.029 -1.1871 -0.6440 -0.0546
11973TIP3    H157334   0.150   5.403   0.997 -1.3255 -1.7879 -0.1460
11973TIP3    H257335   0.051   5.506   1.047  0.1263 -0.5513  0.2584
11974TIP3   OH257336   3.390   1.977   2.652  0.2474  0.1760  0.3406
11974TIP3    H157337   3.379   2.064   2.614 -0.4864  0.2400  0.6770
11974TIP3    H257338   3.375   1.990   2.746 -0.6699 -0.4421  0.2954
11975TIP3   OH257339   3.066   3.897  10.846 -0.0121  0.0271  0.2118
11975TIP3    H157340   3.084   3.810  10.810  0.3702  0.3282 -0.3436
11975TIP3    H257341   3.022   3.944  10.774  1.2814  0.8255 -0.1066
11976TIP3   OH257342   6.102   4.434   5.558  0.8032  0.1089 -0.3786
11976TIP3    H157343   6.008   4.431   5.544  0.8293 -0.4102 -0.4530
11976TIP3    H257344   6.132   4.508   5.505  0.4384  0.2773 -0.3487
11977TIP3   OH257345   6.672   0.840  12.848 -0.2848  0.2584  0.7855
11977TIP3    H157346   6.614   0.781  12.801 -1.6167  1.3991  0.9160
11977TIP3    H257347   6.613   0.901  12.893  1.0138  2.2951 -0.1408
11978TIP3   OH257348   4.666   1.011  10.689 -0.5785  0.1013 -0.0768
11978TIP3    H157349   4.708   1.063  10.621  1.8443  0.5263  1.5869
11978TIP3    H257350   4.645   0.927  10.647  2.2398 -0.2284 -1.0193
11979TIP3   OH257351   0.041   2.859  15.097 -0.6829 -0.2763 -0.0604
11979TIP3    H157352   0.009   2.881  15.185 -2.8019  1.3665 -1.1349
11979TIP3    H257353  -0.031   2.810  15.057 -0.4346  0.4240 -1.4093
11980TIP3   OH257354   0.873   6.697   4.625 -0.4982  0.7848  0.0162
11980TIP3    H157355   0.791   6.739   4.648 -0.6404  0.1735  0.6429
11980TIP3    H257356   0.855   6.603   4.629  0.3353  0.6320  0.5725
11981TIP3   OH257357   5.596   3.247  16.953 -0.4632 -0.4904 -0.1646
11981TIP3    H157358   5.511   3.233  16.911 -1.7102 -1.4175  2.4181
11981TIP3    H257359   5.616   3.162  16.994  1.1456  0.0535  0.2513
11982TIP3   OH257360   6.410   1.757   0.509  0.1155  0.6483 -0.4915
11982TIP3    H157361   6.486   1.711   0.546  0.4623  3.1410  2.1409
11982TIP3    H257362   6.432   1.766   0.416  2.0029 -0.6404 -0.2353
11983TIP3   OH257363   1.311   5.503   4.718  0.0639 -0.3319  0.5657
11983TIP3    H157364   1.390   5.557   4.715  0.8466 -1.4692 -1.4670
11983TIP3    H257365   1.241   5.560   4.686  1.1463 -0.7804 -3.0138
11984TIP3   OH257366   0.757   5.896  15.442 -0.3788 -0.1508  0.1752
11984TIP3    H157367   0.786   5.985  15.460 -2.2178  0.3088  1.2093
11984TIP3    H257368   0.833   5.852  15.406  0.3553  2.0627 -1.1602
11985TIP3   OH257369   6.717   6.521   0.413 -0.5951 -0.1273 -0.2387
11985TIP3    H157370   6.696   6.585   0.345 -1.8250  0.1981  0.3993
11985TIP3    H257371   6.638   6.467   0.419 -0.6090  0.0094  1.0729
11986TIP3   OH257372   4.048   2.276  16.400  0.1713 -0.4984  0.0618
11986TIP3    H157373   4.073   2.327  16.323  1.1686 -0.9629  0.0608
11986TIP3    H257374   4.052   2.185  16.371 -2.3617 -0.5914 -0.1637
11987TIP3   OH257375   5.786   2.102  12.176  0.0371  0.2719  0.0088
11987TIP3    H157376   5.735   2.182  12.181  1.6231  1.2546  2.2147
11987TIP3    H257377   5.862   2.125  12.123 -0.6605 -0.5132 -1.3680
11988TIP3   OH257378   5.936   2.177   5.713  0.2840  0.4157 -0.1500
11988TIP3    H157379   5.963   2.097   5.757  1.4392  0.9781  0.2059
11988TIP3    H257380   5.991   2.246   5.751 -1.8851  1.7206  0.8728
11989TIP3   OH257381   1.039   0.845   4.845 -0.8686  0.4856 -0.0213
11989TIP3    H157382   0.973   0.868   4.780  1.2691  2.5769 -1.6496
11989TIP3    H257383   1.083   0.768   4.808 -1.1012  0.2929  0.0972
11990TIP3   OH257384   5.038   1.784   0.578 -0.1930  0.2423  0.1617
11990TIP3    H157385   4.964   1.843   0.585  0.1748  0.7543 -0.2582
11990TIP3    H257386   5.112   1.833   0.614 -0.2489 -0.6354  1.5513
11991TIP3   OH257387   4.886   3.008  14.912 -0.0724 -0.4663 -0.0379
11991TIP3    H157388   4.920   3.076  14.853 -1.2624 -0.4368 -0.7117
11991TIP3    H257389   4.964   2.959  14.939  0.4301 -1.1525 -2.4704
11992TIP3   OH257390   0.019   5.522  15.351 -0.1135 -0.0126 -0.5460
11992TIP3    H157391  -0.042   5.456  15.318  1.1742 -1.0544 -0.8940
11992TIP3    H257392   0.006   5.521  15.446 -1.3405  0.5110 -0.6843
11993TIP3   OH257393   0.036   5.369  15.905 -0.0076 -0.0923  0.1670
11993TIP3    H157394   0.061   5.460  15.918 -1.2913  0.6672 -2.1688
11993TIP3    H257395  -0.000   5.341  15.990 -0.8597  1.9903  0.5388
11994TIP3   OH257396   5.858   0.968  15.378 -0.0157  0.5646 -0.7524
11994TIP3    H157397   5.773   0.950  15.417  0.3402 -0.6802 -0.4864
11994TIP3    H257398   5.882   1.055  15.408 -1.7752  1.4968 -1.9027
11995TIP3   OH257399   2.708   2.070  12.786  0.7165 -0.0695 -0.0267
11995TIP3    H157400   2.612   2.078  12.785  0.2380 -3.8844  1.1655
11995TIP3    H257401   2.732   2.066  12.694 -0.4878 -0.6822 -0.3424
11996TIP3   OH257402   4.217   0.306  14.512  0.2222 -0.1644 -0.7860
11996TIP3    H157403   4.305   0.285  14.480  0.5275  2.5439 -1.9825
11996TIP3    H257404   4.160   0.291  14.437 -0.3927 -1.6938 -0.0777
11997TIP3   OH257405   0.564   1.462  11.985  0.5006  0.4900 -0.3607
11997TIP3    H157406   0.583   1.544  11.939  0.7223  0.6804  0.0719
11997TIP3    H257407   0.636   1.404  11.960  0.7336  0.6615 -0.0810
11998TIP3   OH257408   4.246   2.405   1.714 -0.0125 -0.3590  0.9682
11998TIP3    H157409   4.320   2.457   1.683 -0.3388 -0.6161 -0.3042
11998TIP3    H257410   4.278   2.314   1.709 -0.6248 -0.5293 -0.2893
11999TIP3   OH257411   5.458   0.970  13.504 -0.2621 -0.2366  0.0482
11999TIP3    H157412   5.465   1.006  13.416  0.4075  0.7292  0.4899
11999TIP3    H257413   5.468   0.875  13.492 -0.6558 -0.1647 -0.9567
12000TIP3   OH257414   1.044   5.900  16.972  0.0059  0.2393  0.6295
12000TIP3    H157415   0.978   5.893  17.040  0.1806  0.3533  0.8149
12000TIP3    H257416   1.007   5.961  16.908  0.5162  1.4347  1.4329
12001TIP3   OH257417   2.407   5.813   2.565  0.1056  0.2556  0.2451
12001TIP3    H157418   2.369   5.814   2.477 -2.3426  1.4551  1.2372
12001TIP3    H257419   2.430   5.904   2.583 -0.1720  0.1595  1.1443
12002TIP3   OH257420   0.617   5.818   1.607 -0.3996 -0.5365  0.0151
12002TIP3    H157421   0.603   5.746   1.668  0.6638 -0.3808  0.4722
12002TIP3    H257422   0.699   5.796   1.563  2.0766  2.0740  2.7981
12003TIP3   OH257423   5.017   2.706   5.508 -0.7080  0.1267  0.2669
12003TIP3    H157424   5.017   2.800   5.527  3.0353 -0.2214  3.3735
12003TIP3    H257425   4.971   2.666   5.582 -0.2456 -0.5336  0.2109
12004TIP3   OH257426   5.567   3.162  12.241 -0.0214 -0.4947  0.6475
12004TIP3    H157427   5.573   3.202  12.155 -1.9729 -0.5123  0.4558
12004TIP3    H257428   5.637   3.203  12.292  2.5534 -1.9565 -1.4491
12005TIP3   OH257429   2.540   0.030   3.109  0.1267  0.3302 -0.2071
12005TIP3    H157430   2.496   0.090   3.048  0.4193 -0.0909 -0.8405
12005TIP3    H257431   2.514  -0.057   3.080 -0.7707  0.1514  1.0803
12006TIP3   OH257432   1.031   3.480   6.027 -0.4062 -0.1812  0.1749
12006TIP3    H157433   1.066   3.461   6.114 -0.0431 -1.0189 -0.1395
12006TIP3    H257434   0.991   3.566   6.035 -0.9244 -0.5135  1.3354
12007TIP3   OH257435   0.636   6.734   4.431  0.2853 -0.5126  0.5864
12007TIP3    H157436   0.716   6.719   4.380  0.0433  0.3514 -0.0705
12007TIP3    H257437   0.634   6.829   4.445 -1.2689 -0.3451 -0.5073
12008TIP3   OH257438   0.275   5.705   6.179  0.1391 -0.3941 -0.2110
12008TIP3    H157439   0.325   5.785   6.192 -0.6798  0.0718  0.1060
12008TIP3    H257440   0.209   5.727   6.114  0.1634 -0.9347 -0.4295
12009TIP3   OH257441   4.614   6.302  11.959  0.3113  0.2174 -0.1726
12009TIP3    H157442   4.705   6.324  11.941  0.7650 -0.7848  0.7623
12009TIP3    H257443   4.568   6.386  11.957  1.2720  0.7476 -0.5210
12010TIP3   OH257444   3.826   1.601  13.216 -0.2683 -0.0253  0.4915
12010TIP3    H157445   3.741   1.569  13.246 -0.6422 -1.7808 -2.1304
12010TIP3    H257446   3.889   1.536  13.247 -0.1937  0.0192  0.4337
12011TIP3   OH257447   2.181   0.291  11.909 -0.0782 -0.0907  0.5509
12011TIP3    H157448   2.105   0.244  11.943 -0.6280  1.4507  1.5377
12011TIP3    H257449   2.153   0.323  11.823  0.7388 -2.5374 -0.7477
12012TIP3   OH257450   4.258   4.317  13.076 -0.4084  0.0021  0.2803
12012TIP3    H157451   4.284   4.229  13.046  1.6076  0.6395 -0.0013
12012TIP3    H257452   4.216   4.302  13.161 -0.1099 -1.2489  0.2292
12013TIP3   OH257453   2.234   1.880  10.739 -0.1746  0.0930 -0.4311
12013TIP3    H157454   2.170   1.948  10.722  1.2507  1.3364 -1.0089
12013TIP3    H257455   2.188   1.798  10.719 -2.0952  0.7993  0.8090
12014TIP3   OH257456   0.924   4.674   0.452  0.0786  0.3490  0.0791
12014TIP3    H157457   0.899   4.716   0.535  0.1226 -1.3511  0.9909
12014TIP3    H257458   0.843   4.635   0.420  0.2066  0.4211 -0.3363
12015TIP3   OH257459   1.299   0.867  11.465  0.8911 -0.2164 -0.0170
12015TIP3    H157460   1.275   0.880  11.556  0.5127  0.2268 -0.1784
12015TIP3    H257461   1.219   0.884  11.416  1.5773  1.6186 -0.5969
12016TIP3   OH257462   1.853   6.410  10.749  0.2911 -0.0921 -0.1816
12016TIP3    H157463   1.914   6.470  10.706  0.3784  1.1413  1.5311
12016TIP3    H257464   1.839   6.340  10.686  1.4115  0.9476 -1.6537
12017TIP3   OH257465   4.699   4.374   5.355 -0.3641  0.0741 -0.2999
12017TIP3    H157466   4.777   4.416   5.317 -0.0578 -0.3348 -0.1205
12017TIP3    H257467   4.640   4.362   5.280  0.1116 -0.4420 -0.5971
12018TIP3   OH257468   4.561   4.255   5.776 -0.1376 -0.0797 -0.5887
12018TIP3    H157469   4.654   4.243   5.793 -0.5403 -1.3082  0.9614
12018TIP3    H257470   4.538   4.181   5.719 -0.0903  0.4717 -1.3361
12019TIP3   OH257471   1.755   1.733  15.606 -0.3269  0.3235  0.6171
12019TIP3    H157472   1.676   1.770  15.645 -0.7562 -1.1429  1.2044
12019TIP3    H257473   1.826   1.765  15.661 -0.6657  0.4006  1.0208
12020TIP3   OH257474   5.833   3.084  16.196  0.3282 -0.1160 -0.6197
12020TIP3    H157475   5.851   3.046  16.110  0.5660 -0.9487 -0.2068
12020TIP3    H257476   5.919   3.110  16.229  0.3401 -0.6112 -0.2575
12021TIP3   OH257477   1.937   6.194  12.155  0.1815  0.4979 -0.2091
12021TIP3    H157478   1.849   6.166  12.134  0.1192 -0.1392  0.8411
12021TIP3    H257479   1.933   6.220  12.247  0.9726  0.9477 -0.2890
12022TIP3   OH257480   3.758   1.503  14.736  0.2638 -0.4556  0.5315
12022TIP3    H157481   3.779   1.487  14.644  0.6216 -0.3438  0.5893
12022TIP3    H257482   3.827   1.563  14.765  0.3782 -0.8060  0.9781
12023TIP3   OH257483   2.439   6.437   6.827  0.4412  0.4940  0.3695
12023TIP3    H157484   2.494   6.401   6.897  2.5487  2.1962 -0.3074
12023TIP3    H257485   2.406   6.519   6.862 -1.0960 -0.1228  0.4577
12024TIP3   OH257486   5.226   2.882  10.602 -0.4374  0.1624  0.2074
12024TIP3    H157487   5.170   2.905  10.677  0.2920 -1.8691  1.4600
12024TIP3    H257488   5.247   2.790  10.616 -0.9349 -0.5343 -2.9838
12025TIP3   OH257489   0.766   3.973   5.320 -0.2305 -0.1766 -0.7917
12025TIP3    H157490   0.717   3.971   5.237  0.3462 -0.1938 -1.1383
12025TIP3    H257491   0.812   3.889   5.322  0.5827  0.2523 -0.9670
12026TIP3   OH257492   4.974   1.396   2.227 -0.1166  0.1214 -0.0218
12026TIP3    H157493   4.949   1.324   2.284  1.3093 -0.4485 -0.0976
12026TIP3    H257494   5.069   1.388   2.217 -0.1940  0.8575 -1.5906
12027TIP3   OH257495   0.865   6.220   5.584 -0.0129 -0.0514  0.2111
12027TIP3    H157496   0.894   6.311   5.594 -0.2883  0.2740 -1.6485
12027TIP3    H257497   0.946   6.170   5.574  0.0765  0.2674 -0.7066
12028TIP3   OH257498   3.070   1.022  11.922 -0.1185  0.5986  0.0294
12028TIP3    H157499   3.080   1.095  11.861 -0.8508  1.1577  0.5496
12028TIP3    H257500   3.159   1.005  11.954  0.1707  0.7373 -0.6867
12029TIP3   OH257501   3.430   4.697  17.127 -0.1179 -0.0175 -0.6322
12029TIP3    H157502   3.507   4.737  17.087  0.9420 -2.2594 -0.9781
12029TIP3    H257503   3.460   4.611  17.157 -2.2491 -0.5652  0.1005
12030TIP3   OH257504   2.113   4.843   0.664 -0.3501  0.4103  0.1302
12030TIP3    H157505   2.160   4.835   0.747 -0.4694 -0.1682  0.1440
12030TIP3    H257506   2.027   4.805   0.682  0.3112 -1.6735 -0.8164
12031TIP3   OH257507   4.007   2.763  12.853 -0.0640  0.2104  0.1973
12031TIP3    H157508   4.093   2.724  12.836  0.5384  2.6928 -3.9059
12031TIP3    H257509   4.025   2.836  12.912  0.3093 -0.3207  0.7512
12032TIP3   OH257510   0.781   2.850  12.350  0.7392 -0.0506  0.2463
12032TIP3    H157511   0.825   2.806  12.422  3.0817  1.0571 -0.3879
12032TIP3    H257512   0.807   2.801  12.272 -0.6425 -0.4172 -0.0056
12033TIP3   OH257513   5.252   0.932  12.634 -0.7544  0.1836  0.2291
12033TIP3    H157514   5.167   0.905  12.599 -1.5770 -0.6394  2.6770
12033TIP3    H257515   5.303   0.851  12.638 -0.7999  0.1940  1.2101
12034TIP3   OH257516   2.494   4.957   2.430  0.1871 -0.0167  0.1728
12034TIP3    H157517   2.577   4.916   2.407  0.2620  0.7465 -1.0009
12034TIP3    H257518   2.445   4.959   2.348 -0.6750  0.2763  0.6770
12035TIP3   OH257519   1.359   5.086  12.459  0.4491  0.0093 -0.0200
12035TIP3    H157520   1.407   5.096  12.541  0.8748 -0.5000 -0.2014
12035TIP3    H257521   1.425   5.100  12.390  0.7039 -2.0982 -0.2811
12036TIP3   OH257522   0.534   1.483   2.803  0.6146 -0.0048  0.2266
12036TIP3    H157523   0.627   1.489   2.784  0.4588 -0.4584 -0.7435
12036TIP3    H257524   0.502   1.414   2.745 -0.4846  0.7127 -0.0497
12037TIP3   OH257525   1.562   4.410  17.202 -0.1983  0.6976  0.0718
12037TIP3    H157526   1.520   4.486  17.244  3.2123  1.3099  2.8730
12037TIP3    H257527   1.532   4.335  17.254  0.0419  0.7796  0.3344
12038TIP3   OH257528   4.004   5.567   5.159 -0.4482 -0.0565  0.5034
12038TIP3    H157529   3.996   5.586   5.066  1.5248  1.3112  0.5464
12038TIP3    H257530   4.099   5.570   5.176 -0.7761  0.1069  2.6183
12039TIP3   OH257531   0.630   4.404  10.647  0.5734  0.4807  0.6124
12039TIP3    H157532   0.672   4.327  10.686 -0.2737  0.0482  0.7071
12039TIP3    H257533   0.550   4.416  10.700 -0.4267  0.0862 -0.7505
12040TIP3   OH257534   0.178   2.225   4.006 -0.3238 -0.6618  0.6569
12040TIP3    H157535   0.237   2.194   3.938 -0.9998 -1.1892  0.2964
12040TIP3    H257536   0.090   2.214   3.969 -0.7024 -0.9590  1.6076
12041TIP3   OH257537   4.327   6.193  15.114 -0.6168  0.0212  0.2562
12041TIP3    H157538   4.261   6.261  15.100  1.4144  2.0547 -0.0778
12041TIP3    H257539   4.362   6.175  15.027 -0.8112 -1.1587  0.4070
12042TIP3   OH257540   0.384   0.406   5.423  0.2388 -0.5334 -0.3313
12042TIP3    H157541   0.410   0.496   5.445 -1.2532 -0.2908  0.5904
12042TIP3    H257542   0.302   0.393   5.471  0.5008 -2.4432 -0.3467
12043TIP3   OH257543   5.801   3.286   4.502 -0.0778 -0.4715 -0.7601
12043TIP3    H157544   5.795   3.201   4.545 -1.6125 -0.0756 -0.1270
12043TIP3    H257545   5.722   3.290   4.448 -0.3367  0.7900 -0.3092
12044TIP3   OH257546   1.974   1.274  12.120 -0.5021 -0.3132  0.3099
12044TIP3    H157547   1.881   1.293  12.108 -0.3099  0.2056 -0.4075
12044TIP3    H257548   2.019   1.356  12.100  0.1713 -0.8113 -0.2893
12045TIP3   OH257549   0.343   3.448   1.763 -0.4242  0.7702  0.0669
12045TIP3    H157550   0.425   3.402   1.778  0.0009  0.8632 -1.7604
12045TIP3    H257551   0.288   3.385   1.716 -1.6834  0.4731  1.8507
12046TIP3   OH257552   3.291   2.154  13.063 -0.3381 -0.2937  0.5129
12046TIP3    H157553   3.260   2.148  13.154  0.6226 -2.5078  0.7686
12046TIP3    H257554   3.329   2.068  13.045 -0.1772  0.2048 -1.8975
12047TIP3   OH257555   1.359   2.236  11.188  0.4398  0.0970 -0.0740
12047TIP3    H157556   1.422   2.171  11.219 -0.4138  0.1083  1.8202
12047TIP3    H257557   1.283   2.185  11.159  0.2704  0.1814  0.2125
12048TIP3   OH257558   4.823   4.589   0.316 -0.6305  0.5787  0.1679
12048TIP3    H157559   4.873   4.539   0.380 -0.6323 -0.6712 -0.7625
12048TIP3    H257560   4.889   4.626   0.258 -0.7032 -0.6268 -0.7397
12049TIP3   OH257561   5.238   5.085   0.995  0.8903 -0.5147  0.5326
12049TIP3    H157562   5.257   5.171   1.033  0.9226  0.1205 -0.8519
12049TIP3    H257563   5.314   5.066   0.940 -0.5243  0.1522 -1.8130
12050TIP3   OH257564   3.355   1.360   1.473  0.2777  0.0423  1.1775
12050TIP3    H157565   3.377   1.305   1.398  0.2607 -2.2810  2.7850
12050TIP3    H257566   3.287   1.311   1.520 -2.6868  3.2594  0.6967
12051TIP3   OH257567   2.498   6.120   4.832 -0.2842 -0.1990 -0.0066
12051TIP3    H157568   2.442   6.191   4.862  1.0512  2.3782 -2.9834
12051TIP3    H257569   2.586   6.159   4.828  0.9618 -2.7240  0.2304
12052TIP3   OH257570   2.754   4.300  11.371 -0.0300  0.0930  0.2248
12052TIP3    H157571   2.746   4.394  11.388  0.7746  0.5077 -1.4224
12052TIP3    H257572   2.674   4.262  11.407 -1.4337  1.7071 -1.0191
12053TIP3   OH257573   2.461   2.229  11.277  0.0732  0.7640 -0.2389
12053TIP3    H157574   2.535   2.252  11.220  0.9823  0.8448  0.9542
12053TIP3    H257575   2.458   2.133  11.275  1.4200  0.6686  1.1906
12054TIP3   OH257576   5.372   0.044  12.630  0.6635  0.0040 -0.0821
12054TIP3    H157577   5.289   0.040  12.677  0.6553 -2.2216 -0.1972
12054TIP3    H257578   5.350   0.084  12.546 -0.3799 -0.8641 -0.2415
12055TIP3   OH257579   2.226   6.248  14.933  0.4639  0.7737 -0.2041
12055TIP3    H157580   2.235   6.162  14.974 -2.1120 -0.0248 -1.1241
12055TIP3    H257581   2.286   6.246  14.859  0.9653  0.0699  0.2094
12056TIP3   OH257582   5.898   1.162   6.802  0.3874  0.2797  0.1846
12056TIP3    H157583   5.864   1.170   6.891 -0.0878  0.9747 -0.0447
12056TIP3    H257584   5.889   1.069   6.781 -0.2648  0.2448  0.5746
12057TIP3   OH257585   0.854   1.935   1.583  0.0057  0.1788 -0.0354
12057TIP3    H157586   0.797   1.869   1.623  0.9872 -0.6925 -0.0392
12057TIP3    H257587   0.908   1.885   1.521  1.0236  0.9273  0.2416
12058TIP3   OH257588   3.475   4.400  16.367  0.5690  0.2035 -0.0247
12058TIP3    H157589   3.562   4.431  16.392 -0.5790  2.0960  2.0522
12058TIP3    H257590   3.476   4.398  16.271  2.6231  0.9544 -0.0566
12059TIP3   OH257591   4.635   6.211   3.823 -0.7521 -0.5362 -0.5927
12059TIP3    H157592   4.695   6.269   3.777 -1.0889  0.4014  0.1156
12059TIP3    H257593   4.691   6.152   3.874 -0.3987 -1.1055 -1.6248
12060TIP3   OH257594   2.234   3.459  15.267 -0.6874  0.3179 -0.0367
12060TIP3    H157595   2.230   3.551  15.296  1.9583  0.5358 -0.1051
12060TIP3    H257596   2.209   3.463  15.175 -0.8360  0.9476  0.0211
12061TIP3   OH257597   4.908   3.238   3.494  0.0680  0.4613  0.2136
12061TIP3    H157598   4.922   3.298   3.567 -0.5610  0.5526  0.2597
12061TIP3    H257599   4.992   3.192   3.485 -0.0359  0.0153  1.3849
12062TIP3   OH257600   5.645   1.035   5.496 -0.4236  0.1572  0.3295
12062TIP3    H157601   5.554   1.030   5.527 -0.8092  1.0197 -0.5896
12062TIP3    H257602   5.648   1.117   5.446  1.0749  0.5370  0.9907
12063TIP3   OH257603   4.688   3.598  16.597  0.4930 -0.4649  1.3219
12063TIP3    H157604   4.774   3.565  16.572  0.1029 -1.8268  1.6606
12063TIP3    H257605   4.695   3.693  16.589  1.4841 -0.6323 -0.3763
12064TIP3   OH257606   3.438   3.236   5.483  0.1636  0.7625 -0.2428
12064TIP3    H157607   3.477   3.245   5.570 -0.7343  0.6977  0.1738
12064TIP3    H257608   3.416   3.143   5.476  2.1725  0.3250 -1.4014
12065TIP3   OH257609   5.515   3.895  16.991  0.5261  1.0992  0.1554
12065TIP3    H157610   5.421   3.877  16.989  1.0479 -2.2094  0.3124
12065TIP3    H257611   5.542   3.893  16.900  1.0183 -2.3130  0.2530
12066TIP3   OH257612   5.158   2.683  14.643 -0.0996 -0.9500  0.0962
12066TIP3    H157613   5.087   2.710  14.585 -0.1452 -0.8971  0.1757
12066TIP3    H257614   5.180   2.762  14.692  0.4741 -0.7928 -0.4053
12067TIP3   OH257615   6.247   2.892  17.142  0.4283 -0.0748  0.3171
12067TIP3    H157616   6.185   2.964  17.126  0.0426 -0.8287 -2.0184
12067TIP3    H257617   6.332   2.928  17.119  0.4247  0.0297  0.4658
12068TIP3   OH257618   1.750   6.211   5.595 -0.0714  0.1001  0.1411
12068TIP3    H157619   1.775   6.217   5.687 -2.4475  0.7584  0.8053
12068TIP3    H257620   1.709   6.295   5.575 -2.3618 -1.1059 -0.5767
12069TIP3   OH257621   4.345   2.405  13.221 -0.5394 -0.0433 -0.1410
12069TIP3    H157622   4.401   2.462  13.169 -2.2067  0.4771 -1.4787
12069TIP3    H257623   4.325   2.331  13.164  1.8032 -2.2241  1.6663
12070TIP3   OH257624   3.672   1.244  16.550  0.1164 -0.2146 -0.4078
12070TIP3    H157625   3.625   1.325  16.566 -1.3042  0.1697 -5.1475
12070TIP3    H257626   3.759   1.271  16.519 -0.1512 -0.4661 -1.4240
12071TIP3   OH257627   1.946   0.121  14.918  0.0073 -0.0552  0.6366
12071TIP3    H157628   2.013   0.081  14.863 -2.2319  0.1140 -2.4921
12071TIP3    H257629   1.897   0.048  14.954  0.0258 -0.1696  0.4311
12072TIP3   OH257630   4.469   2.192  11.975  0.0521 -0.1580 -0.1509
12072TIP3    H157631   4.449   2.172  12.066 -0.3647 -0.2295 -0.2535
12072TIP3    H257632   4.556   2.232  11.977 -0.9563  2.1994  0.5871
12073TIP3   OH257633   2.714   0.263  16.189 -0.0236  0.5016  0.1085
12073TIP3    H157634   2.637   0.228  16.234  0.5216 -0.2958  0.4442
12073TIP3    H257635   2.680   0.296  16.106 -0.6947 -0.0602  0.1519
12074TIP3   OH257636   5.103   0.926  17.061 -0.2790 -0.1189 -0.4885
12074TIP3    H157637   5.096   1.011  17.104  1.3424 -0.7563  1.1449
12074TIP3    H257638   5.173   0.938  16.996  1.5429 -0.7438  1.2783
12075TIP3   OH257639   6.349   5.922  11.288  0.0291  0.4662 -0.0041
12075TIP3    H157640   6.440   5.938  11.262  0.1680  0.1594  0.2863
12075TIP3    H257641   6.303   6.002  11.263  0.1298  0.1316 -1.2962
12076TIP3   OH257642   4.168   6.387   1.288  0.1086 -0.1996  0.8019
12076TIP3    H157643   4.200   6.448   1.354 -0.4709  0.0775  0.8389
12076TIP3    H257644   4.174   6.301   1.330  0.3900 -0.1018  0.9623
12077TIP3   OH257645   2.540   0.521  16.986 -0.2560 -0.1789 -0.5983
12077TIP3    H157646   2.560   0.519  17.079  1.1740 -1.2234 -0.8881
12077TIP3    H257647   2.599   0.588  16.950 -1.9249  1.3865 -0.5579
12078TIP3   OH257648   2.338   3.070   1.314  0.3489 -0.0582 -0.3006
12078TIP3    H157649   2.262   3.076   1.372  1.4942 -0.4935  1.3081
12078TIP3    H257650   2.323   2.989   1.264  0.4814 -1.0234  1.1538
12079TIP3   OH257651   1.350   0.022   4.601 -0.2767 -0.1099  0.1489
12079TIP3    H157652   1.261   0.001   4.574 -0.7613 -0.9362  2.1767
12079TIP3    H257653   1.396  -0.061   4.598  0.4233  0.2903 -0.7606
12080TIP3   OH257654   5.750   0.175  13.652  0.0814 -0.1413  0.5074
12080TIP3    H157655   5.697   0.099  13.630  0.2379 -0.2241  0.4140
12080TIP3    H257656   5.840   0.142  13.655  0.1041 -0.0596  0.9225
12081TIP3   OH257657   2.780   1.871  17.119 -0.0850  0.0324  0.0098
12081TIP3    H157658   2.855   1.814  17.137  0.1908  0.5050  0.3863
12081TIP3    H257659   2.785   1.938  17.187 -0.8041  0.1151 -0.0165
12082TIP3   OH257660   4.756   2.904   0.575  0.1768 -0.1960  0.2152
12082TIP3    H157661   4.774   2.827   0.521  1.4417 -0.1768  0.5801
12082TIP3    H257662   4.790   2.977   0.524 -0.6380  0.0896  0.0609
12083TIP3   OH257663   6.230   5.385   0.903 -0.0360 -0.1766  0.2373
12083TIP3    H157664   6.172   5.451   0.942 -0.5461 -1.5898  1.9703
12083TIP3    H257665   6.317   5.424   0.907 -0.4686  0.8154  0.2424
12084TIP3   OH257666   1.623   3.337  14.200  0.0134  0.5184 -0.6467
12084TIP3    H157667   1.564   3.334  14.124 -1.7010 -0.0428  0.6451
12084TIP3    H257668   1.611   3.426  14.235 -0.0006  0.4377 -0.4450
12085TIP3   OH257669   6.601   6.199   0.687 -0.3550  0.1647 -0.0056
12085TIP3    H157670   6.514   6.169   0.661  0.1009 -1.2097 -0.0405
12085TIP3    H257671   6.592   6.294   0.697 -1.8683  0.0357  0.0792
12086TIP3   OH257672   3.068   3.601   0.022 -0.1505 -0.0486  0.2396
12086TIP3    H157673   3.150   3.648   0.004  0.8286 -0.7822  2.4498
12086TIP3    H257674   3.013   3.666   0.067  0.0040 -0.1271  0.5437
12087TIP3   OH257675   1.925   0.932  17.229  0.0791 -0.0115  0.0395
12087TIP3    H157676   1.843   0.947  17.277 -1.0536 -1.8383 -1.2053
12087TIP3    H257677   1.929   1.005  17.167 -0.0535  0.6560  0.7970
12088TIP3   OH257678   3.410   0.083  12.761 -0.4908  0.6114  0.0505
12088TIP3    H157679   3.321   0.107  12.736 -0.7116 -1.3278 -1.1984
12088TIP3    H257680   3.450   0.166  12.787 -1.8272  1.9667 -1.9255
12089TIP3   OH257681   3.639   4.588   6.119  0.4845  0.4145  0.4673
12089TIP3    H157682   3.667   4.635   6.198 -0.1968 -0.4071  1.2062
12089TIP3    H257683   3.651   4.496   6.140  2.2588  0.2200 -1.1435
12090TIP3   OH257684   1.000   5.830  12.923 -0.7294 -0.4048 -0.3460
12090TIP3    H157685   1.081   5.783  12.907  0.8619  1.5640  1.3564
12090TIP3    H257686   0.941   5.765  12.961  0.6022 -1.5244 -0.1460
12091TIP3   OH257687   6.044   6.431  13.433 -0.0198  0.7002  0.2889
12091TIP3    H157688   5.987   6.454  13.506 -0.4102  0.4268  0.0809
12091TIP3    H257689   6.031   6.501  13.369 -0.5332  0.3723  0.0237
12092TIP3   OH257690   5.894   4.480  16.332  0.7314 -0.3193  0.3520
12092TIP3    H157691   5.891   4.413  16.263  2.3752 -1.3003  1.1812
12092TIP3    H257692   5.865   4.435  16.411  0.1027  0.4635  0.5851
12093TIP3   OH257693   6.485   1.806  15.912 -0.1733 -0.3499  0.5396
12093TIP3    H157694   6.460   1.815  16.004  1.5523 -0.6075  1.0688
12093TIP3    H257695   6.485   1.895  15.878 -1.7571 -0.3417  0.4995
12094TIP3   OH257696   3.829   1.440  17.161 -0.0895 -0.6001  0.3773
12094TIP3    H157697   3.864   1.457  17.248 -0.6842 -1.0171  0.7071
12094TIP3    H257698   3.825   1.344  17.155  1.3196 -0.6181 -0.6693
12095TIP3   OH257699   4.055   0.888  12.895  0.2655 -0.3384  0.0422
12095TIP3    H157700   3.976   0.938  12.914 -0.1024 -0.7619 -0.3549
12095TIP3    H257701   4.033   0.835  12.818  0.1426 -2.1743  1.2662
12096TIP3   OH257702   4.163   4.262  14.765  0.2617  0.2529  0.0709
12096TIP3    H157703   4.090   4.315  14.733 -0.3112 -0.3646  0.3293
12096TIP3    H257704   4.209   4.234  14.686 -0.9641 -1.0124 -0.2429
12097TIP3   OH257705   0.029   3.283  13.148  0.1735 -0.1456 -0.0809
12097TIP3    H157706   0.098   3.332  13.102 -0.1451  1.0023  0.6355
12097TIP3    H257707   0.051   3.293  13.240 -0.3324 -0.7241  0.1034
12098TIP3   OH257708   4.884   5.709   6.680  0.0475  0.3040 -0.2602
12098TIP3    H157709   4.945   5.668   6.742  2.1812  0.6201 -2.0364
12098TIP3    H257710   4.880   5.801   6.708  0.9606  0.4362 -0.5372
12099TIP3   OH257711   4.538   1.092   2.471 -0.3924 -0.6060 -0.8273
12099TIP3    H157712   4.628   1.104   2.502 -0.8747  0.7588  0.1472
12099TIP3    H257713   4.493   1.173   2.496 -2.7810 -2.5795  1.8139
12100TIP3   OH257714   5.633   1.856   3.952  0.5895  0.0135  0.0264
12100TIP3    H157715   5.617   1.879   3.860  0.9631  2.8178  0.5720
12100TIP3    H257716   5.726   1.871   3.965  0.7865 -1.5658  0.5955
12101TIP3   OH257717   5.958   4.695   3.361  0.0450 -0.4421  0.0534
12101TIP3    H157718   5.890   4.654   3.308  0.4337  0.8416 -1.5364
12101TIP3    H257719   6.024   4.724   3.298  0.4239  1.3588  1.1789
12102TIP3   OH257720   3.808   0.363  11.592 -0.1081 -0.0660 -0.4170
12102TIP3    H157721   3.841   0.274  11.606  1.4875  0.3028 -1.5715
12102TIP3    H257722   3.847   0.415  11.662  0.5002  0.0617 -0.8399
12103TIP3   OH257723   0.363   5.026  16.247  0.0181 -0.2426  0.6341
12103TIP3    H157724   0.363   4.977  16.165 -0.7112 -1.5868  1.4137
12103TIP3    H257725   0.299   5.096  16.233  1.7973  1.1908 -0.8457
12104TIP3   OH257726   6.356   3.178  15.277  0.3688  0.1278 -0.0576
12104TIP3    H157727   6.336   3.130  15.196  0.4980  0.2006 -0.1339
12104TIP3    H257728   6.345   3.270  15.253  0.1326  0.1359  0.0854
12105TIP3   OH257729   1.416   5.656  17.375  0.1081  0.1503  0.1570
12105TIP3    H157730   1.489   5.706  17.338  0.1862  0.6816  1.0104
12105TIP3    H257731   1.424   5.668  17.469 -1.8370  1.3020  0.2176
12106TIP3   OH257732   2.274   0.886   3.133 -0.6286 -0.6061  0.3070
12106TIP3    H157733   2.220   0.851   3.204 -0.2999  0.7900  1.2826
12106TIP3    H257734   2.316   0.963   3.170  0.5509 -0.5610 -1.0299
12107TIP3   OH257735   4.648   2.275  12.957 -0.9975  0.2401  0.2606
12107TIP3    H157736   4.635   2.245  12.867  0.2919  3.0037 -0.9558
12107TIP3    H257737   4.655   2.194  13.009 -1.8823 -1.4190 -2.0673
12108TIP3   OH257738   6.748   3.179   0.595 -0.0708 -0.0336  0.8030
12108TIP3    H157739   6.816   3.133   0.546  0.7043  1.1391  0.7290
12108TIP3    H257740   6.671   3.177   0.538  0.1443 -0.6516  0.5314
12109TIP3   OH257741   0.371   6.673   0.986 -0.1712  0.5191 -0.4635
12109TIP3    H157742   0.342   6.705   1.072  1.1056  0.6064 -0.0534
12109TIP3    H257743   0.326   6.730   0.923 -1.9354 -0.2099  0.0780
12110TIP3   OH257744   6.347   5.985   2.143 -0.1342 -0.1340 -0.3048
12110TIP3    H157745   6.352   6.074   2.107 -0.7869 -0.3168 -0.8733
12110TIP3    H257746   6.297   5.994   2.224 -0.3858 -0.0127 -0.4731
12111TIP3   OH257747   2.084   2.817   1.812  0.2381  0.0529 -0.0556
12111TIP3    H157748   2.125   2.812   1.898  0.0574  1.1574  0.1040
12111TIP3    H257749   2.135   2.882   1.763  0.3015 -0.5124 -0.7670
12112TIP3   OH257750   6.187   2.144  16.471 -0.2002 -0.5844  0.0362
12112TIP3    H157751   6.104   2.101  16.489 -0.1641 -0.3343  0.8583
12112TIP3    H257752   6.247   2.110  16.538  0.4289 -0.9450 -0.6908
12113TIP3   OH257753   3.291   4.640  11.561  0.0626 -0.3477 -0.4373
12113TIP3    H157754   3.294   4.645  11.466  2.1351 -0.4541 -0.4137
12113TIP3    H257755   3.353   4.571  11.584 -0.5272 -0.4349  0.9897
12114TIP3   OH257756   1.995   3.262  13.367 -0.5961  0.2080 -0.1852
12114TIP3    H157757   2.019   3.354  13.376 -0.7767  0.2791 -0.4130
12114TIP3    H257758   2.068   3.214  13.406  0.4012  0.3935 -1.7361
12115TIP3   OH257759   4.433   0.330  12.596 -0.5242 -0.0946 -0.5372
12115TIP3    H157760   4.441   0.398  12.664 -1.6431 -3.3682  3.2656
12115TIP3    H257761   4.522   0.319  12.563  0.2624  1.1048  1.0295
12116TIP3   OH257762   4.258   1.730   4.452  0.5294  0.0581 -0.5731
12116TIP3    H157763   4.204   1.738   4.531  0.0396  1.6320 -1.0423
12116TIP3    H257764   4.200   1.691   4.387  1.1485 -1.9473  0.0072
12117TIP3   OH257765   1.314   2.978  14.527  0.3546  0.4226 -0.6757
12117TIP3    H157766   1.219   2.973  14.516  0.6191 -1.0884 -3.2870
12117TIP3    H257767   1.333   3.072  14.530 -1.0505  0.8439 -2.8177
12118TIP3   OH257768   6.426   3.490  13.915  0.0985 -0.5437 -0.1994
12118TIP3    H157769   6.445   3.584  13.919  2.5045 -1.0041  0.2288
12118TIP3    H257770   6.398   3.476  13.824 -1.2049  0.6897 -0.0438
12119TIP3   OH257771   0.265   6.338  15.476  0.1184  0.0701 -0.2140
12119TIP3    H157772   0.294   6.427  15.458 -1.1437  0.0659 -2.7314
12119TIP3    H257773   0.188   6.327  15.420 -1.0743 -1.8922  1.6609
12120TIP3   OH257774   5.588   6.666   4.089 -0.2781  0.0354  0.2129
12120TIP3    H157775   5.583   6.592   4.028  1.5720 -0.3083  0.4116
12120TIP3    H257776   5.548   6.739   4.042 -1.3664 -0.8845 -0.3209
12121TIP3   OH257777   3.223   3.156  14.191 -0.2186 -0.3047  0.0154
12121TIP3    H157778   3.316   3.163  14.213  0.1217 -0.0288 -1.4462
12121TIP3    H257779   3.191   3.247  14.194  0.1557 -0.0743 -1.8891
12122TIP3   OH257780   3.723   2.338   6.507  0.3484  0.1913 -0.0719
12122TIP3    H157781   3.739   2.282   6.583  0.8459  0.4205 -0.0079
12122TIP3    H257782   3.751   2.286   6.432  0.5259  0.2375 -0.0377
12123TIP3   OH257783   1.363   0.103   3.482  0.2945 -0.6621  0.0089
12123TIP3    H157784   1.413   0.056   3.415  1.8683  0.0147  0.6492
12123TIP3    H257785   1.374   0.051   3.561  1.8192  0.5284  0.6579
12124TIP3   OH257786   0.775   0.233  15.619 -0.6481 -0.1963 -0.2694
12124TIP3    H157787   0.802   0.322  15.594  1.0978 -0.5248  0.2907
12124TIP3    H257788   0.820   0.176  15.556 -1.6936 -0.7168 -0.5747
12125TIP3   OH257789   2.848   2.146   5.442  0.1098 -0.5353  0.0660
12125TIP3    H157790   2.862   2.125   5.350  0.2813 -1.0322  0.2017
12125TIP3    H257791   2.757   2.175   5.447 -0.4854 -2.2957  0.0400
12126TIP3   OH257792   3.879   3.840  15.008 -0.1965 -0.3924  0.1823
12126TIP3    H157793   3.863   3.928  14.973  0.7917  0.0059  0.6704
12126TIP3    H257794   3.807   3.787  14.974 -0.5194  0.4862 -0.5619
12127TIP3   OH257795   3.255   0.108   4.896 -0.1610 -0.4611 -0.2998
12127TIP3    H157796   3.204   0.079   4.820  0.2516  1.2895 -1.3154
12127TIP3    H257797   3.233   0.046   4.966 -2.1694 -0.8946 -1.2566
12128TIP3   OH257798   1.095   2.374   4.570  0.4007 -0.6371 -0.4343
12128TIP3    H157799   1.044   2.369   4.650  0.8143  2.3704  0.1052
12128TIP3    H257800   1.180   2.336   4.593  0.5179  0.2011  0.5828
12129TIP3   OH257801   5.295   2.640  13.725 -0.2436  0.0881  0.0528
12129TIP3    H157802   5.374   2.685  13.754  1.0214 -2.0193  0.0175
12129TIP3    H257803   5.246   2.707  13.676  2.6951  0.8571 -2.0999
12130TIP3   OH257804   3.984   0.308   3.218 -0.3286  0.3980  0.3040
12130TIP3    H157805   3.928   0.329   3.143  0.4511 -0.0266 -0.4154
12130TIP3    H257806   4.061   0.364   3.205 -0.5230  0.8969  1.2238
12131TIP3   OH257807   5.849   0.209   3.842  0.1302 -0.0218  0.0609
12131TIP3    H157808   5.770   0.155   3.854  0.0007 -0.5257 -2.4174
12131TIP3    H257809   5.906   0.186   3.915 -1.1730 -1.2411  0.7332
12132TIP3   OH257810   3.985   0.329  17.012  0.1165  0.0234 -0.0237
12132TIP3    H157811   4.059   0.357  17.065  1.1800 -0.1204 -1.3802
12132TIP3    H257812   4.008   0.356  16.923 -1.2873 -0.3797 -0.5326
12133TIP3   OH257813   4.347   1.207  11.413  0.0209  0.1017  0.2557
12133TIP3    H157814   4.310   1.294  11.398  1.9976  0.9381 -0.0444
12133TIP3    H257815   4.366   1.206  11.507  0.9579  0.4147  0.0783
12134TIP3   OH257816   2.237   5.772   4.858 -0.0389  0.8589  0.2121
12134TIP3    H157817   2.172   5.702   4.849  0.4121  0.5134 -0.4435
12134TIP3    H257818   2.320   5.726   4.871  0.3616  1.2412 -0.8633
12135TIP3   OH257819   2.934   5.170   6.458  0.0750 -0.4180  0.0395
12135TIP3    H157820   2.860   5.161   6.518 -0.4871 -2.7683 -0.8664
12135TIP3    H257821   2.906   5.237   6.395 -0.5155  0.0290  0.7660
12136TIP3   OH257822   1.780   0.643  15.133 -0.3824  0.4330 -0.2984
12136TIP3    H157823   1.793   0.553  15.162  2.4550  0.6249 -0.7017
12136TIP3    H257824   1.687   0.660  15.148 -1.3567 -3.0115 -1.5984
12137TIP3   OH257825   5.401   4.625   0.081 -0.2817  0.0437  0.4207
12137TIP3    H157826   5.380   4.705   0.032 -1.0048  0.9877  2.1918
12137TIP3    H257827   5.496   4.626   0.089 -0.3761  1.6833  1.8973
12138TIP3   OH257828   1.880   1.276  14.782  0.1659 -0.0278 -0.1964
12138TIP3    H157829   1.833   1.288  14.864 -0.3079 -0.7644 -0.3490
12138TIP3    H257830   1.856   1.188  14.753  1.2876 -0.2490 -0.5155
12139TIP3   OH257831   1.453   0.664   1.756  0.7653 -0.6635 -0.3019
12139TIP3    H157832   1.361   0.643   1.743  0.8094 -0.0890 -1.6864
12139TIP3    H257833   1.454   0.719   1.835 -0.1936  0.0612 -0.7774
12140TIP3   OH257834   0.468   4.976  15.351  0.3625  0.3439 -0.1473
12140TIP3    H157835   0.412   4.948  15.423 -0.7169 -0.0830 -1.1098
12140TIP3    H257836   0.556   4.948  15.375 -0.3455 -2.0156 -0.1018
12141TIP3   OH257837   3.844   5.459  17.027  0.1259  0.2093 -0.0524
12141TIP3    H157838   3.780   5.392  17.051 -0.8464  1.3097  0.5510
12141TIP3    H257839   3.816   5.490  16.941  0.8016 -0.4088 -0.5057
12142TIP3   OH257840   1.259   5.978  17.097 -0.0419 -0.4608 -0.1770
12142TIP3    H157841   1.329   6.001  17.036  2.2874 -3.3182  1.1955
12142TIP3    H257842   1.206   5.914  17.048 -0.0760 -0.3613 -0.2715
12143TIP3   OH257843   4.931   2.231  16.715  0.2305  0.1080 -0.1649
12143TIP3    H157844   4.899   2.156  16.665 -0.4735  0.8132 -0.8048
12143TIP3    H257845   4.852   2.270  16.753  0.6233  0.3324  0.4314
12144TIP3   OH257846   3.706   1.038  14.520  0.1040  0.0954  0.1557
12144TIP3    H157847   3.664   1.088  14.590 -0.5202  1.5234 -1.1625
12144TIP3    H257848   3.785   1.088  14.498 -0.1389  0.1266 -0.6942
12145TIP3   OH257849   0.358   6.488   1.660  0.3547 -0.2880 -0.8375
12145TIP3    H157850   0.269   6.475   1.691  0.0743  0.6986 -1.1777
12145TIP3    H257851   0.347   6.508   1.567  0.9145  0.0167 -0.8395
12146TIP3   OH257852   0.894   2.953  13.792  0.1542  0.6134 -0.0415
12146TIP3    H157853   0.957   2.991  13.853  0.6196  1.3751 -0.9574
12146TIP3    H257854   0.911   2.998  13.709 -0.7903 -0.0334 -0.6117
12147TIP3   OH257855   3.334   1.222   6.154  0.2685  0.3994 -0.0171
12147TIP3    H157856   3.369   1.227   6.065 -0.8268 -1.0418 -0.5709
12147TIP3    H257857   3.347   1.310   6.190  1.0894  0.9001 -1.4449
12148TIP3   OH257858   0.237   1.549   2.155 -0.3058 -0.4215  0.0636
12148TIP3    H157859   0.259   1.626   2.103 -0.2567 -0.1627  0.4577
12148TIP3    H257860   0.320   1.503   2.166 -0.4500 -0.8907 -0.7316
12149TIP3   OH257861   1.206   1.101   4.456  0.5504 -0.4053  0.4418
12149TIP3    H157862   1.161   1.047   4.521  1.1273 -1.0117  0.3495
12149TIP3    H257863   1.287   1.127   4.498  1.4709 -1.7574 -0.4091
12150TIP3   OH257864   2.206   1.339   3.157 -0.8030 -0.1613  0.2734
12150TIP3    H157865   2.181   1.261   3.107  0.5731  0.1690 -1.0052
12150TIP3    H257866   2.141   1.404   3.132  0.2387  0.2018 -1.7072
12151TIP3   OH257867   4.858   5.275   1.286  0.0374  0.4358  0.2904
12151TIP3    H157868   4.780   5.263   1.231 -0.1925 -0.1021  0.7222
12151TIP3    H257869   4.860   5.369   1.304 -0.6778  0.4215  0.5027
12152TIP3   OH257870   2.041   1.827  16.223  0.4086  0.2092 -0.1452
12152TIP3    H157871   1.991   1.840  16.143 -1.2745  1.5224  1.0527
12152TIP3    H257872   2.024   1.905  16.276  0.2525 -1.2449  2.1074
12153TIP3   OH257873   0.829   3.709  14.047 -0.4106  0.3399  0.2246
12153TIP3    H157874   0.871   3.718  14.132  2.7096  1.0707 -1.2396
12153TIP3    H257875   0.900   3.721  13.984 -2.4510 -0.8224 -2.4993
12154TIP3   OH257876   2.037   1.314   0.769 -0.0322 -0.7439  0.4109
12154TIP3    H157877   1.978   1.320   0.844  1.0267 -0.2538  1.2371
12154TIP3    H257878   2.031   1.399   0.727 -0.0934 -0.7708  0.3661
12155TIP3   OH257879   1.200   5.006   5.031  0.2257 -0.2704  0.0083
12155TIP3    H157880   1.119   4.985   5.079  0.1150 -2.4040 -0.9863
12155TIP3    H257881   1.182   5.091   4.992 -1.0252 -0.0863  0.8860
12156TIP3   OH257882   5.402   0.999  17.350  0.7962  0.2337  0.2021
12156TIP3    H157883   5.429   1.036  17.266  1.4632  0.5360  0.5449
12156TIP3    H257884   5.477   0.946  17.378 -0.0567 -1.2538 -0.1867
12157TIP3   OH257885   1.159   3.915  14.639 -0.2229  0.0921 -0.5838
12157TIP3    H157886   1.228   3.958  14.588 -1.2941  0.5858 -1.6644
12157TIP3    H257887   1.081   3.968  14.623 -0.4710  0.7087  2.1862
12158TIP3   OH257888   3.971   0.646   6.044 -0.0451  0.3654 -0.2142
12158TIP3    H157889   4.019   0.691   6.113  1.0200 -0.0868 -0.6337
12158TIP3    H257890   3.878   0.663   6.064  0.1939 -0.3411  1.7277
12159TIP3   OH257891   4.123   4.002   2.388 -0.0706 -0.2062  0.2820
12159TIP3    H157892   4.049   3.946   2.365 -1.8755  1.9129  0.4913
12159TIP3    H257893   4.088   4.061   2.455  1.3770  1.7900 -0.6057
12160TIP3   OH257894   0.285   6.282   3.847 -0.3612  0.4490  0.1077
12160TIP3    H157895   0.255   6.278   3.938 -1.8121  1.3790 -0.2889
12160TIP3    H257896   0.295   6.191   3.821  1.0008  0.1755  1.4647
12161TIP3   OH257897   1.481   1.448   2.688  0.7150  0.1863 -0.2369
12161TIP3    H157898   1.418   1.384   2.654  2.5007 -0.3817 -2.8344
12161TIP3    H257899   1.489   1.427   2.781 -1.4840 -0.9221 -0.2354
12162TIP3   OH257900   2.754   2.337  13.404  0.0056  0.2028  0.3611
12162TIP3    H157901   2.736   2.302  13.491 -0.1877  1.2038  0.7394
12162TIP3    H257902   2.805   2.269  13.360  1.3624  0.2740  1.7640
12163TIP3   OH257903   4.159   0.780   3.791 -0.2977  0.2304  0.2405
12163TIP3    H157904   4.171   0.841   3.864 -0.3921  1.8815 -1.0705
12163TIP3    H257905   4.235   0.721   3.796 -0.6292 -0.1054  2.0116
12164TIP3   OH257906   1.625   4.754  13.069  0.3339 -0.6581 -0.1514
12164TIP3    H157907   1.620   4.844  13.035 -1.0229 -0.9502 -0.7739
12164TIP3    H257908   1.543   4.741  13.116  0.8096 -1.3696  0.5107
12165TIP3   OH257909   2.301   4.302   0.389 -0.3281 -0.1593 -0.2735
12165TIP3    H157910   2.323   4.211   0.409  1.3059 -0.0135 -1.2285
12165TIP3    H257911   2.342   4.353   0.459 -0.8645 -0.1087  0.0134
12166TIP3   OH257912   0.290   3.212  15.371 -0.1461 -0.0989  0.1563
12166TIP3    H157913   0.301   3.193  15.464 -1.5618 -1.4967  0.0807
12166TIP3    H257914   0.235   3.291  15.368  1.2775  0.9344  0.4788
12167TIP3   OH257915   3.552   5.446   5.240 -0.2149 -0.0315  0.4141
12167TIP3    H157916   3.550   5.420   5.148 -0.7286  0.7644  0.1892
12167TIP3    H257917   3.585   5.369   5.286  0.0858 -0.4241 -0.4376
12168TIP3   OH257918   2.324   5.447   4.398 -0.6683  0.5864 -0.0569
12168TIP3    H157919   2.242   5.431   4.351 -0.9671  3.4833 -0.7198
12168TIP3    H257920   2.321   5.540   4.421  1.5477  0.3099  1.7099
12169TIP3   OH257921   4.254   2.796   4.469  0.4500 -0.2379 -0.6725
12169TIP3    H157922   4.216   2.817   4.555 -1.9556 -0.9606 -1.5036
12169TIP3    H257923   4.273   2.881   4.430  2.5471  0.1152  0.9003
12170TIP3   OH257924   0.091   1.057   5.574  0.5041 -0.1064 -0.0594
12170TIP3    H157925   0.138   1.117   5.633  0.7413 -1.3934  1.1272
12170TIP3    H257926   0.109   0.970   5.610  2.2964 -1.1659 -3.1951
12171TIP3   OH257927   0.487   4.009   3.785 -0.7672 -0.0997  0.2215
12171TIP3    H157928   0.395   3.987   3.768 -0.3958 -1.6457  0.1425
12171TIP3    H257929   0.534   3.979   3.708  0.2409 -2.5249  1.6899
12172TIP3   OH257930   0.975   5.720  15.925  0.4211 -0.0021  0.1965
12172TIP3    H157931   1.048   5.675  15.882 -0.8768 -1.3958 -0.6308
12172TIP3    H257932   1.003   5.730  16.016  1.3212 -1.2284  0.0694
12173TIP3   OH257933   6.025   1.505  13.461 -0.1430  0.3060  0.3155
12173TIP3    H157934   6.109   1.503  13.417  0.5368  0.8632  1.5468
12173TIP3    H257935   5.989   1.417  13.449  1.4138 -0.4909  1.2893
12174TIP3   OH257936   5.378   0.369  11.181 -0.0296  0.2108 -0.0495
12174TIP3    H157937   5.365   0.291  11.236 -1.7814 -0.5249 -1.4159
12174TIP3    H257938   5.303   0.425  11.200 -0.1510  0.3758 -0.9789
12175TIP3   OH257939   0.357   1.454  16.657 -0.3100  0.0304  0.1278
12175TIP3    H157940   0.292   1.509  16.613  0.5539  1.2463  0.3363
12175TIP3    H257941   0.441   1.496  16.640  0.6881 -2.3799 -1.5091
12176TIP3   OH257942   4.400   2.896  15.741  0.4543 -0.0249 -0.1356
12176TIP3    H157943   4.355   2.932  15.664  2.0702 -0.4744 -1.3473
12176TIP3    H257944   4.330   2.878  15.803 -0.9245  0.2494 -1.5374
12177TIP3   OH257945   4.565   2.088  17.281 -0.2514  0.1559  0.1269
12177TIP3    H157946   4.502   2.157  17.260 -1.1495 -0.8474 -0.5419
12177TIP3    H257947   4.617   2.125  17.352 -1.9819  0.7941  1.1315
12178TIP3   OH257948   5.066   4.333  15.691 -0.5855 -0.1965  0.4352
12178TIP3    H157949   5.097   4.248  15.721 -0.2414  0.6669  2.6894
12178TIP3    H257950   5.007   4.312  15.619 -1.2551 -2.4077  1.5272
12179TIP3   OH257951   3.678   0.056  14.793  0.2432 -0.3051 -0.4624
12179TIP3    H157952   3.626   0.004  14.731 -0.3010 -1.4441  0.8832
12179TIP3    H257953   3.615   0.114  14.835  0.3389 -0.5129 -0.0173
12180TIP3   OH257954   1.449   1.309   2.982 -0.2080  0.4431 -0.5684
12180TIP3    H157955   1.419   1.242   2.921  0.9219 -2.1704  1.5150
12180TIP3    H257956   1.394   1.298   3.059  1.4264  0.3552  0.6426
12181TIP3   OH257957   5.244   0.919  15.593  0.1206 -0.7616  0.0169
12181TIP3    H157958   5.293   0.947  15.670  1.1776  0.4773 -1.0550
12181TIP3    H257959   5.271   0.828  15.579  0.2064 -0.8747  0.8714
12182TIP3   OH257960   3.555   6.412  14.810 -0.4439  0.4654 -0.1060
12182TIP3    H157961   3.493   6.355  14.764  0.5522 -1.1814  0.5152
12182TIP3    H257962   3.536   6.397  14.903  1.2071 -0.5120  0.1188
12183TIP3   OH257963   0.782   3.029  14.430 -0.5698  0.0753 -0.0281
12183TIP3    H157964   0.771   2.939  14.462 -1.1095  0.2697  0.3422
12183TIP3    H257965   0.741   3.029  14.344 -0.9535  0.0766  0.1547
12184TIP3   OH257966   3.969   3.089   6.656  0.0908  0.8284  0.4977
12184TIP3    H157967   3.943   3.108   6.566 -0.2527  0.1667  0.4498
12184TIP3    H257968   3.940   2.999   6.670  0.9428  0.6265  0.9769
12185TIP3   OH257969   2.716   3.007  12.405 -0.1464  0.9080  0.0672
12185TIP3    H157970   2.649   2.956  12.360  1.1065  0.5043 -1.4094
12185TIP3    H257971   2.674   3.034  12.488 -1.8150 -0.0246 -0.4310
12186TIP3   OH257972   6.158   0.318   3.300  0.2615 -0.0432  0.4447
12186TIP3    H157973   6.137   0.345   3.210  1.0017 -0.7570  0.0478
12186TIP3    H257974   6.109   0.236   3.312  0.1358  0.0706  0.7040
12187TIP3   OH257975   1.133   6.076   2.598  0.2374  0.0294 -0.1529
12187TIP3    H157976   1.053   6.033   2.629  0.1247  0.5316  0.2868
12187TIP3    H257977   1.156   6.136   2.669  3.2882 -2.9082  1.6373
12188TIP3   OH257978   4.436   2.842   0.391 -0.5499 -0.1200 -0.3859
12188TIP3    H157979   4.363   2.810   0.444  1.5795 -2.0266  1.6433
12188TIP3    H257980   4.478   2.763   0.358  1.7860  0.7492  0.2812
12189TIP3   OH257981   4.082   1.116  13.598  0.3564  0.5251 -0.2709
12189TIP3    H157982   4.042   1.088  13.681 -0.2524 -0.5110 -0.8920
12189TIP3    H257983   4.153   1.054  13.583 -0.8426 -0.6073 -1.5312
12190TIP3   OH257984   0.898   1.770  14.946  0.5255 -0.0501 -0.0687
12190TIP3    H157985   0.951   1.725  14.879  2.0405 -0.3068  1.2397
12190TIP3    H257986   0.939   1.856  14.954 -0.8851  0.7235 -0.8518
12191TIP3   OH257987   1.831   5.847  11.786  0.2331  0.2359  0.1599
12191TIP3    H157988   1.848   5.941  11.797  0.4601  0.2880 -0.5603
12191TIP3    H257989   1.765   5.827  11.853 -1.1038  1.2896 -0.7604
12192TIP3   OH257990   0.099   5.347  12.855 -0.4088  0.2436  0.7522
12192TIP3    H157991   0.008   5.375  12.846 -0.3141  0.6214  0.9862
12192TIP3    H257992   0.127   5.381  12.940  0.1492  0.6831  0.3952
12193TIP3   OH257993   3.962   4.959   0.971 -0.0140 -0.0369 -0.3646
12193TIP3    H157994   4.034   4.956   1.034  0.9312  0.6017 -1.3661
12193TIP3    H257995   3.962   4.872   0.931  1.9909  0.7253 -2.2149
12194TIP3   OH257996   1.691   2.917   1.537 -0.1618 -0.1695  0.2184
12194TIP3    H157997   1.756   2.893   1.604 -0.5979  2.5394  1.7809
12194TIP3    H257998   1.607   2.889   1.573 -0.3865  1.2035  0.8404
12195TIP3   OH257999   5.896   0.705  14.230 -0.7194 -0.9946 -0.0579
12195TIP3    H158000   5.947   0.722  14.309  1.6129 -0.1911 -1.6300
12195TIP3    H258001   5.894   0.609  14.223  3.9692 -1.1925 -1.8187
12196TIP3   OH258002   1.225   5.708   3.367 -0.0875 -0.0148  0.2888
12196TIP3    H158003   1.137   5.684   3.396 -0.0521  1.1710  1.4935
12196TIP3    H258004   1.239   5.658   3.287 -1.5847 -0.7464  0.4579
12197TIP3   OH258005   0.318   5.928  16.474 -0.2028  0.3192 -0.3785
12197TIP3    H158006   0.292   5.836  16.483 -1.2630  0.5917 -0.4496
12197TIP3    H258007   0.398   5.926  16.422  0.6100 -0.6589  0.8570
12198TIP3   OH258008   2.325   2.443   4.645 -0.3862  0.0409  0.2638
12198TIP3    H158009   2.396   2.505   4.661 -1.3588  0.9188  1.3123
12198TIP3    H258010   2.335   2.376   4.713 -0.6655  0.2638  0.5261
12199TIP3   OH258011   0.398   5.162  13.325  0.1339 -0.4659  0.4111
12199TIP3    H158012   0.378   5.195  13.413 -1.0404 -0.3375  0.1109
12199TIP3    H258013   0.466   5.096  13.339  0.1573 -0.2506  1.3820
12200TIP3   OH258014   4.693   1.183  13.646  0.3915  0.6298  0.1884
12200TIP3    H158015   4.615   1.150  13.601  0.4094 -3.0037  2.3757
12200TIP3    H258016   4.766   1.148  13.595  0.4315 -1.2223  1.4294
12201TIP3   OH258017   1.101   6.634  10.608  0.5724  0.0646 -0.4608
12201TIP3    H158018   1.125   6.542  10.618  0.7416  0.2729  1.4628
12201TIP3    H258019   1.005   6.634  10.612  0.5509 -0.0616 -0.9111
12202TIP3   OH258020   6.354   4.776  12.525  0.1824 -0.2606 -0.3753
12202TIP3    H158021   6.375   4.714  12.455  0.2138  0.3133 -0.8856
12202TIP3    H258022   6.400   4.742  12.602  1.2172 -0.2061 -0.9471
12203TIP3   OH258023   2.293   0.854   4.196  0.5292 -0.3331  0.1749
12203TIP3    H158024   2.220   0.879   4.252  0.6734 -1.0020  0.6784
12203TIP3    H258025   2.370   0.861   4.252  0.9846  1.2553 -0.6095
12204TIP3   OH258026   1.185   3.555   3.792 -0.5223 -0.1879  0.5845
12204TIP3    H158027   1.105   3.508   3.818 -0.4348  0.5396  2.3174
12204TIP3    H258028   1.255   3.508   3.838 -0.1604  0.2189  0.4459
12205TIP3   OH258029   3.873   5.777   4.624  0.2082  0.1823 -0.0515
12205TIP3    H158030   3.799   5.804   4.678  1.6381  0.1085  2.0193
12205TIP3    H258031   3.908   5.859   4.589  0.2793  0.3819  0.4836
12206TIP3   OH258032   4.262   5.173  13.641  0.6331 -0.2796  0.0282
12206TIP3    H158033   4.307   5.212  13.716 -0.4291  1.4228 -0.1790
12206TIP3    H258034   4.230   5.247  13.590 -0.1094 -1.4139 -1.2309
12207TIP3   OH258035   3.165   4.786  13.509  0.0427  0.1958 -0.4335
12207TIP3    H158036   3.125   4.844  13.445 -0.4881  1.0115  0.5986
12207TIP3    H258037   3.124   4.701  13.494  1.6928 -0.3093 -2.7632
12208TIP3   OH258038   1.025   1.246   5.564 -0.3149  0.1785  0.0388
12208TIP3    H158039   0.940   1.286   5.582  0.1706  1.2353  0.0630
12208TIP3    H258040   1.005   1.154   5.548 -1.5821  0.5748 -0.8460
12209TIP3   OH258041   3.242   0.541   6.026  0.2885  0.0174 -0.5017
12209TIP3    H158042   3.191   0.571   6.101 -1.9829  0.5119 -2.1345
12209TIP3    H258043   3.290   0.464   6.058 -0.1231  0.5646  1.5738
12210TIP3   OH258044   2.732   3.442   1.603  0.1705  0.0056  0.2254
12210TIP3    H158045   2.686   3.526   1.608  0.1899  0.2124 -2.0655
12210TIP3    H258046   2.824   3.463   1.622 -0.2634 -0.1251  3.0115
12211TIP3   OH258047   4.354   3.208  15.801  0.4169  0.5750 -0.0580
12211TIP3    H158048   4.336   3.124  15.759 -1.4228  1.4539 -1.1576
12211TIP3    H258049   4.434   3.239  15.761 -0.2399  0.4663 -1.5014
12212TIP3   OH258050   0.398   3.068  16.427 -0.5820 -0.1131 -0.0691
12212TIP3    H158051   0.479   3.117  16.425  0.5986 -1.9836 -0.8745
12212TIP3    H258052   0.330   3.132  16.406  0.7467  1.3357 -0.0916
12213TIP3   OH258053   3.388   0.801   6.017 -0.4290 -0.2962  0.1396
12213TIP3    H158054   3.356   0.712   6.001 -2.9080  0.3778  0.8917
12213TIP3    H258055   3.344   0.828   6.097 -0.0875  1.7492 -0.3167
12214TIP3   OH258056   3.949   1.763   2.566  0.2883  0.7571 -0.2651
12214TIP3    H158057   3.995   1.837   2.526  0.6867  0.4808 -0.3321
12214TIP3    H258058   3.974   1.766   2.658  0.0225  0.9139 -0.1982
12215TIP3   OH258059   5.620   0.564   1.162  0.5303  0.6706  0.9658
12215TIP3    H158060   5.683   0.630   1.189  0.9206  0.5136  0.4696
12215TIP3    H258061   5.632   0.557   1.067 -1.2258  1.6652  0.6186
12216TIP3   OH258062   6.014   2.821  12.454 -0.2983 -0.0100 -0.9710
12216TIP3    H158063   6.062   2.895  12.490  0.2912  0.4247 -2.5723
12216TIP3    H258064   6.039   2.747  12.509  1.6891  0.3416 -1.3282
12217TIP3   OH258065   3.067   5.738   0.279 -0.6482 -0.2127 -0.7694
12217TIP3    H158066   3.156   5.729   0.242  0.0998 -1.4401  1.1802
12217TIP3    H258067   3.081   5.765   0.369 -2.2296 -1.2926 -0.1631
12218TIP3   OH258068   1.396   3.432  13.766 -0.0725 -0.1947  0.0587
12218TIP3    H158069   1.396   3.519  13.726 -0.3391 -0.6581 -1.0084
12218TIP3    H258070   1.487   3.416  13.789  0.1862 -0.1253 -0.8834
12219TIP3   OH258071   5.264   2.288   3.639 -0.4824 -0.2912  0.1154
12219TIP3    H158072   5.316   2.368   3.647 -2.0683  0.6358  2.0783
12219TIP3    H258073   5.325   2.217   3.660  0.8932  0.3555 -1.4335
12220TIP3   OH258074   2.719   5.047   1.927 -0.0326 -0.5450 -0.1816
12220TIP3    H158075   2.634   5.070   1.889  0.6824  0.4272 -1.2538
12220TIP3    H258076   2.698   4.981   1.993 -1.4964 -1.2350 -1.2665
12221TIP3   OH258077   4.036   0.149   4.483  0.1052 -0.2277  0.0142
12221TIP3    H158078   4.011   0.235   4.515  1.2721 -0.6569  2.2583
12221TIP3    H258079   4.074   0.165   4.396  0.9653  1.6145  0.6928
12222TIP3   OH258080   4.515   1.826   3.088 -0.0603  0.4889  0.2101
12222TIP3    H158081   4.488   1.738   3.115 -0.2084  0.3883 -0.2535
12222TIP3    H258082   4.554   1.865   3.166  1.3763 -0.5330  0.0342
12223TIP3   OH258083   0.695   6.396   4.348  0.5419 -0.1607  0.6571
12223TIP3    H158084   0.704   6.443   4.266  1.0195 -3.5647 -1.4465
12223TIP3    H258085   0.600   6.386   4.360  0.4842 -0.1345  0.2209
12224TIP3   OH258086   0.468   4.713  12.461 -0.0996  0.9427 -0.9190
12224TIP3    H158087   0.466   4.775  12.534 -0.8962  0.6839 -0.7153
12224TIP3    H258088   0.497   4.630  12.500  1.8911  1.3672 -1.3547
12225TIP3   OH258089   6.685   3.323  11.235  0.7272 -0.7381  0.1794
12225TIP3    H158090   6.724   3.410  11.223  1.7660 -0.9732  1.6365
12225TIP3    H258091   6.647   3.302  11.150 -1.2719  1.9519  0.2739
12226TIP3   OH258092   6.522   3.271  16.955  0.1881  0.2018 -0.1607
12226TIP3    H158093   6.430   3.281  16.928  0.2608  0.2471 -0.3945
12226TIP3    H258094   6.567   3.344  16.911  0.5215 -0.4381 -0.9055
12227TIP3   OH258095   3.420   0.452   4.072 -0.0083 -0.1627  0.3536
12227TIP3    H158096   3.500   0.503   4.082 -0.1928  0.2024  0.0258
12227TIP3    H258097   3.376   0.460   4.156  0.2230 -0.2243  0.4791
12228TIP3   OH258098   4.614   5.936   3.452  0.1777 -0.0569 -0.0491
12228TIP3    H158099   4.580   5.978   3.531 -0.6916  1.6361 -1.2632
12228TIP3    H258100   4.689   5.989   3.427  0.1753 -0.3152 -0.6080
12229TIP3   OH258101   3.339   4.205   5.729 -0.0161 -0.1557  0.1486
12229TIP3    H158102   3.349   4.194   5.634  0.5132  0.7575  0.0953
12229TIP3    H258103   3.329   4.299   5.742  0.2357 -0.2394  1.0275
12230TIP3   OH258104   1.623   6.585   0.601  0.5686  0.2953  0.4807
12230TIP3    H158105   1.603   6.655   0.538 -0.3757 -0.7164 -0.3922
12230TIP3    H258106   1.566   6.602   0.676  1.1991  1.1202  0.7798
12231TIP3   OH258107   4.479   3.722  15.702 -0.6986 -0.2681  0.1732
12231TIP3    H158108   4.561   3.763  15.674 -1.2042 -0.6530 -2.0195
12231TIP3    H258109   4.491   3.629  15.686 -0.9081 -0.5650  1.6219
12232TIP3   OH258110   1.421   5.948  15.348  0.4110  0.1302 -0.6695
12232TIP3    H158111   1.348   5.898  15.385 -0.5790  2.2959  0.4491
12232TIP3    H258112   1.438   6.017  15.411  2.3808  0.6696 -1.7049
12233TIP3   OH258113   2.860   1.444   5.125  0.1135 -0.1402  0.6980
12233TIP3    H158114   2.815   1.441   5.041 -0.6828  0.6008  1.0748
12233TIP3    H258115   2.828   1.525   5.166  1.1730 -0.0270  1.3311
12234TIP3   OH258116   2.246   3.897   0.586  0.1792 -0.2571  0.3661
12234TIP3    H158117   2.164   3.862   0.620 -1.1696  1.0657 -1.3898
12234TIP3    H258118   2.267   3.842   0.511  1.2673 -0.9596  1.1463
12235TIP3   OH258119   2.189   5.648   3.452 -0.6889 -0.2362  0.1715
12235TIP3    H158120   2.151   5.644   3.539 -0.1792 -1.8049  0.3694
12235TIP3    H258121   2.116   5.664   3.393 -1.2866 -0.7598  0.7618
12236TIP3   OH258122   6.305   2.037   3.092 -0.5764  0.0531  0.5956
12236TIP3    H158123   6.317   1.957   3.144  0.2717 -0.4764 -0.3804
12236TIP3    H258124   6.386   2.046   3.042 -0.5680  1.6707  0.8612
12237TIP3   OH258125   6.039   5.759  16.000  0.1989 -0.5236 -0.0298
12237TIP3    H158126   6.097   5.782  15.928 -0.7791 -0.1882 -0.7344
12237TIP3    H258127   5.957   5.804  15.981  0.0767  0.0049  1.5787
12238TIP3   OH258128   1.908   6.722  16.872  0.1415 -0.7314 -0.2746
12238TIP3    H158129   1.892   6.640  16.825 -0.2062 -1.9105  1.7565
12238TIP3    H258130   2.001   6.740  16.858 -0.3598  0.1672 -3.0987
12239TIP3   OH258131   1.945   4.334  16.609 -0.4434  0.4011  0.2426
12239TIP3    H158132   1.903   4.249  16.593 -2.8368  1.3126  1.2003
12239TIP3    H258133   1.967   4.366  16.521 -0.4959 -0.7355 -0.2045
12240TIP3   OH258134   2.669   0.292  13.000 -0.4175 -0.3700 -0.5751
12240TIP3    H158135   2.761   0.268  12.984 -0.6302 -0.4670 -1.6878
12240TIP3    H258136   2.672   0.387  13.014 -0.2160 -0.2821 -1.1782
12241TIP3   OH258137   3.251   3.186   0.194  0.4035 -0.0685  0.1678
12241TIP3    H158138   3.215   3.273   0.211  2.3043  0.9515 -0.6396
12241TIP3    H258139   3.206   3.157   0.115  0.3239  0.5501 -0.0215
12242TIP3   OH258140   2.789   4.137  12.439  0.2177 -0.8363 -0.0074
12242TIP3    H158141   2.785   4.205  12.373 -1.8066  0.0509  0.9220
12242TIP3    H258142   2.732   4.169  12.510 -0.4658 -3.2647  0.6504
12243TIP3   OH258143   5.301   1.690   3.594  0.2933 -0.3494 -0.5614
12243TIP3    H158144   5.288   1.750   3.668  0.2255  0.0735 -0.9169
12243TIP3    H258145   5.287   1.744   3.516  0.7291 -0.7111 -0.8924
12244TIP3   OH258146   2.619   5.846   4.534 -0.0644 -0.1463  0.1780
12244TIP3    H158147   2.668   5.773   4.574  0.8853  0.8279  0.8626
12244TIP3    H258148   2.569   5.883   4.606 -1.6625 -0.9709 -0.4672
12245TIP3   OH258149   0.371   3.043   5.106  0.8666 -0.5193 -0.0937
12245TIP3    H158150   0.420   3.007   5.179 -1.3589 -1.2574  1.1322
12245TIP3    H258151   0.384   3.138   5.112  1.2584 -0.6233  0.8471
12246TIP3   OH258152   1.718   2.116   5.014 -0.5421  0.9142 -0.0983
12246TIP3    H158153   1.761   2.072   4.941  0.5008  1.4752  0.1577
12246TIP3    H258154   1.651   2.053   5.044 -3.2165  1.8417 -3.4564
12247TIP3   OH258155   2.146   5.460  13.599  0.7874  0.2895 -0.0837
12247TIP3    H158156   2.062   5.419  13.578  0.1049  1.6966 -0.2296
12247TIP3    H258157   2.198   5.453  13.519  0.5003  0.1425 -0.2573
12248TIP3   OH258158   4.618   4.085   1.188  0.6330 -0.8256 -0.1157
12248TIP3    H158159   4.653   4.169   1.157 -1.5764 -0.0247 -0.6520
12248TIP3    H258160   4.614   4.030   1.110  0.3613 -0.7872 -0.1294
12249TIP3   OH258161   6.242   4.257  16.706 -0.0465  0.4480  0.0766
12249TIP3    H158162   6.278   4.254  16.795 -0.9151  2.3572  0.5500
12249TIP3    H258163   6.248   4.350  16.681 -0.1451  0.0064 -1.7292
12250TIP3   OH258164   4.339   4.289   6.235  0.0274  0.2454  0.1494
12250TIP3    H158165   4.260   4.341   6.249 -0.0535  0.4015 -0.8186
12250TIP3    H258166   4.313   4.222   6.171  0.6274  0.1879 -0.0412
12251TIP3   OH258167   4.342   4.295   3.579  0.2250 -0.3071  0.0033
12251TIP3    H158168   4.311   4.268   3.493  1.5166  0.8018 -0.8364
12251TIP3    H258169   4.261   4.307   3.630 -0.5583 -0.9712 -1.0429
12252TIP3   OH258170   5.200   4.809  11.508 -0.6810 -0.3759  0.4441
12252TIP3    H158171   5.181   4.804  11.602  1.7849 -1.2112  0.9759
12252TIP3    H258172   5.219   4.719  11.483  0.8675  0.1321 -0.3278
12253TIP3   OH258173   4.791   6.475   3.470 -0.1021 -0.2084  0.1083
12253TIP3    H158174   4.842   6.414   3.523  0.4724 -0.0865 -0.2867
12253TIP3    H258175   4.815   6.561   3.503 -0.1924 -0.1577  0.0427
12254TIP3   OH258176   3.261   4.442   4.238 -0.0096  0.4235 -0.0385
12254TIP3    H158177   3.195   4.439   4.169 -0.4476  1.0407  0.3403
12254TIP3    H258178   3.238   4.369   4.297 -2.3235  2.4690  1.8046
12255TIP3   OH258179   0.999   3.267   5.403 -0.0684  0.2361  0.1800
12255TIP3    H158180   1.001   3.192   5.463 -1.0377  0.1616  0.1281
12255TIP3    H258181   0.989   3.227   5.316 -3.9199  0.4437  0.3665
12256TIP3   OH258182   4.337   6.603  11.893 -0.5992 -0.0728  0.3696
12256TIP3    H158183   4.348   6.670  11.960  0.0872 -0.5170  0.7166
12256TIP3    H258184   4.426   6.588  11.859 -0.8421 -0.3219 -0.1781
12257TIP3   OH258185   1.997   2.200  13.080 -0.0939  0.7985  0.3345
12257TIP3    H158186   1.990   2.292  13.054  1.9044  1.1357  0.8495
12257TIP3    H258187   1.978   2.200  13.174 -0.4680  0.6186  0.2605
12258TIP3   OH258188   5.794   2.105  13.220 -0.3619  0.0120  0.1778
12258TIP3    H158189   5.747   2.174  13.175 -1.4067 -1.5064 -1.1649
12258TIP3    H258190   5.740   2.085  13.297 -0.3617  0.2694  0.2452
12259TIP3   OH258191   1.738   1.689   0.615 -0.0983 -0.5661  0.1449
12259TIP3    H158192   1.723   1.754   0.683  0.3486 -1.0481  0.7114
12259TIP3    H258193   1.688   1.721   0.540  2.6131  2.1753 -0.7034
12260TIP3   OH258194   6.374   1.693  12.012 -0.1071 -0.2921 -0.5999
12260TIP3    H158195   6.402   1.602  12.025  0.8466  0.0185 -0.3733
12260TIP3    H258196   6.366   1.728  12.101 -1.5755 -0.4568 -0.6435
12261TIP3   OH258197   4.422   5.263   0.357 -0.0919 -0.0837  0.4303
12261TIP3    H158198   4.394   5.172   0.353  2.7784 -1.0481 -0.4342
12261TIP3    H258199   4.514   5.261   0.331  0.7279  2.7894  2.5166
12262TIP3   OH258200   1.306   6.068   1.359 -0.0126 -0.4663 -1.0743
12262TIP3    H158201   1.365   5.995   1.377 -1.2753 -1.3822 -0.4816
12262TIP3    H258202   1.342   6.109   1.280  1.8798 -0.4544 -0.2520
12263TIP3   OH258203   0.526   4.656  15.003 -0.1471 -0.0842  0.0472
12263TIP3    H158204   0.558   4.575  14.963  1.7932  1.3256 -1.5040
12263TIP3    H258205   0.438   4.667  14.967  0.6791 -0.0568 -2.1226
12264TIP3   OH258206   5.941   6.480   5.489 -0.3135  0.2885 -0.9375
12264TIP3    H158207   5.983   6.503   5.406  1.2251 -0.6583 -0.4532
12264TIP3    H258208   5.991   6.529   5.555 -1.0304  0.4257 -0.4888
12265TIP3   OH258209   1.989   4.517   3.338 -0.5938  0.1112 -0.2275
12265TIP3    H158210   1.966   4.608   3.355  0.3677  0.0210  1.9098
12265TIP3    H258211   2.028   4.518   3.250 -0.2354  1.8401 -0.0929
12266TIP3   OH258212   0.341   4.913  15.622 -0.4835 -0.1057  0.5284
12266TIP3    H158213   0.252   4.948  15.633 -0.0567  1.0862  0.3471
12266TIP3    H258214   0.397   4.977  15.665  0.4420  0.0599 -0.8506
12267TIP3   OH258215   4.172   0.102   5.792 -0.3132 -0.2243 -0.6016
12267TIP3    H158216   4.077   0.097   5.792 -0.3263 -0.4104 -2.0155
12267TIP3    H258217   4.192   0.190   5.761  0.0183  0.7804  2.1269
12268TIP3   OH258218   5.196   4.796   1.128  0.1451 -0.2177 -0.8020
12268TIP3    H158219   5.283   4.833   1.141 -0.3691  1.1690 -1.1921
12268TIP3    H258220   5.138   4.871   1.119 -1.3025 -1.0778  0.5759
12269TIP3   OH258221   5.352   1.259   4.468  0.4092  0.5124 -0.3695
12269TIP3    H158222   5.265   1.287   4.496  1.2547  1.2067  1.7564
12269TIP3    H258223   5.397   1.235   4.550  1.5734 -1.7622 -1.5806
12270TIP3   OH258224   4.001   4.878   4.700  0.0687  0.1885  0.3677
12270TIP3    H158225   4.014   4.805   4.761 -0.1380 -0.0580  0.1201
12270TIP3    H258226   4.010   4.838   4.613  2.2713  0.8797  0.2264
12271TIP3   OH258227   6.047   3.126   2.668  0.5725 -0.2670 -0.3051
12271TIP3    H158228   6.106   3.112   2.741  1.6988 -0.0528 -1.1387
12271TIP3    H258229   6.013   3.039   2.647 -0.2144 -0.2495  0.8175
12272TIP3   OH258230   4.448   5.714   3.437 -0.1211  0.3660  0.0815
12272TIP3    H158231   4.501   5.794   3.436 -0.2463  0.5060  1.5740
12272TIP3    H258232   4.359   5.745   3.454 -0.3970 -0.0034 -0.6451
12273TIP3   OH258233   1.248   5.086   2.746  0.2382 -0.3111 -0.3494
12273TIP3    H158234   1.192   5.151   2.704  0.0012 -0.8546 -0.8860
12273TIP3    H258235   1.199   5.004   2.741  0.2613 -0.4227  0.8696
12274TIP3   OH258236   6.620   2.690   5.618 -0.5504 -0.0075 -0.8123
12274TIP3    H158237   6.711   2.721   5.615 -0.0949 -1.0835  0.9506
12274TIP3    H258238   6.577   2.748   5.680 -0.3657 -1.1545  0.4257
12275TIP3   OH258239   0.190   0.654  13.185 -0.1000 -0.3427  0.0639
12275TIP3    H158240   0.279   0.657  13.150 -0.1397 -0.0979 -0.0183
12275TIP3    H258241   0.165   0.745  13.195 -0.7292 -0.3901 -0.9057
12276TIP3   OH258242   4.998   4.625  16.448  0.3824  0.1292  0.2141
12276TIP3    H158243   5.070   4.681  16.475  2.5539 -1.9189 -0.9053
12276TIP3    H258244   4.924   4.653  16.501  1.8930  2.5722  1.1804
12277TIP3   OH258245   1.967   1.640  12.192 -0.0417 -0.1363  0.0463
12277TIP3    H158246   1.940   1.576  12.127 -1.0386  0.1447  0.1597
12277TIP3    H258247   1.946   1.725  12.153  2.9832  0.2843 -0.8995
12278TIP3   OH258248   1.205   5.672   2.302  1.1733  0.6424 -0.1420
12278TIP3    H158249   1.215   5.747   2.243  0.5803  1.7586  1.1281
12278TIP3    H258250   1.205   5.710   2.390 -0.5828 -0.6776  0.4879
12279TIP3   OH258251   2.102   5.023   1.975  0.0960  0.7635  0.3827
12279TIP3    H158252   2.084   4.929   1.969  1.1054  0.6089 -0.7181
12279TIP3    H258253   2.036   5.065   1.921  1.2486  0.4344 -1.3568
12280TIP3   OH258254   3.172   1.510  17.279 -0.1406  0.3475 -0.2353
12280TIP3    H158255   3.248   1.564  17.260 -0.0676  0.3643  0.0972
12280TIP3    H258256   3.204   1.420  17.272 -0.1461  0.3528 -0.3243
12281TIP3   OH258257   6.154   4.457   0.615 -0.1931 -0.2622  0.3897
12281TIP3    H158258   6.067   4.477   0.651  0.3489  0.5017  1.2950
12281TIP3    H258259   6.201   4.540   0.618 -0.5669  0.3035 -3.5585
12282TIP3   OH258260   5.435   4.269   0.550  0.0329  0.2401  0.2846
12282TIP3    H158261   5.380   4.345   0.569 -2.4138 -0.9987 -1.3453
12282TIP3    H258262   5.477   4.289   0.467 -0.6034 -0.1653 -0.1399
12283TIP3   OH258263   4.537   4.573  14.877 -0.2012 -0.0818  0.2167
12283TIP3    H158264   4.577   4.558  14.963 -0.7349  0.0488  0.4930
12283TIP3    H258265   4.445   4.552  14.890 -0.2158 -0.4280 -0.4261
12284TIP3   OH258266   2.207   6.413  14.427  0.4012 -0.3687 -1.0872
12284TIP3    H158267   2.123   6.438  14.389  0.6948 -0.1428 -1.5906
12284TIP3    H258268   2.191   6.412  14.522  0.6212  2.8834 -0.8883
12285TIP3   OH258269   5.837   6.623   1.809 -0.0295 -0.0195  0.2018
12285TIP3    H158270   5.767   6.558   1.810  1.2758 -1.5034 -0.5020
12285TIP3    H258271   5.813   6.683   1.738 -0.8210 -0.2032  0.3040
12286TIP3   OH258272   0.978   6.468   0.003  0.2238  0.3946  0.4169
12286TIP3    H158273   1.070   6.471  -0.023  0.2627 -0.6648  0.4062
12286TIP3    H258274   0.967   6.384   0.046 -0.1090  1.6499  2.9338
12287TIP3   OH258275   0.742   2.891   5.820 -0.3277  0.0776 -0.0774
12287TIP3    H158276   0.710   2.889   5.730 -3.1258  3.0102  0.6246
12287TIP3    H258277   0.811   2.958   5.819 -1.1834  0.9925  0.0921
12288TIP3   OH258278   0.165   1.055  17.256 -0.0094 -0.2215  0.2725
12288TIP3    H158279   0.104   0.997  17.211 -2.0504  2.1711 -0.2513
12288TIP3    H258280   0.126   1.070  17.342 -0.0085  1.0279  0.0780
12289TIP3   OH258281   2.637   1.818   3.388  0.3149  0.4028  0.2663
12289TIP3    H158282   2.560   1.819   3.444  1.1387  1.5015  1.4497
12289TIP3    H258283   2.631   1.898   3.336  0.2570  0.0800 -0.2349
12290TIP3   OH258284   1.408   3.783  12.429 -0.2742  0.5073  0.0794
12290TIP3    H158285   1.480   3.843  12.412 -1.1333  1.4227 -0.4492
12290TIP3    H258286   1.437   3.699  12.393  0.3479  0.9718 -0.5206
12291TIP3   OH258287   2.089   3.280  14.695 -0.5465  0.2034 -0.2194
12291TIP3    H158288   2.072   3.224  14.771 -1.5847 -0.1132 -0.6688
12291TIP3    H258289   2.007   3.327  14.682 -0.2804  0.4686 -0.9709
12292TIP3   OH258290   3.141   3.798   2.085  0.1846 -0.2863  0.6145
12292TIP3    H158291   3.235   3.781   2.088  0.5259  1.2966  0.1716
12292TIP3    H258292   3.127   3.837   1.998 -0.4727  1.5716  1.5031
12293TIP3   OH258293   0.378   1.705  16.917  0.9583  0.6539 -0.2977
12293TIP3    H158294   0.358   1.776  16.979 -0.6093 -0.2650  0.3138
12293TIP3    H258295   0.408   1.633  16.973 -0.2475 -0.1107 -0.6116
12294TIP3   OH258296   2.484   0.142   0.544 -0.9528  0.5357  0.0973
12294TIP3    H158297   2.515   0.136   0.635  2.1324 -1.5705 -0.9035
12294TIP3    H258298   2.423   0.069   0.535 -0.1257 -0.1913  0.1676
12295TIP3   OH258299   6.257   5.598   0.157 -0.6679 -0.1705 -0.2710
12295TIP3    H158300   6.287   5.667   0.215 -2.2315 -0.6897  1.2242
12295TIP3    H258301   6.269   5.517   0.207  0.0908 -0.8925 -1.5660
12296TIP3   OH258302   1.732   0.981   4.487 -0.6299 -0.6455  0.2523
12296TIP3    H158303   1.741   0.895   4.530  1.9945  0.0053  1.2126
12296TIP3    H258304   1.729   1.043   4.560 -1.9818  0.1485 -0.4465
12297TIP3   OH258305   1.071   4.023  15.334 -0.6201  0.7678 -0.4561
12297TIP3    H158306   1.020   4.082  15.389 -0.8768  1.9412 -1.8878
12297TIP3    H258307   1.119   4.081  15.275  0.6692 -0.3981 -0.6136
12298TIP3   OH258308   3.534   4.949   6.220  0.1535 -0.6465  0.1010
12298TIP3    H158309   3.484   5.026   6.247 -1.3845 -2.1353  1.7881
12298TIP3    H258310   3.597   4.936   6.290  0.4224 -0.9140 -0.1884
12299TIP3   OH258311   3.714   2.806   0.074  0.3705 -0.1587  0.4389
12299TIP3    H158312   3.776   2.869   0.040  0.6059 -0.2587  0.6771
12299TIP3    H258313   3.741   2.722   0.037  0.1022 -0.1324  0.1800
12300TIP3   OH258314   4.141   2.203  15.096  0.1538  0.1240  0.0198
12300TIP3    H158315   4.097   2.274  15.050 -1.6145 -2.2578 -2.3308
12300TIP3    H258316   4.212   2.177  15.036  1.2390  0.3055  1.1775
12301TIP3   OH258317   1.378   2.971  14.115  0.2558 -0.0374 -0.1270
12301TIP3    H158318   1.332   3.050  14.146  0.9736  0.4177 -0.1963
12301TIP3    H258319   1.463   2.975  14.158  1.1623  0.4382 -1.8861
12302TIP3   OH258320   1.251   5.188  11.164  0.3238 -0.0296 -0.3870
12302TIP3    H158321   1.190   5.222  11.099 -0.7307  0.9815  1.0709
12302TIP3    H258322   1.329   5.164  11.113 -1.2989 -1.5773 -2.3471
12303TIP3   OH258323   2.110   2.125  16.762  0.2071 -0.4281 -0.4103
12303TIP3    H158324   2.184   2.159  16.711  0.5650 -0.8388 -0.1708
12303TIP3    H258325   2.097   2.036  16.730  1.1418 -1.0889  0.9530
12304TIP3   OH258326   0.803   2.451  17.123  0.1101  0.7108  0.2317
12304TIP3    H158327   0.858   2.522  17.089  1.6130 -0.0314  1.0133
12304TIP3    H258328   0.846   2.423  17.204 -1.4031  0.0399  0.8486
12305TIP3   OH258329   4.269   6.711  12.730 -0.6849 -0.4393  0.1502
12305TIP3    H158330   4.211   6.636  12.745 -0.3298 -0.3424  2.3577
12305TIP3    H258331   4.314   6.690  12.649 -3.0633 -0.9680 -1.1414
12306TIP3   OH258332   1.981   2.556   5.477 -0.1997 -0.1114  0.1033
12306TIP3    H158333   2.049   2.521   5.534 -0.2347  0.4673  0.5071
12306TIP3    H258334   2.019   2.552   5.389 -0.1374 -0.9795  0.1686
12307TIP3   OH258335   3.794   6.602  14.442  0.4793 -0.2789  1.0780
12307TIP3    H158336   3.720   6.601  14.503 -0.9364 -0.1655 -0.5655
12307TIP3    H258337   3.817   6.695  14.434 -1.0063 -0.0032 -0.4453
12308TIP3   OH258338   5.015   4.731   3.565  0.3133  0.1345  0.0962
12308TIP3    H158339   4.964   4.741   3.645 -1.1576 -2.7854 -0.3237
12308TIP3    H258340   5.049   4.642   3.569  3.6697  1.2521 -0.7188
12309TIP3   OH258341   1.768   4.275   0.786  0.5973  0.4265  0.4613
12309TIP3    H158342   1.725   4.360   0.792 -0.3212 -0.1244  2.3126
12309TIP3    H258343   1.739   4.227   0.864  1.9478 -1.1933  0.0355
12310TIP3   OH258344   6.703   3.631  17.015  0.5402  0.2792  0.7034
12310TIP3    H158345   6.722   3.703  17.076  3.6118 -1.2652  1.7606
12310TIP3    H258346   6.685   3.556  17.071 -1.0673 -0.2150 -0.3895
12311TIP3   OH258347   4.238   6.241  14.031  0.1945 -0.4489 -0.3813
12311TIP3    H158348   4.182   6.300  14.081 -0.0054 -0.8066 -0.1802
12311TIP3    H258349   4.244   6.162  14.085  0.0233 -0.8163 -0.8964
12312TIP3   OH258350   0.792   2.514  13.972  0.2834  0.1170 -0.0093
12312TIP3    H158351   0.833   2.492  14.056  0.3025 -1.1237 -0.3195
12312TIP3    H258352   0.803   2.435  13.919 -1.4361  0.1908 -0.5306
12313TIP3   OH258353   0.450   6.254  15.179  0.2170 -0.2775 -0.3950
12313TIP3    H158354   0.369   6.222  15.140  0.2799  0.3860 -1.0731
12313TIP3    H258355   0.427   6.271  15.271  0.6124 -3.8922  0.5204
12314TIP3   OH258356   3.963   1.673  15.474  0.0008  0.5531 -0.1536
12314TIP3    H158357   4.016   1.598  15.500 -1.6640  0.2463  2.8746
12314TIP3    H258358   3.892   1.634  15.423 -0.3254  0.1483  0.5802
12315TIP3   OH258359   0.361   5.113   2.899  0.1187  0.7792  0.5450
12315TIP3    H158360   0.419   5.159   2.839  0.1066 -1.6134 -1.5014
12315TIP3    H258361   0.386   5.021   2.889 -0.6648  0.1705  3.4402
12316TIP3   OH258362   4.913   0.237  13.009  0.3537  0.0429 -0.0306
12316TIP3    H158363   4.970   0.241  13.086 -0.6193 -0.1638  0.7135
12316TIP3    H258364   4.909   0.144  12.987 -2.4633 -0.4732  2.0888
12317TIP3   OH258365   3.333   6.240   5.510 -0.4916  0.1471 -0.0119
12317TIP3    H158366   3.374   6.325   5.493 -1.7443  0.6338 -0.6834
12317TIP3    H258367   3.397   6.176   5.477  0.2607  0.8376  0.0800
12318TIP3   OH258368   0.173   0.366  14.735  0.2677  0.1414 -0.0932
12318TIP3    H158369   0.115   0.437  14.708 -0.4730  0.0868  1.2503
12318TIP3    H258370   0.139   0.289  14.691  0.8713  0.5377 -1.2907
12319TIP3   OH258371   5.801   4.330   4.131 -0.3014 -0.5638  0.1042
12319TIP3    H158372   5.850   4.278   4.194 -0.3942 -1.2162 -0.3543
12319TIP3    H258373   5.766   4.403   4.182  0.7698 -0.3299  0.5319
12320TIP3   OH258374   3.654   0.259   6.345 -0.5380 -0.0392  0.2141
12320TIP3    H158375   3.654   0.353   6.327 -3.5916  0.0092 -0.1300
12320TIP3    H258376   3.664   0.253   6.440 -0.3101  0.6168  0.2359
12321TIP3   OH258377   6.585   6.130   2.993  0.2547  0.2400 -0.1034
12321TIP3    H158378   6.572   6.036   3.001 -0.4318  0.2244 -1.2123
12321TIP3    H258379   6.581   6.162   3.083  0.1257 -0.7410  0.2508
12322TIP3   OH258380   5.219   3.895   2.119  0.0245  0.4726  0.1651
12322TIP3    H158381   5.191   3.987   2.117  0.6721  0.7351  1.5369
12322TIP3    H258382   5.279   3.890   2.194  1.1238 -0.7708 -0.7502
12323TIP3   OH258383   0.368   0.133   5.480 -0.8945 -1.2200 -0.1161
12323TIP3    H158384   0.409   0.094   5.403  1.3583  0.1147  0.3139
12323TIP3    H258385   0.385   0.227   5.472 -1.9206 -0.8672  1.2808
12324TIP3   OH258386   4.654   3.812  11.135  0.3180  0.1947 -0.6874
12324TIP3    H158387   4.689   3.835  11.221 -1.5712 -1.3191  0.5648
12324TIP3    H258388   4.594   3.883  11.113 -0.7234 -0.3760  0.2257
12325TIP3   OH258389   4.139   4.635  13.834  0.3164  0.2945  0.6720
12325TIP3    H158390   4.122   4.654  13.742 -1.3146  2.2332  1.3000
12325TIP3    H258391   4.215   4.689  13.855 -0.0933  0.8487  0.7555
12326TIP3   OH258392   5.824   5.046   3.209  0.8328 -0.1008 -0.4014
12326TIP3    H158393   5.892   5.077   3.148  0.1324  0.8106 -0.7515
12326TIP3    H258394   5.781   4.974   3.162  2.4879 -1.7211  0.4277
12327TIP3   OH258395   6.078   1.979   0.363  0.0096  0.3198 -0.2011
12327TIP3    H158396   6.146   1.945   0.421  0.2880 -0.6322 -1.0633
12327TIP3    H258397   5.996   1.949   0.403  0.2217 -0.7710 -0.5571
12328TIP3   OH258398   0.773   4.060   0.826  0.2111 -0.1621 -0.3353
12328TIP3    H158399   0.815   4.121   0.887 -1.2026  1.9303 -1.2952
12328TIP3    H258400   0.704   4.018   0.877  1.6878 -1.6409  0.5442
12329TIP3   OH258401   0.590   4.218  11.344  0.0161  0.3873  0.2974
12329TIP3    H158402   0.649   4.282  11.385  0.7696 -0.7257  0.9882
12329TIP3    H258403   0.511   4.268  11.324  1.3764  2.1074 -1.2313
12330TIP3   OH258404   1.022   1.410   5.053 -0.1173  0.0728 -0.1846
12330TIP3    H158405   1.034   1.423   4.959  0.9054  0.6017  0.0034
12330TIP3    H258406   1.017   1.498   5.089 -1.2749 -0.1272  0.1809
12331TIP3   OH258407   6.320   4.650   0.677 -0.0970 -0.0423 -0.3696
12331TIP3    H158408   6.344   4.717   0.741  1.0493  0.7030 -1.5402
12331TIP3    H258409   6.382   4.662   0.605 -0.9161 -1.3027 -1.3244
12332TIP3   OH258410   4.180   5.137   3.298  0.3858 -0.4842  0.0539
12332TIP3    H158411   4.118   5.066   3.285  0.6617 -0.7351  0.1042
12332TIP3    H258412   4.251   5.118   3.236 -0.2659  0.5886 -1.0782
12333TIP3   OH258413   6.215   1.486   6.776  0.4592  0.0417  0.0568
12333TIP3    H158414   6.228   1.564   6.722  2.3021 -0.6623 -0.5853
12333TIP3    H258415   6.231   1.515   6.866  0.7806  0.4813 -0.1404
12334TIP3   OH258416   5.221   5.667  15.354  0.2106 -0.6046  0.8030
12334TIP3    H158417   5.269   5.689  15.434  0.8744 -1.7912  0.7592
12334TIP3    H258418   5.282   5.689  15.283  0.2218 -0.9813  0.6932
12335TIP3   OH258419   1.636   6.368  13.917 -0.1881 -0.1274 -0.0344
12335TIP3    H158420   1.676   6.305  13.857 -0.7218 -0.5305  0.0231
12335TIP3    H258421   1.644   6.452  13.872  0.7945 -0.1792  0.0163
12336TIP3   OH258422   2.249   1.698  11.502  0.5377  0.5646  0.2351
12336TIP3    H158423   2.177   1.664  11.448  0.2817  0.4423  0.6474
12336TIP3    H258424   2.246   1.792  11.489  0.7389  0.5053 -0.2852
12337TIP3   OH258425   1.719   1.811  17.132  0.2146  0.2776  0.0741
12337TIP3    H158426   1.749   1.849  17.049  0.4357  0.9377  0.4430
12337TIP3    H258427   1.653   1.873  17.164  0.7826  0.5220  0.8275
12338TIP3   OH258428   4.712   1.629   2.956 -0.3509 -0.0504  0.1622
12338TIP3    H158429   4.622   1.652   2.981 -0.2633 -1.1767  1.6681
12338TIP3    H258430   4.759   1.624   3.039  0.5743 -1.6274 -0.4096
12339TIP3   OH258431   4.221   3.446   3.823  0.5620 -0.2474 -0.1230
12339TIP3    H158432   4.289   3.493   3.776  1.4866 -0.7584  0.6789
12339TIP3    H258433   4.261   3.421   3.906 -0.3631 -1.1978  0.0615
12340TIP3   OH258434   6.586   0.023   4.832  0.0082  0.2615 -0.0814
12340TIP3    H158435   6.588   0.118   4.846  2.7846  0.3285 -0.3877
12340TIP3    H258436   6.600   0.013   4.738 -0.5982 -0.4737 -0.1014
12341TIP3   OH258437   0.701   1.157  14.403  0.0619 -0.0086 -0.3056
12341TIP3    H158438   0.625   1.214  14.401  1.4148  1.8575 -1.0454
12341TIP3    H258439   0.672   1.077  14.359 -1.3587  0.7901 -0.8848
12342TIP3   OH258440   1.229   0.048  16.691 -0.2574 -0.6286 -1.5117
12342TIP3    H158441   1.169   0.018  16.759 -1.2853 -1.5709 -2.7710
12342TIP3    H258442   1.227   0.144  16.698 -0.8623 -0.6901 -0.6578
12343TIP3   OH258443   2.038   4.388  12.029  0.7918 -0.2564 -0.2970
12343TIP3    H158444   2.040   4.346  12.115  1.7590 -1.0896 -0.7119
12343TIP3    H258445   2.101   4.339  11.977 -2.5051 -2.3847 -2.6965
12344TIP3   OH258446   2.872   4.098   6.720 -0.2773 -0.2968 -0.5966
12344TIP3    H158447   2.830   4.129   6.801 -0.0200 -0.7669 -0.2761
12344TIP3    H258448   2.893   4.178   6.672  2.1498  0.1755  1.0755
12345TIP3   OH258449   0.733   4.772   4.934  0.3545  0.6036  0.4079
12345TIP3    H158450   0.814   4.806   4.897  0.6049 -0.3913  0.0397
12345TIP3    H258451   0.758   4.737   5.019  0.9848 -2.5954 -0.9778
12346TIP3   OH258452   0.442   6.532  12.325 -0.6693 -0.0029 -0.1591
12346TIP3    H158453   0.432   6.627  12.322 -1.7847  0.0052  1.8440
12346TIP3    H258454   0.525   6.518  12.370  0.4938 -0.0455 -2.1777
12347TIP3   OH258455   0.591   1.950   4.401 -0.7784  0.0724  0.5766
12347TIP3    H158456   0.569   2.039   4.375 -0.0303  0.7050  1.9785
12347TIP3    H258457   0.660   1.961   4.467  0.0241 -1.5879  0.0641
12348TIP3   OH258458   2.158   6.730  16.728 -0.5935  0.3083  0.6605
12348TIP3    H158459   2.199   6.755  16.811 -0.0930  0.4482  0.3765
12348TIP3    H258460   2.127   6.813  16.690  1.2629  0.5787 -0.3866
12349TIP3   OH258461   5.580   4.325  13.951 -0.1935 -0.0500 -0.1047
12349TIP3    H158462   5.520   4.261  13.989 -0.6412 -0.5551 -1.6144
12349TIP3    H258463   5.556   4.330  13.859 -0.2654  2.4056 -0.0374
12350TIP3   OH258464   4.674   0.288   2.692  0.3074 -0.0875  0.0026
12350TIP3    H158465   4.745   0.331   2.645  0.6066  1.0357  1.4172
12350TIP3    H258466   4.714   0.260   2.774 -0.1606 -2.1449 -0.4145
12351TIP3   OH258467   1.690   3.711  14.603 -0.2712  0.1785 -0.2492
12351TIP3    H158468   1.759   3.764  14.561 -1.1272  0.8514 -0.8309
12351TIP3    H258469   1.613   3.724  14.548 -0.9669 -0.2901  0.5982
12352TIP3   OH258470   3.369   1.193  12.361  0.4605 -0.1671 -0.6161
12352TIP3    H158471   3.416   1.275  12.374  2.0448 -1.0621 -0.4069
12352TIP3    H258472   3.433   1.125  12.383 -0.7048 -1.4685 -1.0923
12353TIP3   OH258473   1.837   0.071  12.247 -0.2730  0.1178 -0.3216
12353TIP3    H158474   1.808   0.138  12.185 -0.7910 -0.9647 -1.2761
12353TIP3    H258475   1.848  -0.008  12.194  1.4742 -0.2815  0.5647
12354TIP3   OH258476   2.784   3.726   6.376  0.6736  0.1914 -0.3751
12354TIP3    H158477   2.839   3.653   6.404 -0.5944 -0.5093  0.4354
12354TIP3    H258478   2.804   3.796   6.437 -0.0175 -0.3965  0.5722
12355TIP3   OH258479   4.793   2.921  14.195  0.6090  0.2146 -0.4201
12355TIP3    H158480   4.848   2.850  14.229  0.6030  1.2221  1.9103
12355TIP3    H258481   4.711   2.879  14.172  1.4446 -0.8989 -1.4600
12356TIP3   OH258482   4.804   3.870  14.935 -0.0670  0.2028  0.6583
12356TIP3    H158483   4.791   3.878  14.840  3.4079 -2.9294 -0.3575
12356TIP3    H258484   4.718   3.844  14.969 -1.4627  1.5743 -1.5548
12357TIP3   OH258485   2.321   1.913  13.745  0.3167 -0.1810  0.0107
12357TIP3    H158486   2.237   1.874  13.769 -0.8734  2.1413 -0.0816
12357TIP3    H258487   2.381   1.886  13.814 -1.1337  0.0914  1.4342
12358TIP3   OH258488   3.847   4.742  11.963 -0.1373  0.7660  0.4897
12358TIP3    H158489   3.938   4.770  11.970  0.0872  0.5212 -1.0878
12358TIP3    H258490   3.800   4.819  11.931  0.0022  0.2178 -1.1653
12359TIP3   OH258491   2.312   1.808  16.952  0.2495  0.4353  0.1138
12359TIP3    H158492   2.385   1.764  16.996 -0.2635  0.5357  1.0894
12359TIP3    H258493   2.352   1.851  16.877  1.0641 -0.1631  0.1939
12360TIP3   OH258494   2.655   2.346  14.306 -0.7307 -0.2155  0.1754
12360TIP3    H158495   2.697   2.423  14.344  2.2172 -2.6914  2.5421
12360TIP3    H258496   2.617   2.300  14.380 -2.5877 -1.0130 -1.1911
12361TIP3   OH258497   6.577   1.033  11.629  0.0309  0.2144  0.6801
12361TIP3    H158498   6.625   1.073  11.556 -0.6272  0.4452  0.3640
12361TIP3    H258499   6.500   0.994  11.588  1.2863 -2.5703  0.7778
12362TIP3   OH258500   0.122   1.970   4.180  0.1717  0.4956  0.3987
12362TIP3    H158501   0.131   2.066   4.182 -0.0829  0.5089  1.2579
12362TIP3    H258502   0.090   1.951   4.092  2.3101  1.0002 -0.5565
12363TIP3   OH258503   2.405   3.570   1.057 -0.1152 -0.2323 -0.3649
12363TIP3    H158504   2.470   3.639   1.070  0.6992 -0.9848 -0.3933
12363TIP3    H258505   2.427   3.503   1.123 -1.3613 -0.1385  0.1773
12364TIP3   OH258506   5.837   1.660   0.438  0.4160 -0.2924 -0.3794
12364TIP3    H158507   5.748   1.636   0.464 -0.4669  1.7934 -1.2652
12364TIP3    H258508   5.838   1.756   0.443  2.0358 -0.1677 -2.2082
12365TIP3   OH258509   2.784   1.033  12.618 -0.1692 -0.5850  0.2562
12365TIP3    H158510   2.747   1.086  12.547  1.1613 -0.5495 -0.4313
12365TIP3    H258511   2.833   0.964  12.573 -0.5990 -1.5083  1.1522
12366TIP3   OH258512   2.269   2.618   6.424 -0.6668  0.1448  0.5296
12366TIP3    H158513   2.227   2.703   6.436  1.1672  0.9986  1.4255
12366TIP3    H258514   2.359   2.640   6.399 -0.2062 -1.5318  0.6388
12367TIP3   OH258515   6.554   2.498   4.027 -0.2103 -0.3335  0.6127
12367TIP3    H158516   6.464   2.524   4.008  0.4775 -0.5609 -4.2326
12367TIP3    H258517   6.599   2.581   4.046 -0.6319  0.4356 -1.4839
12368TIP3   OH258518   1.961   3.037   0.793 -0.7050  0.3192  0.1960
12368TIP3    H158519   1.872   3.053   0.824 -1.2342 -0.0245 -1.0732
12368TIP3    H258520   2.002   3.123   0.794 -1.2847  0.6041  0.1048
12369TIP3   OH258521   4.114   2.964  13.029 -0.3576 -0.4451 -0.6103
12369TIP3    H158522   4.149   3.050  13.007 -0.6549  0.1807  1.2038
12369TIP3    H258523   4.191   2.915  13.060 -0.6176  0.1391  1.0686
12370TIP3   OH258524   3.398   0.463  11.184 -0.4076  0.6406  0.6757
12370TIP3    H158525   3.432   0.553  11.187 -0.0851  0.5928 -0.7377
12370TIP3    H258526   3.454   0.414  11.244  1.5001  0.7645 -0.9080
12371TIP3   OH258527   2.377   2.019   1.953 -0.0227 -0.2923  0.5404
12371TIP3    H158528   2.316   1.988   1.886  0.1711 -0.1700  0.3034
12371TIP3    H258529   2.434   1.944   1.970  1.4517  0.3422 -1.1727
12372TIP3   OH258530   3.561   3.913   4.364 -0.2574 -0.5101 -0.0356
12372TIP3    H158531   3.554   4.008   4.356  2.4245 -0.0572  1.7697
12372TIP3    H258532   3.551   3.881   4.274 -0.1120  1.5589 -0.8450
12373TIP3   OH258533   3.611   3.806  17.055 -0.7436  0.5693  0.4168
12373TIP3    H158534   3.643   3.741  17.117 -1.4349  0.7584  0.9822
12373TIP3    H258535   3.680   3.812  16.989 -1.1673 -1.6207 -0.3159
12374TIP3   OH258536   3.895   3.311   0.316  0.1730  0.1986 -0.3142
12374TIP3    H158537   3.939   3.235   0.355 -0.3452 -0.4179 -0.9280
12374TIP3    H258538   3.911   3.303   0.222  2.9338  2.6216 -0.2005
12375TIP3   OH258539   1.227   4.147   2.740  0.2867 -0.0514  0.2899
12375TIP3    H158540   1.153   4.161   2.800  0.0196 -1.3936  0.3028
12375TIP3    H258541   1.294   4.207   2.770 -0.9951  1.6604 -0.0861
12376TIP3   OH258542   5.444   3.548  15.175 -0.4442  0.1317  0.1648
12376TIP3    H158543   5.477   3.517  15.259 -1.5296 -1.2202  0.1282
12376TIP3    H258544   5.478   3.485  15.112 -0.5765  0.4827 -0.2627
12377TIP3   OH258545   0.882   1.499  12.834  0.0662  0.9276 -0.1932
12377TIP3    H158546   0.805   1.443  12.829 -1.0314  2.3417  0.0364
12377TIP3    H258547   0.942   1.452  12.891  0.0052 -0.8887 -1.5326
12378TIP3   OH258548   0.019   6.237   1.449 -0.1426  0.0233  0.2451
12378TIP3    H158549   0.019   6.332   1.454 -0.5164  0.0546 -0.2908
12378TIP3    H258550  -0.070   6.211   1.470  0.2303 -0.2888  1.5548
12379TIP3   OH258551   1.506   1.380  15.100  0.7820 -0.1158  0.1559
12379TIP3    H158552   1.429   1.426  15.134  0.6971  1.7722 -2.2391
12379TIP3    H258553   1.571   1.388  15.169  0.0616  1.8804  0.6956
12380TIP3   OH258554   3.296   5.430   2.584 -0.9158 -0.2594 -0.4486
12380TIP3    H158555   3.252   5.487   2.647  1.3485  2.2463 -0.9684
12380TIP3    H258556   3.314   5.350   2.634  0.5805  1.5170  2.1038
12381TIP3   OH258557   2.535   6.529  14.669  0.4459  0.1435 -0.1791
12381TIP3    H158558   2.581   6.578  14.601 -1.3723 -0.2333 -1.7678
12381TIP3    H258559   2.582   6.549  14.750  1.0302  2.8212 -1.0997
12382TIP3   OH258560   3.574   3.203   0.802  0.3876 -0.2749 -0.3493
12382TIP3    H158561   3.586   3.280   0.857  0.5533  1.0413 -2.1478
12382TIP3    H258562   3.659   3.160   0.802  0.3447 -0.3821  0.5197
12383TIP3   OH258563   4.783   6.248   2.735  0.4081  0.4468  0.8176
12383TIP3    H158564   4.869   6.256   2.777  1.4513 -0.0679 -1.0884
12383TIP3    H258565   4.803   6.231   2.643 -1.7588  1.3240  0.1186
12384TIP3   OH258566   6.572   1.926  13.517 -0.5376 -0.5597 -0.2823
12384TIP3    H158567   6.576   1.842  13.470  0.2624 -0.5335 -0.2808
12384TIP3    H258568   6.605   1.906  13.604  0.1879 -0.1419 -0.4502
12385TIP3   OH258569   5.120   2.270   6.071 -0.0197  0.4200  0.3160
12385TIP3    H158570   5.033   2.258   6.109 -0.0013  0.0701  0.2461
12385TIP3    H258571   5.157   2.344   6.119  0.3808 -0.6088  1.6273
12386TIP3   OH258572   1.621   1.913   0.719  0.0593 -0.1124  0.0087
12386TIP3    H158573   1.643   1.996   0.761  0.5264 -0.2988  0.1274
12386TIP3    H258574   1.529   1.899   0.742 -0.1461  0.5774 -0.3542
12387TIP3   OH258575   1.693   2.466   2.137  0.0839 -0.3940  0.6954
12387TIP3    H158576   1.731   2.465   2.050 -2.6428  0.2229 -0.6118
12387TIP3    H258577   1.767   2.452   2.196  1.9055 -1.5792 -1.7197
12388TIP3   OH258578   1.251   1.557   5.734 -0.0173 -0.1473  0.1151
12388TIP3    H158579   1.277   1.644   5.766 -0.7347 -0.3968  1.4358
12388TIP3    H258580   1.201   1.519   5.805 -1.2756 -0.9503 -1.1447
12389TIP3   OH258581   5.139   4.111  15.870 -0.2830  0.2120  0.3829
12389TIP3    H158582   5.103   4.194  15.901 -2.5943 -0.8147  0.6470
12389TIP3    H258583   5.066   4.049  15.878  0.7771 -1.4062 -1.6901
12390TIP3   OH258584   1.711   6.542   4.335 -0.3562 -0.3179  0.4945
12390TIP3    H158585   1.763   6.503   4.265 -0.2307  0.4282  0.1651
12390TIP3    H258586   1.681   6.467   4.387 -1.0532 -0.9429 -0.7668
12391TIP3   OH258587   3.387   6.184   0.192 -0.6349  0.1584 -0.2732
12391TIP3    H158588   3.349   6.127   0.124 -2.2681  0.4354  0.3615
12391TIP3    H258589   3.318   6.190   0.258  0.6104  0.5879  1.0128
12392TIP3   OH258590   2.955   2.389   4.771 -0.0063 -0.2746  0.2255
12392TIP3    H158591   2.993   2.429   4.693  0.9393 -1.5694 -0.0178
12392TIP3    H258592   2.907   2.313   4.737 -1.5054  0.4286  0.7016
12393TIP3   OH258593   0.757   0.338  13.776  0.2115  0.2022 -0.1906
12393TIP3    H158594   0.743   0.303  13.688  1.5249  0.9974 -0.7399
12393TIP3    H258595   0.669   0.355  13.809 -0.3672 -1.5669 -0.7273
12394TIP3   OH258596   3.071   4.574  17.035  0.0758 -0.0899  0.0191
12394TIP3    H158597   3.075   4.551  17.128 -1.5554  0.9255  0.3773
12394TIP3    H258598   3.131   4.648  17.026  0.5884 -0.4800  0.1470
12395TIP3   OH258599   4.823   3.504  14.886  0.1877  0.4137  0.5124
12395TIP3    H158600   4.829   3.554  14.968  1.3183  2.0607 -0.4967
12395TIP3    H258601   4.883   3.430  14.898  2.0544  1.8287  0.4630
12396TIP3   OH258602   3.300   0.426   0.084 -0.2250  0.6517 -0.9007
12396TIP3    H158603   3.223   0.476   0.111  0.7861  1.4583  0.6460
12396TIP3    H258604   3.296   0.425  -0.012 -1.6242  1.5146 -0.8804
12397TIP3   OH258605   1.434   2.694  13.565  0.0744  0.2075  0.3874
12397TIP3    H158606   1.427   2.615  13.512  2.1904 -0.2475  0.7274
12397TIP3    H258607   1.486   2.754  13.513  0.2222  0.6137  0.9919
12398TIP3   OH258608   6.760   5.929   3.466  0.1947 -0.4941 -0.6951
12398TIP3    H158609   6.666   5.944   3.480  0.4404 -0.4798  1.1206
12398TIP3    H258610   6.781   5.853   3.521  1.5274  0.3612  0.0207
12399TIP3   OH258611   0.529   6.747   5.654 -0.0696 -0.1318 -0.0765
12399TIP3    H158612   0.470   6.819   5.632 -1.0075 -0.1677  2.0678
12399TIP3    H258613   0.505   6.677   5.594 -1.3213  0.3183 -0.1290
12400TIP3   OH258614   2.377   3.257   0.699 -0.4725 -0.1162  0.2750
12400TIP3    H158615   2.329   3.331   0.737 -3.9649 -1.8168 -0.4706
12400TIP3    H258616   2.393   3.199   0.774  2.9325  1.5258  1.0038
12401TIP3   OH258617   4.023   5.328   0.389  0.2899  0.0315 -0.0501
12401TIP3    H158618   4.103   5.353   0.343 -0.0818  0.2702 -0.5786
12401TIP3    H258619   3.955   5.382   0.349 -0.2576 -0.6867 -0.1086
12402TIP3   OH258620   2.353   4.974  16.817  0.8224 -0.1209 -0.0794
12402TIP3    H158621   2.385   4.899  16.866 -0.1926 -0.6189 -0.1590
12402TIP3    H258622   2.258   4.969  16.824  0.7400  1.6312  0.6275
12403TIP3   OH258623   6.004   0.930   0.664  0.6258 -0.3201 -0.1913
12403TIP3    H158624   6.083   0.976   0.694  0.0629  0.8088 -0.4011
12403TIP3    H258625   5.965   0.989   0.600 -0.5363 -0.7573  0.0954
12404TIP3   OH258626   0.347   5.454   6.112 -0.7114  0.6801 -0.2262
12404TIP3    H158627   0.333   5.548   6.113 -1.6925  0.5841 -1.6981
12404TIP3    H258628   0.267   5.418   6.075 -0.5621 -0.7918  0.7901
12405TIP3   OH258629   4.788   1.424   1.292 -0.0296  0.3383  0.2251
12405TIP3    H158630   4.753   1.512   1.283 -0.0740  0.1685 -1.5589
12405TIP3    H258631   4.769   1.381   1.209  2.2906 -0.5158  0.0583
12406TIP3   OH258632   4.478   4.761   2.316 -0.0863 -0.4271  0.0389
12406TIP3    H158633   4.443   4.833   2.368 -2.2500 -0.2667 -1.5040
12406TIP3    H258634   4.400   4.715   2.283  1.1428 -0.6275 -2.8464
12407TIP3   OH258635   5.094   2.637   0.258  0.0224 -0.5525 -0.4723
12407TIP3    H158636   5.074   2.581   0.333  2.3029 -0.4442  0.2836
12407TIP3    H258637   5.080   2.726   0.289  0.7777 -0.5176 -0.2054
12408TIP3   OH258638   5.318   1.161   3.699 -0.0047 -0.0556 -0.1544
12408TIP3    H158639   5.279   1.247   3.714 -1.5863 -0.8452  0.5699
12408TIP3    H258640   5.277   1.129   3.619  0.5299 -0.1645 -0.3885
12409TIP3   OH258641   5.438   4.923   1.263 -0.4481 -0.1551  0.0569
12409TIP3    H158642   5.380   4.958   1.330  0.9917  0.2167  1.1417
12409TIP3    H258643   5.524   4.958   1.284 -0.1237  0.9447 -2.6811
12410TIP3   OH258644   5.670   5.311   2.769 -0.2478  0.4847 -0.4509
12410TIP3    H158645   5.594   5.311   2.711  1.9227  0.7069 -3.5316
12410TIP3    H258646   5.680   5.403   2.793 -0.4452  0.5884 -0.7485
12411TIP3   OH258647   4.278   4.675   3.737  0.6334  0.4797 -0.3326
12411TIP3    H158648   4.280   4.770   3.725  1.1760  0.7883  1.7638
12411TIP3    H258649   4.369   4.651   3.753  0.3290 -0.1883  0.4655
12412TIP3   OH258650   0.461   2.939   0.398  0.1105  0.5824  0.5009
12412TIP3    H158651   0.378   2.917   0.356 -0.2871  4.1233 -0.8613
12412TIP3    H258652   0.528   2.914   0.335 -0.2992  2.6063 -0.8178
12413TIP3   OH258653   5.293   3.741  13.932 -0.0926 -0.5583  0.0271
12413TIP3    H158654   5.380   3.759  13.896 -0.0164 -1.6500 -0.3651
12413TIP3    H258655   5.308   3.672  13.997 -0.3961  0.5960  1.3825
12414TIP3   OH258656   0.460   2.837   4.411  0.2196  0.2514  0.5431
12414TIP3    H158657   0.480   2.879   4.494 -0.6828  0.6193  0.5888
12414TIP3    H258658   0.541   2.845   4.360 -0.1601  2.9183  0.1975
12415TIP3   OH258659   2.985   2.875   1.500  0.1513 -0.0063  0.0047
12415TIP3    H158660   2.893   2.885   1.474 -0.3603  1.4237  2.1006
12415TIP3    H258661   2.993   2.925   1.581  2.8179 -0.0723 -0.1186
12416TIP3   OH258662   0.505   6.617  16.032 -0.1768  0.0372  0.2034
12416TIP3    H158663   0.542   6.615  16.121 -0.0855  0.6862  0.1825
12416TIP3    H258664   0.581   6.612  15.975 -0.1342  0.9978  0.1612
12417TIP3   OH258665   6.529   0.056  16.135  0.7722 -0.0708  0.5495
12417TIP3    H158666   6.446   0.075  16.177  0.8770  0.5332  0.4882
12417TIP3    H258667   6.520  -0.035  16.105  0.3874 -0.2288  1.1233
12418TIP3   OH258668   3.723   3.247   4.422 -0.4180  0.9100 -0.0732
12418TIP3    H158669   3.663   3.193   4.473  0.5944  1.2325  1.5283
12418TIP3    H258670   3.743   3.195   4.345 -0.9772 -0.1739  0.4943
12419TIP3   OH258671   6.318   1.646   3.676  0.1216  0.1500  0.3165
12419TIP3    H158672   6.340   1.735   3.705 -1.1921  0.6970 -0.2499
12419TIP3    H258673   6.388   1.623   3.616  0.9085  0.4743  1.0863
12420TIP3   OH258674   2.898   0.272   3.652 -0.8170  0.1729 -0.1607
12420TIP3    H158675   2.987   0.307   3.657 -0.1247 -0.9611 -2.7329
12420TIP3    H258676   2.842   0.349   3.643 -0.1645  0.9030  1.5922
12421TIP3   OH258677   6.472   5.889   3.476  0.4106 -0.1128  0.2284
12421TIP3    H158678   6.484   5.836   3.397  4.1679  2.0438 -0.9141
12421TIP3    H258679   6.422   5.833   3.535 -0.7543 -2.6393 -2.8625
12422TIP3   OH258680   0.301   5.312  17.196 -0.5255  0.0593  0.4939
12422TIP3    H158681   0.210   5.317  17.225 -0.8423 -0.9280 -0.2891
12422TIP3    H258682   0.302   5.360  17.113 -0.3267  0.0905  0.5143
12423TIP3   OH258683   2.406   4.857   1.412 -0.1673  0.8592  0.1034
12423TIP3    H158684   2.364   4.825   1.332  0.9176  2.2452 -1.0816
12423TIP3    H258685   2.334   4.868   1.474 -0.7699 -2.3577  0.1316
12424TIP3   OH258686   5.322   2.543  14.370  0.5956 -0.0592  0.5803
12424TIP3    H158687   5.284   2.579  14.449 -0.3370  1.8101 -0.6566
12424TIP3    H258688   5.260   2.476  14.341 -0.5051  1.1647 -0.0082
12425TIP3   OH258689   1.516   1.963   3.556  0.4547 -0.0767 -0.0544
12425TIP3    H158690   1.504   1.937   3.647 -0.1735  0.3592 -0.0043
12425TIP3    H258691   1.550   1.884   3.512  2.4176  0.1853  0.8797
12426TIP3   OH258692   6.049   0.490   5.844  0.0202 -0.4435 -0.0439
12426TIP3    H158693   6.054   0.427   5.916 -0.5745 -1.0248 -0.4969
12426TIP3    H258694   6.087   0.571   5.879 -0.4541 -0.6597  0.9789
12427TIP3   OH258695   0.620   6.279   1.492 -0.0573  0.0264 -0.3246
12427TIP3    H158696   0.553   6.347   1.487 -0.6230 -0.5400 -0.5625
12427TIP3    H258697   0.594   6.227   1.568  1.0120  0.7276  0.5565
12428TIP3   OH258698   1.599   2.823  17.365  0.4394 -0.1527  0.8124
12428TIP3    H158699   1.596   2.756  17.434 -1.4361  0.7558  1.6713
12428TIP3    H258700   1.683   2.867  17.380  0.9840 -1.2715  1.2205
12429TIP3   OH258701   2.616   1.831   3.844 -0.1850  0.1250  0.7986
12429TIP3    H158702   2.631   1.756   3.787  0.1748  0.5895  0.2716
12429TIP3    H258703   2.624   1.796   3.933 -0.3648 -0.5241  0.5645
12430TIP3   OH258704   4.502   2.945  13.688  0.1070 -0.6200 -0.5167
12430TIP3    H158705   4.447   2.902  13.622  1.4318 -1.6169 -1.0203
12430TIP3    H258706   4.514   2.878  13.756  0.1166 -0.1664 -0.0702
12431TIP3   OH258707   2.275   0.899   1.670 -0.8056  0.5885 -0.1238
12431TIP3    H158708   2.261   0.936   1.757 -0.6097 -0.5552  0.4031
12431TIP3    H258709   2.191   0.911   1.625 -0.7179  1.7559 -0.0114
12432TIP3   OH258710   1.154   6.137   3.244 -0.5583  0.1350 -0.2575
12432TIP3    H158711   1.169   6.222   3.286  1.6454  0.0384 -0.7310
12432TIP3    H258712   1.151   6.076   3.317 -0.1037  0.3736 -0.0340
12433TIP3   OH258713   4.106   3.548  16.060 -0.5282  0.0242  0.2157
12433TIP3    H158714   4.143   3.534  15.973 -2.5901  1.1780 -0.9184
12433TIP3    H258715   4.012   3.557  16.045 -0.8124  1.4882  2.4008
12434TIP3   OH258716   0.615   4.161  12.847  0.0961 -0.2972 -0.5114
12434TIP3    H158717   0.617   4.155  12.751 -1.3057 -1.5959 -0.4955
12434TIP3    H258718   0.607   4.255  12.865 -0.9309 -0.1351 -1.7130
12435TIP3   OH258719   5.136   0.018  16.686  0.2521  0.5460 -0.0124
12435TIP3    H158720   5.184  -0.055  16.725  2.1767  0.7239 -1.8533
12435TIP3    H258721   5.045   0.002  16.710  0.6142 -2.3889 -0.1824
12436TIP3   OH258722   1.386   1.533  12.925  0.0644  0.0955  0.4102
12436TIP3    H158723   1.325   1.463  12.949 -0.0771 -0.1467 -0.6211
12436TIP3    H258724   1.352   1.610  12.969 -1.4205  0.1261 -0.7211
12437TIP3   OH258725   2.913   1.251   0.601  0.0753  0.1041  0.0059
12437TIP3    H158726   2.862   1.323   0.566  0.7062 -0.0329 -1.2370
12437TIP3    H258727   2.865   1.172   0.576  1.0818 -0.0495 -1.5771
12438TIP3   OH258728   0.281   2.225  14.854 -0.3714  0.1844  0.5019
12438TIP3    H158729   0.268   2.135  14.825  1.3537  0.2615 -0.6756
12438TIP3    H258730   0.300   2.217  14.948  1.1454 -0.8480  0.1420
12439TIP3   OH258731   5.826   1.723  11.797 -0.2953 -0.1237  0.1107
12439TIP3    H158732   5.873   1.763  11.869  1.7106  0.0515 -1.2275
12439TIP3    H258733   5.821   1.630  11.819 -0.8003  0.1093  1.0173
12440TIP3   OH258734   6.459   4.934  11.341 -0.1879 -0.0316 -0.4465
12440TIP3    H158735   6.387   4.913  11.283  1.0205  1.2362 -2.5272
12440TIP3    H258736   6.453   5.028  11.355  0.5772 -0.0399  0.0269
12441TIP3   OH258737   2.126   6.013  12.066  0.2770  0.3817 -0.3783
12441TIP3    H158738   2.069   6.087  12.087  1.6105  1.3608  0.0249
12441TIP3    H258739   2.155   6.030  11.977  0.8435  0.5365 -0.1700
12442TIP3   OH258740   1.327   5.333   1.679 -0.6655 -0.2556  0.2409
12442TIP3    H158741   1.390   5.393   1.721 -2.0623  0.8808  0.8164
12442TIP3    H258742   1.369   5.308   1.597  1.9765 -2.1877  2.0261
12443TIP3   OH258743   1.348   5.222   1.091 -0.3730  0.2304 -0.2717
12443TIP3    H158744   1.272   5.250   1.142 -0.6802 -0.4725 -0.3413
12443TIP3    H258745   1.345   5.127   1.092 -0.8790  0.1691 -2.2889
12444TIP3   OH258746   6.190   6.598   4.942 -0.1209 -0.1545  0.1575
12444TIP3    H158747   6.269   6.603   4.995  0.3080  0.2689 -0.5103
12444TIP3    H258748   6.130   6.661   4.982 -0.4690 -1.0920  1.1938
12445TIP3   OH258749   3.148   1.261  14.074  0.6223  0.1664 -0.1639
12445TIP3    H158750   3.181   1.334  14.021  1.6114 -1.5459 -2.0143
12445TIP3    H258751   3.069   1.232  14.028  0.5953 -0.3351  0.1910
12446TIP3   OH258752   3.655   5.025   4.240  0.0941  0.1279 -0.3528
12446TIP3    H158753   3.560   5.038   4.251  0.2481  2.6681 -1.4002
12446TIP3    H258754   3.686   5.107   4.202  2.9723 -0.0728  1.3142
12447TIP3   OH258755   1.076   1.872  11.614  0.1180  0.1612 -0.1370
12447TIP3    H158756   1.133   1.906  11.683  0.3048  0.6779 -0.5396
12447TIP3    H258757   1.116   1.902  11.533 -2.0406  2.6694 -0.3870
12448TIP3   OH258758   3.575   0.651  13.763  0.2088  0.6249  0.1480
12448TIP3    H158759   3.587   0.742  13.788 -0.3258  0.2523  1.9298
12448TIP3    H258760   3.512   0.617  13.826  0.6522 -1.0674 -0.2632
12449TIP3   OH258761   2.533   5.817  13.197  0.4065 -0.0156  0.2174
12449TIP3    H158762   2.585   5.805  13.276 -0.2076  0.1630  0.6613
12449TIP3    H258763   2.464   5.751  13.203  0.5730 -0.2531 -0.3621
12450TIP3   OH258764   5.402   1.817  16.522 -0.5469 -0.6941  0.8471
12450TIP3    H158765   5.419   1.854  16.608  0.4824 -0.7549  0.6764
12450TIP3    H258766   5.309   1.834  16.507  0.1390  3.3457  0.0618
12451TIP3   OH258767   5.761   1.622   4.251 -0.2008  0.4429  0.1626
12451TIP3    H158768   5.810   1.664   4.322  0.7431  1.3817 -0.9840
12451TIP3    H258769   5.800   1.658   4.171 -0.6933 -1.1707 -0.8553
12452TIP3   OH258770   1.800   3.481  15.438 -0.4395  0.1434  0.1216
12452TIP3    H158771   1.829   3.569  15.412  0.9670  0.4139  2.2930
12452TIP3    H258772   1.873   3.424  15.415 -1.1592 -0.4011 -0.8507
12453TIP3   OH258773   6.320   5.011   1.507 -0.1560  0.3145  0.7868
12453TIP3    H158774   6.239   5.039   1.464 -1.0414  0.3864  2.4186
12453TIP3    H258775   6.390   5.049   1.454 -1.0867 -1.2107 -1.7054
12454TIP3   OH258776   4.357   6.049   3.393  0.4203  0.4008 -0.2118
12454TIP3    H158777   4.395   5.974   3.439  0.6891  0.7130  0.0801
12454TIP3    H258778   4.399   6.126   3.432 -0.6650  0.7698  0.2769
12455TIP3   OH258779   4.658   2.850  12.430 -0.0011  0.1864 -0.3022
12455TIP3    H158780   4.610   2.793  12.369  0.0179 -0.2133  0.0515
12455TIP3    H258781   4.722   2.894  12.375  1.4367 -1.7345 -0.2653
12456TIP3   OH258782   4.372   2.272  17.377 -0.4130  0.4332 -0.5772
12456TIP3    H158783   4.442   2.328  17.411 -0.2786  0.3934 -0.7844
12456TIP3    H258784   4.316   2.331  17.327 -1.3715  0.7557  0.8158
12457TIP3   OH258785   2.541   0.599   2.670 -0.1066 -0.3782 -0.3693
12457TIP3    H158786   2.591   0.557   2.600 -3.3698 -0.0495 -3.1650
12457TIP3    H258787   2.462   0.545   2.679 -0.3737  0.3139  2.2669
12458TIP3   OH258788   4.613   0.045  10.862  0.4664 -0.4383 -0.2875
12458TIP3    H158789   4.682   0.029  10.798  2.3460  2.0671  0.9200
12458TIP3    H258790   4.607   0.141  10.867 -0.0032 -0.5307  2.7928
12459TIP3   OH258791   0.817   1.920  15.382  0.2263  0.3290 -0.5455
12459TIP3    H158792   0.888   1.913  15.319 -1.2581  2.4871 -2.5928
12459TIP3    H258793   0.822   2.010  15.414 -2.1573  0.8447 -1.4986
12460TIP3   OH258794   1.726   3.146  13.315  0.2283 -0.2777 -0.2418
12460TIP3    H158795   1.787   3.215  13.338  0.6281 -0.3599 -1.0352
12460TIP3    H258796   1.764   3.067  13.352  1.1534 -0.4999 -1.5848
12461TIP3   OH258797   5.371   6.198   2.439 -0.0699  0.1276  0.4313
12461TIP3    H158798   5.409   6.286   2.435 -1.0519  0.5710  0.5399
12461TIP3    H258799   5.321   6.190   2.358  1.0813 -0.8478 -0.1981
12462TIP3   OH258800   6.022   0.156  17.018 -0.1963 -0.2599  0.1387
12462TIP3    H158801   5.954   0.140  17.084  1.1495 -0.0600  1.6650
12462TIP3    H258802   6.007   0.246  16.990 -0.5093 -0.1872  0.5302
12463TIP3   OH258803   3.896   0.354   4.221 -0.5661  0.4399  0.3002
12463TIP3    H158804   3.915   0.395   4.137  0.1373 -0.9600 -0.2553
12463TIP3    H258805   3.939   0.410   4.286  1.1353  0.1179 -0.5082
12464TIP3   OH258806   1.324   3.072   5.572  0.2589 -0.5056  0.3231
12464TIP3    H158807   1.251   3.022   5.609 -0.4502 -0.3138 -0.7693
12464TIP3    H258808   1.362   3.118   5.646 -1.3420  0.1430  0.7773
12465TIP3   OH258809   2.494   6.289   5.083  0.9104  0.5203  0.3736
12465TIP3    H158810   2.411   6.321   5.120  1.2021  1.6775  0.0615
12465TIP3    H258811   2.540   6.250   5.157  0.3660  0.4453  0.6796
12466TIP3   OH258812   2.153   5.761  14.790  0.6644  0.7461 -0.3608
12466TIP3    H158813   2.233   5.710  14.799  0.4067  0.4142  0.1051
12466TIP3    H258814   2.159   5.801  14.704  0.7310 -0.3233 -0.8680
12467TIP3   OH258815   3.750   5.637  15.752 -0.1366  0.1228  0.1150
12467TIP3    H158816   3.839   5.609  15.775  0.2562  0.9334 -0.3772
12467TIP3    H258817   3.762   5.702  15.683 -0.9189  2.2065  1.8107
12468TIP3   OH258818   5.702   1.102  16.031 -0.2355  0.2715 -0.0817
12468TIP3    H158819   5.739   1.181  15.991  0.2994 -1.0985 -2.5203
12468TIP3    H258820   5.612   1.125  16.052 -0.6663  1.0747 -2.4520
12469TIP3   OH258821   6.137   4.107   2.910 -0.0727  0.0027 -0.1862
12469TIP3    H158822   6.069   4.166   2.878  0.6732 -0.0135 -1.9383
12469TIP3    H258823   6.219   4.148   2.883  0.5430 -0.9236  0.2022
12470TIP3   OH258824   3.005   0.597  11.190 -0.2653 -0.1821 -0.3435
12470TIP3    H158825   2.924   0.585  11.141  0.0530 -0.2117 -0.8640
12470TIP3    H258826   3.023   0.691  11.186  0.2788 -0.3101 -1.1234
12471TIP3   OH258827   4.442   5.774  15.798 -0.7217  0.2025 -0.7168
12471TIP3    H158828   4.398   5.841  15.745 -0.0065  1.7655  0.5848
12471TIP3    H258829   4.388   5.767  15.877  0.1833  0.5861 -0.0481
12472TIP3   OH258830   1.949   5.682   6.433 -0.1673 -0.2877 -0.2475
12472TIP3    H158831   1.877   5.619   6.436  0.0976 -0.5565  1.1976
12472TIP3    H258832   1.906   5.766   6.414 -0.7234 -0.6332 -0.5387
12473TIP3   OH258833   2.206   4.810  10.734  0.1053 -0.5264 -0.7399
12473TIP3    H158834   2.140   4.824  10.802 -1.4071  0.6966 -2.3753
12473TIP3    H258835   2.280   4.865  10.760 -0.2329 -0.4868  0.1608
12474TIP3   OH258836   3.886   0.316   5.620 -0.6679  0.3777 -0.0729
12474TIP3    H158837   3.911   0.388   5.561  0.5352 -0.8880 -1.1875
12474TIP3    H258838   3.922   0.238   5.578  1.4618 -0.4743  3.0051
12475TIP3   OH258839   1.928   5.097  11.168 -0.1349  0.5677 -0.0178
12475TIP3    H158840   1.906   5.060  11.082 -1.3816  0.2565  0.4196
12475TIP3    H258841   1.938   5.191  11.151 -0.7328  0.5631 -0.4540
12476TIP3   OH258842   1.343   2.311   4.678  0.2508 -0.1321 -0.3321
12476TIP3    H158843   1.433   2.344   4.667  0.2271 -0.2619 -0.9457
12476TIP3    H258844   1.340   2.280   4.768  0.7574  0.0793 -0.2378
12477TIP3   OH258845   2.296   6.400  15.684 -0.5976 -0.4152  0.0835
12477TIP3    H158846   2.292   6.437  15.772  2.0421  1.6225 -0.5140
12477TIP3    H258847   2.240   6.456  15.631 -0.2332 -0.0903  0.0351
12478TIP3   OH258848   2.275   3.805  13.965 -0.0457  0.2074  0.6154
12478TIP3    H158849   2.264   3.764  13.879  1.5683 -1.2148  1.0207
12478TIP3    H258850   2.194   3.853  13.980 -2.3570 -3.2150  0.2357
12479TIP3   OH258851   1.307   0.698   0.712 -0.3448  0.1780 -0.0968
12479TIP3    H158852   1.363   0.762   0.756 -2.0778  0.7792  1.3907
12479TIP3    H258853   1.299   0.626   0.774 -1.0196  0.0208 -0.3543
12480TIP3   OH258854   4.378   1.279  16.160 -0.0708  0.1304  0.8469
12480TIP3    H158855   4.387   1.261  16.254 -0.4098  1.2596  1.1074
12480TIP3    H258856   4.342   1.198  16.124  0.8416 -0.6131  1.5472
12481TIP3   OH258857   5.460   1.711  11.252 -0.1533  0.7715  0.4698
12481TIP3    H158858   5.458   1.806  11.241 -0.6124  0.6076 -1.2230
12481TIP3    H258859   5.495   1.697  11.340  1.6875  2.4664  0.0708
12482TIP3   OH258860   1.153   4.633   2.758  0.3444  0.4199  0.7639
12482TIP3    H158861   1.133   4.693   2.686  1.3683  0.9663  0.9053
12482TIP3    H258862   1.222   4.576   2.723  0.6721  0.5267  1.2266
12483TIP3   OH258863   4.942   6.355  15.995 -0.2775  0.0555  0.2982
12483TIP3    H158864   4.878   6.295  15.958  0.7103 -0.4751 -0.5838
12483TIP3    H258865   5.010   6.363  15.928  0.9655  0.0130  1.5080
12484TIP3   OH258866   3.673   5.549   4.711 -0.1473 -0.0742  0.1142
12484TIP3    H158867   3.650   5.456   4.721  1.0045 -0.3169  0.6835
12484TIP3    H258868   3.693   5.559   4.618  3.4957 -1.3787  0.5866
12485TIP3   OH258869   5.843   3.807  14.414 -0.2386 -0.4221  0.0706
12485TIP3    H158870   5.875   3.773  14.497  0.8000  0.3727  0.0123
12485TIP3    H258871   5.922   3.826  14.363 -0.8625 -1.3972 -1.3224
12486TIP3   OH258872   1.325   5.482  10.598 -0.7916 -0.2215 -0.0761
12486TIP3    H158873   1.302   5.412  10.659  0.2473 -0.3097  0.2338
12486TIP3    H258874   1.349   5.556  10.654 -2.0994  0.4744 -0.4011
12487TIP3   OH258875   0.890   3.092   3.583  0.0891  0.6127 -0.1717
12487TIP3    H158876   0.865   3.029   3.516  0.3920  0.9411 -0.5973
12487TIP3    H258877   0.858   3.176   3.551  1.2808  0.9634 -0.4898
12488TIP3   OH258878   5.143   2.059   5.232 -0.1284 -0.3547 -0.8641
12488TIP3    H158879   5.172   1.979   5.277  0.4292  0.7236  0.7590
12488TIP3    H258880   5.048   2.048   5.224 -0.0113 -1.3546 -1.0565
12489TIP3   OH258881   5.811   3.621   3.047  0.2104 -0.2342 -0.1624
12489TIP3    H158882   5.775   3.678   3.116  2.4641  0.7412  0.3308
12489TIP3    H258883   5.738   3.604   2.988 -1.6934 -0.7084  2.1968
12490TIP3   OH258884   4.926   3.961  11.192 -0.0812 -0.6609  0.2264
12490TIP3    H158885   4.946   3.867  11.190 -2.4103 -1.2149 -1.2716
12490TIP3    H258886   4.875   3.972  11.273  0.2033 -0.6829  0.4093
12491TIP3   OH258887   3.669   3.202  17.373 -0.4714  0.6633  0.5571
12491TIP3    H158888   3.657   3.127  17.431  2.1757  1.0472  1.7505
12491TIP3    H258889   3.602   3.265  17.401 -2.2208 -0.8859  0.0515
12492TIP3   OH258890   0.407   1.040  16.897 -0.7253 -0.1674  0.1029
12492TIP3    H158891   0.370   0.955  16.875 -3.2103  0.5977  0.9343
12492TIP3    H258892   0.431   1.034  16.990 -3.1283  0.6488  0.8547
12493TIP3   OH258893   6.005   1.980  16.301  0.4577  0.0818  0.0631
12493TIP3    H158894   6.007   1.885  16.284  0.1405  0.4247 -2.2082
12493TIP3    H258895   5.923   2.009  16.263  0.6184  1.3069  0.6212
12494TIP3   OH258896   2.261   4.670   6.233 -0.3234  0.8934 -0.1352
12494TIP3    H158897   2.192   4.608   6.209  0.1895  0.3869 -0.3370
12494TIP3    H258898   2.240   4.696   6.323 -0.7247  0.6739 -0.1649
12495TIP3   OH258899   0.637   1.450  14.056 -0.0771 -0.0348 -0.1957
12495TIP3    H158900   0.630   1.355  14.050 -1.3106  0.1205 -2.0174
12495TIP3    H258901   0.676   1.466  14.142  0.4037 -2.1798  0.0311
12496TIP3   OH258902   6.519   2.317  11.927  0.4515  0.0119 -0.0032
12496TIP3    H158903   6.516   2.413  11.924  2.3220  0.2131  2.1046
12496TIP3    H258904   6.532   2.292  11.835  2.8188  1.9860 -0.3215
12497TIP3   OH258905   2.722   0.277   1.184  0.2409 -0.0244 -0.6974
12497TIP3    H158906   2.752   0.189   1.205 -0.3377  0.0278  0.4611
12497TIP3    H258907   2.687   0.271   1.095  2.0584 -0.4678 -1.4322
12498TIP3   OH258908   2.298   2.579   0.393  0.2680 -0.2519 -0.1539
12498TIP3    H158909   2.312   2.568   0.487  0.6154 -0.6310 -0.2413
12498TIP3    H258910   2.376   2.539   0.353  1.6378  2.5316 -0.5305
12499TIP3   OH258911   4.997   1.115   3.902  0.0539 -0.3768  0.1538
12499TIP3    H158912   4.969   1.142   3.815  0.5865 -0.8525 -0.1687
12499TIP3    H258913   5.069   1.054   3.887  1.9576  1.5560  0.9691
12500TIP3   OH258914   4.931   4.988  15.589  0.0586 -0.6246 -0.0091
12500TIP3    H158915   5.021   4.980  15.620 -0.2322  1.0382  1.3681
12500TIP3    H258916   4.939   4.989  15.494  1.5208 -0.2219  0.0901
12501TIP3   OH258917   5.028   0.927   4.103 -0.1282 -0.4383  0.1205
12501TIP3    H158918   5.010   0.989   4.032  1.1917 -0.1842 -0.0263
12501TIP3    H258919   5.105   0.963   4.148  0.4331 -1.7426  0.2752
12502TIP3   OH258920   3.061   6.468  11.144 -0.1643 -0.1156 -0.4336
12502TIP3    H158921   3.096   6.510  11.065  2.5870 -1.3637  0.0240
12502TIP3    H258922   3.058   6.538  11.209  1.1722  0.1174 -0.6056
12503TIP3   OH258923   6.719   0.932   0.001 -0.4559 -0.1245  0.4148
12503TIP3    H158924   6.663   0.972   0.067 -1.4204 -0.1570 -0.3672
12503TIP3    H258925   6.661   0.877  -0.051  0.5631 -1.3371  0.4874
12504TIP3   OH258926   6.011   4.101   3.192  0.2883  0.5233  0.8897
12504TIP3    H158927   5.934   4.157   3.179  0.9814  1.0145 -1.6042
12504TIP3    H258928   6.041   4.081   3.104  2.2697 -0.7640  1.7916
12505TIP3   OH258929   0.971   6.203   2.212  0.0467 -0.0584  0.1412
12505TIP3    H158930   1.017   6.287   2.219  2.2424 -1.2246  0.6718
12505TIP3    H258931   0.902   6.208   2.277  0.9256  0.8984  1.0342
12506TIP3   OH258932   4.909   2.448   4.756 -0.1785 -0.2978  0.2722
12506TIP3    H158933   5.001   2.475   4.763 -0.3639  1.3931 -2.3379
12506TIP3    H258934   4.893   2.441   4.661 -2.4450 -1.7494  0.6793
12507TIP3   OH258935   3.003   4.422  10.737  0.3981 -0.2054 -0.0467
12507TIP3    H158936   3.033   4.351  10.680  1.1933 -1.2477  1.6059
12507TIP3    H258937   3.056   4.413  10.816  0.5566  2.2943  0.1851
12508TIP3   OH258938   0.773   2.310  12.980 -0.1181  0.4994 -0.3604
12508TIP3    H158939   0.859   2.314  13.022 -1.1601  0.3886  1.9446
12508TIP3    H258940   0.740   2.223  13.001 -1.1075  0.8143 -0.5420
12509TIP3   OH258941   6.190   2.626   0.094 -0.0356 -0.3544  0.6794
12509TIP3    H158942   6.142   2.706   0.073 -1.5832 -1.3209  0.4053
12509TIP3    H258943   6.281   2.647   0.072 -0.0892  1.9000  2.2721
12510TIP3   OH258944   0.578   1.601   5.259  0.2412  0.1922  0.5906
12510TIP3    H158945   0.658   1.647   5.284 -0.0293  0.5854  0.7404
12510TIP3    H258946   0.528   1.595   5.340  0.6055 -1.0432  0.7381
12511TIP3   OH258947   3.794   0.422   3.023 -0.2143 -0.1508 -0.7009
12511TIP3    H158948   3.719   0.479   3.006 -0.2488 -0.8970 -3.6192
12511TIP3    H258949   3.869   0.472   2.992 -0.2741 -1.6426 -3.5766
12512TIP3   OH258950   3.075   4.012   2.625 -0.2327  0.2956 -0.0877
12512TIP3    H158951   3.041   3.956   2.555 -0.3556 -1.4183  1.2960
12512TIP3    H258952   2.997   4.041   2.672 -0.0496  0.0143  0.3908
12513TIP3   OH258953   5.556   4.533   5.145 -0.1148 -0.6117 -0.6161
12513TIP3    H158954   5.463   4.555   5.150 -0.1730 -1.0880  1.0889
12513TIP3    H258955   5.559   4.438   5.156  0.6348 -0.4473  0.9380
12514TIP3   OH258956   4.868   6.038   2.013 -0.4510  0.0043  0.2089
12514TIP3    H158957   4.829   5.982   1.945 -0.0406  0.7268 -0.6405
12514TIP3    H258958   4.938   6.084   1.968  0.7813 -0.5632  1.4980
12515TIP3   OH258959   0.613   4.284   3.067  0.1548 -0.1217 -0.0845
12515TIP3    H158960   0.677   4.291   3.138  0.1813 -2.5446  0.2213
12515TIP3    H258961   0.549   4.353   3.085  1.1671  0.5243  1.2052
12516TIP3   OH258962   6.312   5.157  16.005  0.1191  0.2954 -0.1029
12516TIP3    H158963   6.279   5.129  16.090 -1.5287 -0.3033 -0.9109
12516TIP3    H258964   6.329   5.075  15.958  0.1348  0.6278 -0.6838
12517TIP3   OH258965   0.575   1.243   5.462 -0.3891 -0.2947  0.2503
12517TIP3    H158966   0.650   1.297   5.436 -0.3813 -0.9161 -1.1059
12517TIP3    H258967   0.507   1.306   5.485 -0.4884  0.3455 -1.6294
12518TIP3   OH258968   5.129   0.760  10.804  0.0345  0.0983  0.1879
12518TIP3    H158969   5.037   0.779  10.819  0.8396  2.6714  2.9155
12518TIP3    H258970   5.154   0.817  10.731 -0.5362 -0.8136 -0.7468
12519TIP3   OH258971   1.053   1.116  14.669 -0.0122  0.0298  0.1649
12519TIP3    H158972   1.125   1.164  14.711 -1.4066  0.0558  2.7126
12519TIP3    H258973   1.028   1.170  14.594  1.7135  0.6812  0.0091
12520TIP3   OH258974   1.812   5.606   1.665  0.3981 -0.1605  0.3116
12520TIP3    H158975   1.755   5.631   1.592  1.8082  1.4321 -0.3190
12520TIP3    H258976   1.901   5.613   1.629  1.0512 -3.5834  0.9410
12521TIP3   OH258977   1.010   3.454  16.510  0.7413  0.1284  0.8276
12521TIP3    H158978   0.989   3.459  16.603 -0.4434  1.5265  0.5197
12521TIP3    H258979   1.068   3.529  16.495  0.2881  0.3769  0.2916
12522TIP3   OH258980   1.982   5.734   3.301  0.6150 -0.2256  0.1658
12522TIP3    H158981   2.008   5.824   3.281 -0.5882 -0.0247 -0.5756
12522TIP3    H258982   1.991   5.688   3.218  0.3973 -0.5878  0.3400
12523TIP3   OH258983   3.478   0.063  12.075  0.2238  0.7959 -0.0505
12523TIP3    H158984   3.511   0.055  11.986 -0.2991 -0.8245 -0.1271
12523TIP3    H258985   3.555   0.050  12.131  0.0562 -1.3398 -0.2512
12524TIP3   OH258986   4.761   3.564   3.698  0.0242  0.8639  0.0203
12524TIP3    H158987   4.852   3.561   3.669  0.1553  0.0715  0.4666
12524TIP3    H258988   4.766   3.586   3.791 -0.0603 -1.5792  0.6693
12525TIP3   OH258989   4.267   6.364   0.513 -0.5488 -0.1615  0.2101
12525TIP3    H158990   4.309   6.434   0.564 -0.7495  0.5907 -0.6355
12525TIP3    H258991   4.232   6.304   0.580  0.2770  0.1417  0.9426
12526TIP3   OH258992   4.815   5.496  14.383  0.2757  0.0213  0.3342
12526TIP3    H158993   4.736   5.539  14.417 -0.4614 -1.0598  0.0766
12526TIP3    H258994   4.787   5.459  14.299  0.8936 -0.8451  0.4947
12527TIP3   OH258995   2.538   4.159  16.391  0.5089  0.3502 -0.0726
12527TIP3    H158996   2.482   4.118  16.325  1.7649 -1.1255 -0.2881
12527TIP3    H258997   2.592   4.087  16.425 -1.3134  0.6574  3.9597
12528TIP3   OH258998   0.904   6.067   5.887  0.0348 -0.2272  0.1991
12528TIP3    H158999   0.966   6.079   5.816  0.9836  1.1088  1.1941
12528TIP3    H259000   0.819   6.091   5.849  0.1158 -1.8552 -1.1094
12529TIP3   OH259001   0.009   4.177   0.708  0.0434 -0.1366 -0.8783
12529TIP3    H159002   0.077   4.112   0.722 -0.3583 -0.1856  1.0289
12529TIP3    H259003  -0.072   4.134   0.732 -0.3818  0.6553 -0.8438
12530TIP3   OH259004   2.535   3.893  15.523 -0.1696 -0.0336  0.9203
12530TIP3    H159005   2.623   3.901  15.487 -0.9880 -0.1290 -1.2616
12530TIP3    H259006   2.520   3.976  15.570  0.0301  1.3131 -1.2578
12531TIP3   OH259007   5.886   5.536  16.048  0.4957 -0.4300  0.1240
12531TIP3    H159008   5.880   5.631  16.042  0.1883 -0.5315 -1.5061
12531TIP3    H259009   5.962   5.520  16.104 -0.4655  0.7616  1.8717
12532TIP3   OH259010   4.579   6.087   5.888  0.7502  0.2652 -0.5430
12532TIP3    H159011   4.541   6.052   5.969  2.0298 -1.5880 -0.6668
12532TIP3    H259012   4.527   6.165   5.868 -2.6399 -1.7600 -0.4416
12533TIP3   OH259013   5.053   3.478   5.540 -0.1533 -0.2099 -0.5887
12533TIP3    H159014   5.083   3.566   5.517  0.5110  0.0041  0.9739
12533TIP3    H259015   5.035   3.436   5.456  0.0136  1.2387 -1.3812
12534TIP3   OH259016   2.058   1.226   1.991 -0.2166  0.4488  0.4332
12534TIP3    H159017   2.048   1.311   1.949  1.3743  0.3838 -0.1507
12534TIP3    H259018   2.149   1.201   1.974 -0.8611 -1.7478 -0.1028
12535TIP3   OH259019   6.575   0.251   0.324  0.3957 -0.4189  0.6055
12535TIP3    H159020   6.536   0.264   0.411  0.3404  1.6989  0.3263
12535TIP3    H259021   6.666   0.279   0.335 -0.1863  2.2042 -0.4883
12536TIP3   OH259022   2.593   6.333  12.759 -0.2052  0.6248  0.1387
12536TIP3    H159023   2.561   6.404  12.815 -0.6499 -0.4077  1.2282
12536TIP3    H259024   2.520   6.272  12.753  0.6316 -0.4271  0.3850
12537TIP3   OH259025   3.089   4.472  17.292  0.0129 -0.6522  0.1758
12537TIP3    H159026   3.155   4.424  17.342 -0.1993 -0.2257  0.8812
12537TIP3    H259027   3.025   4.499  17.357 -0.5044 -0.4739 -0.4037
12538TIP3   OH259028   6.429   0.552   1.253 -0.6142 -0.1285 -0.0356
12538TIP3    H159029   6.506   0.543   1.197  0.1867  1.8737  0.6450
12538TIP3    H259030   6.377   0.621   1.211 -0.7558  0.3218  0.8576
12539TIP3   OH259031   2.309   6.297   0.655  0.2058 -0.5791 -0.3497
12539TIP3    H159032   2.399   6.327   0.656 -0.4005  1.3793  0.6417
12539TIP3    H259033   2.297   6.255   0.741 -0.4139  1.2600  0.5242
12540TIP3   OH259034   5.096   3.600  12.966 -0.3309 -0.3640 -0.3525
12540TIP3    H159035   5.129   3.621  13.054 -2.6464  2.2348  0.0377
12540TIP3    H259036   5.140   3.662  12.909 -1.7770  0.7075 -0.3546
12541TIP3   OH259037   3.304   6.378  12.763 -0.0403 -0.6460 -0.1467
12541TIP3    H159038   3.327   6.306  12.705 -0.3767 -0.3055 -0.7081
12541TIP3    H259039   3.360   6.451  12.735 -0.0916 -0.5262  0.0571
12542TIP3   OH259040   4.869   5.244   3.807 -0.1744  0.2445 -0.1333
12542TIP3    H159041   4.802   5.182   3.779 -0.8965  1.3503 -0.9310
12542TIP3    H259042   4.828   5.293   3.878  0.2745  0.0617  0.2625
12543TIP3   OH259043   1.892   2.007  16.527 -0.4044  0.2123  0.5094
12543TIP3    H159044   1.977   1.976  16.559 -0.9323 -1.3475  0.4887
12543TIP3    H259045   1.830   1.938  16.552 -1.8095  1.6364  1.1448
12544TIP3   OH259046   2.952   4.423  16.318 -0.1624 -0.0009  0.1482
12544TIP3    H159047   2.976   4.376  16.239 -1.3715 -1.4903  0.6048
12544TIP3    H259048   3.035   4.446  16.359  0.4650 -0.5514 -0.7911
12545TIP3   OH259049   4.373   1.105  13.321 -0.5056 -0.1431  0.4523
12545TIP3    H159050   4.427   1.088  13.243  0.1351  1.4357  0.5153
12545TIP3    H259051   4.331   1.189  13.303 -1.4480 -0.4274  1.2439
12546TIP3   OH259052   5.295   2.783  17.333 -0.2155  0.8864  0.2926
12546TIP3    H159053   5.278   2.727  17.409 -0.1538  3.5366  2.3796
12546TIP3    H259054   5.371   2.742  17.291  1.1097  0.4180  2.8924
12547TIP3   OH259055   6.293   0.349   5.727 -0.2616 -0.6362  0.2764
12547TIP3    H159056   6.262   0.278   5.784 -0.8001 -0.7791 -0.1853
12547TIP3    H259057   6.230   0.420   5.742  0.2750 -0.2459  0.7367
12548TIP3   OH259058   5.533   4.651  13.152 -0.2451  0.6957 -0.2430
12548TIP3    H159059   5.460   4.633  13.093 -0.8486  2.3344 -0.0399
12548TIP3    H259060   5.589   4.711  13.103  0.2412  0.5659  0.1469
12549TIP3   OH259061   5.542   1.809  16.074 -0.5221 -0.1311  0.1911
12549TIP3    H159062   5.561   1.828  16.166 -0.9196  1.6163 -0.0550
12549TIP3    H259063   5.551   1.893  16.030  0.4081 -1.0891 -1.5184
12550TIP3   OH259064   1.855   3.505  13.165  0.7366 -0.1664 -0.5100
12550TIP3    H159065   1.779   3.560  13.183  0.6625 -0.3971 -0.0896
12550TIP3    H259066   1.825   3.442  13.099  0.1700 -1.0606  0.5645
12551TIP3   OH259067   5.577   0.551   1.656 -0.0504  0.1674 -0.2169
12551TIP3    H159068   5.609   0.478   1.602 -0.5091 -0.7336  0.6920
12551TIP3    H259069   5.482   0.544   1.653 -0.1641  1.8499 -1.5834
12552TIP3   OH259070   1.323   1.678   6.300  0.9443 -0.2672 -0.0436
12552TIP3    H159071   1.381   1.642   6.368  0.0071 -1.3366  0.2058
12552TIP3    H259072   1.297   1.764   6.334  0.5151 -0.7780  0.9447
12553TIP3   OH259073   1.348   0.079  14.540  0.7774  0.3495 -0.1414
12553TIP3    H159074   1.342   0.005  14.601 -0.2931 -1.2840 -2.0727
12553TIP3    H259075   1.274   0.135  14.563 -0.4157 -0.9305 -0.6929
12554TIP3   OH259076   5.256   1.820   0.746  0.3562 -0.3750  0.0750
12554TIP3    H159077   5.343   1.804   0.708  1.0394  1.5134  0.7085
12554TIP3    H259078   5.275   1.864   0.829 -1.2128 -0.7992  0.6876
12555TIP3   OH259079   6.742   4.063   3.580  0.0605  0.6329 -0.7613
12555TIP3    H159080   6.768   4.038   3.491 -1.4482 -1.0253 -0.7941
12555TIP3    H259081   6.651   4.093   3.571  0.2091  1.3731  0.0882
12556TIP3   OH259082   5.212   1.514  13.102  0.2129 -0.4026  0.0251
12556TIP3    H159083   5.282   1.494  13.165  1.3826 -1.1222 -1.4577
12556TIP3    H259084   5.187   1.604  13.123  0.9764 -0.4226  1.1392
12557TIP3   OH259085   4.871   2.021  12.088 -0.0827 -0.1806 -0.6071
12557TIP3    H159086   4.913   2.106  12.075 -2.0226  0.9688  0.0997
12557TIP3    H259087   4.836   1.998  12.002  0.3961 -0.2533 -0.7875
12558TIP3   OH259088   5.006   3.109  16.610 -0.4759  0.1530 -0.4038
12558TIP3    H159089   5.061   3.103  16.688  0.1694 -0.7507 -0.9100
12558TIP3    H259090   4.997   3.203  16.594 -1.5041  0.3954  1.3535
12559TIP3   OH259091   1.434   3.224   3.223  0.4354  0.1508  0.1223
12559TIP3    H159092   1.357   3.176   3.195 -0.1868  0.8957  0.5189
12559TIP3    H259093   1.404   3.276   3.298  1.4304  0.1082  0.5679
12560TIP3   OH259094   0.961   4.609  10.424  0.1791  0.3983  0.0335
12560TIP3    H159095   0.963   4.513  10.425  0.1299  0.3346 -2.1779
12560TIP3    H259096   0.868   4.631  10.422  0.0743  0.2769 -3.8682
12561TIP3   OH259097   2.003   0.472  13.056 -0.9206 -0.2061  0.4561
12561TIP3    H159098   1.947   0.511  13.123 -1.9296 -1.9997  0.7401
12561TIP3    H259099   2.085   0.454  13.101 -0.1193  2.2542  0.0933
12562TIP3   OH259100   5.968   6.743   1.212 -0.3331 -0.4854  0.6731
12562TIP3    H159101   5.927   6.827   1.191  0.8440 -0.3954 -1.6227
12562TIP3    H259102   5.897   6.679   1.206 -0.6853 -0.0066 -0.5558
12563TIP3   OH259103   0.668   5.472  16.548 -0.3924 -0.5794  0.0316
12563TIP3    H159104   0.642   5.470  16.455 -0.5292  0.1915  0.0409
12563TIP3    H259105   0.616   5.544  16.585  1.3581  0.6787  0.1726
12564TIP3   OH259106   1.228   3.936   1.712 -0.0625 -0.3490 -0.0190
12564TIP3    H159107   1.259   3.891   1.633  1.4751 -0.0288  0.3580
12564TIP3    H259108   1.205   4.024   1.682 -0.5690 -0.5742 -0.3002
12565TIP3   OH259109   5.026   1.982  17.145 -0.5676  0.3492  0.4049
12565TIP3    H159110   5.013   1.954  17.236  0.2917  2.7554  1.3308
12565TIP3    H259111   5.102   2.040  17.148 -0.7057  0.7349 -1.8151
12566TIP3   OH259112   6.714   1.140  11.392 -0.7218  0.3754  0.2645
12566TIP3    H159113   6.621   1.147  11.368 -1.4104 -0.0953  2.5777
12566TIP3    H259114   6.751   1.226  11.370 -1.8495  0.8004 -0.0483
12567TIP3   OH259115   6.631   6.683   5.442 -0.2573  0.3434 -0.0876
12567TIP3    H159116   6.726   6.678   5.429 -0.3487  0.5921 -0.9227
12567TIP3    H259117   6.611   6.777   5.434 -0.4901  0.3746  0.7658
12568TIP3   OH259118   4.359   6.445  14.910  0.5397 -0.4090 -0.1883
12568TIP3    H159119   4.369   6.540  14.896 -0.3495 -0.3422 -0.4336
12568TIP3    H259120   4.276   6.437  14.956  1.7988 -0.8902  2.1133
12569TIP3   OH259121   4.683   6.421   6.785  0.0779 -0.2575 -0.0036
12569TIP3    H159122   4.731   6.349   6.745 -1.8636 -0.7323 -1.6850
12569TIP3    H259123   4.725   6.435   6.869  3.1915 -0.5034 -1.4018
12570TIP3   OH259124   3.347   4.338  14.858  0.0183 -0.1603  0.5628
12570TIP3    H159125   3.284   4.266  14.853  0.4102 -0.4134 -1.7258
12570TIP3    H259126   3.295   4.416  14.838 -0.1961  0.1061  2.0251
12571TIP3   OH259127   0.575   3.769   1.581 -0.2922  0.5841  0.1491
12571TIP3    H159128   0.593   3.813   1.664  1.7063  0.0693  0.0279
12571TIP3    H259129   0.494   3.720   1.598  0.2028  0.2818  1.8966
12572TIP3   OH259130   1.991   2.761  12.810  0.2750 -0.0494  0.2964
12572TIP3    H159131   2.060   2.765  12.743  0.0398 -0.0267  0.0531
12572TIP3    H259132   1.910   2.763  12.760  0.0971 -0.0050  0.5882
12573TIP3   OH259133   3.748   3.106   4.180 -0.0335  0.2128  0.3737
12573TIP3    H159134   3.679   3.123   4.116  0.0378 -0.7264  0.0380
12573TIP3    H259135   3.726   3.021   4.217  0.5382  0.2488  0.8151
12574TIP3   OH259136   1.910   2.465   3.907 -0.3047 -0.3958  0.0903
12574TIP3    H159137   1.872   2.383   3.874  2.7692 -1.6513 -0.7121
12574TIP3    H259138   1.963   2.439   3.982  0.2713  0.9481  0.1858
12575TIP3   OH259139   1.562   4.956  14.578 -0.3102 -0.1946 -0.2548
12575TIP3    H159140   1.636   4.918  14.625  0.6242  1.3844 -0.3855
12575TIP3    H259141   1.601   4.993  14.499 -1.4585 -0.5203 -0.9893
12576TIP3   OH259142   3.263   0.442   4.313  0.0879  0.0674  0.4723
12576TIP3    H159143   3.188   0.501   4.305  0.6650  0.6842 -0.8205
12576TIP3    H259144   3.272   0.427   4.407  0.9256  3.4418  1.0758
12577TIP3   OH259145   6.645   6.437  14.833 -0.3448 -0.1821  0.2805
12577TIP3    H159146   6.659   6.351  14.872  0.1044 -0.2586 -0.0434
12577TIP3    H259147   6.663   6.499  14.904  0.5980 -0.3172  0.1676
12578TIP3   OH259148   0.598   4.428  13.867  0.2720 -0.0340 -0.5432
12578TIP3    H159149   0.611   4.437  13.961  0.6387  0.9698 -0.6720
12578TIP3    H259150   0.540   4.353  13.857  0.0830 -0.0330  0.4899
12579TIP3   OH259151   3.651   5.798   5.636 -0.1101  0.2506 -0.0415
12579TIP3    H159152   3.562   5.765   5.622  0.1660 -0.8822  0.7034
12579TIP3    H259153   3.707   5.730   5.599  0.4573  0.6951  0.0037
12580TIP3   OH259154   5.816   3.591   3.916  0.2442  0.2227 -0.2209
12580TIP3    H159155   5.839   3.502   3.941 -0.5687 -0.3429 -1.4139
12580TIP3    H259156   5.896   3.625   3.875  1.1742  0.7306  1.8793
12581TIP3   OH259157   1.183   5.310   3.687 -0.0427 -0.4293  0.5943
12581TIP3    H159158   1.150   5.227   3.722 -1.5347 -0.1067  0.0625
12581TIP3    H259159   1.134   5.377   3.735  0.8093  0.1405  0.6900
12582TIP3   OH259160   1.621   6.036   5.035  0.0132  0.0345 -0.4833
12582TIP3    H159161   1.533   6.063   5.062 -0.8409 -1.0375 -2.0497
12582TIP3    H259162   1.607   5.962   4.976  1.9116  0.4768 -1.5951
12583TIP3   OH259163   2.155   2.754  13.507 -0.4719 -0.2830  0.6014
12583TIP3    H159164   2.136   2.701  13.429 -1.5527  1.2904 -0.2669
12583TIP3    H259165   2.076   2.746  13.561  0.2682 -1.3529  1.5579
12584TIP3   OH259166   4.774   2.748   5.937  0.2571 -0.0589 -0.5115
12584TIP3    H159167   4.797   2.841   5.941 -0.8136  0.1659  1.3134
12584TIP3    H259168   4.823   2.708   6.009  0.3956 -0.8572 -1.0389
12585TIP3   OH259169   6.605   5.849  16.076  0.4170 -0.3569  0.5669
12585TIP3    H159170   6.510   5.858  16.068  0.2782 -2.3248 -0.6771
12585TIP3    H259171   6.617   5.786  16.147  0.9161  1.1686  1.9083
12586TIP3   OH259172   4.976   5.926   5.234 -0.4459  0.1449  0.2337
12586TIP3    H159173   5.048   5.969   5.188  0.3026  0.7915  1.9126
12586TIP3    H259174   5.010   5.839   5.255 -0.3084  0.2846  0.6102
12587TIP3   OH259175   1.171   6.447   0.767 -0.4376  0.4118  0.2632
12587TIP3    H159176   1.221   6.454   0.686 -0.0818 -0.9091  0.3508
12587TIP3    H259177   1.099   6.388   0.745 -0.4003  0.1350  0.8760
12588TIP3   OH259178   2.030   0.358  13.798  0.2247  0.3563  0.2153
12588TIP3    H159179   1.938   0.349  13.774  0.6931 -1.2306 -1.1619
12588TIP3    H259180   2.049   0.281  13.852  0.8023  0.5103  0.2427
12589TIP3   OH259181   4.284   4.420   1.214 -0.3794 -0.1422  0.1939
12589TIP3    H159182   4.369   4.424   1.171 -0.9683  0.4002 -0.9549
12589TIP3    H259183   4.304   4.425   1.307  0.7839  0.9458 -0.0950
12590TIP3   OH259184   1.536   0.032  15.056 -0.4311 -0.2735 -0.5476
12590TIP3    H159185   1.619   0.057  15.096 -1.3242  0.0108  1.1851
12590TIP3    H259186   1.533   0.081  14.974  0.0514  1.5811  0.4938
12591TIP3   OH259187   0.576   3.089  12.973 -0.3384  0.2630 -0.3446
12591TIP3    H159188   0.624   3.068  12.893 -0.8933  2.3122 -1.2856
12591TIP3    H259189   0.640   3.131  13.030  0.0463 -1.1579  0.3123
12592TIP3   OH259190   6.317   6.278   2.180 -0.2674 -0.1375  0.0674
12592TIP3    H159191   6.223   6.261   2.183 -0.1974 -0.6002 -0.4201
12592TIP3    H259192   6.323   6.373   2.169 -0.7389 -0.3481 -2.8446
12593TIP3   OH259193   6.221   2.962  12.582 -0.1054 -0.0244 -0.2407
12593TIP3    H159194   6.238   3.039  12.528  1.4335  0.3973  0.7511
12593TIP3    H259195   6.222   2.995  12.672 -0.8019 -0.9880  0.1405
12594TIP3   OH259196   4.614   0.761   2.397 -0.3436 -0.5414 -0.2605
12594TIP3    H159197   4.687   0.823   2.389  0.2447 -0.9469  1.4567
12594TIP3    H259198   4.600   0.729   2.308  1.0345  0.1582 -0.7651
12595TIP3   OH259199   4.704   5.754   3.041  0.2907  0.0221  0.1614
12595TIP3    H159200   4.629   5.703   3.010  0.2451  0.2675 -0.1290
12595TIP3    H259201   4.665   5.833   3.080  0.2628 -0.7983  1.9106
12596TIP3   OH259202   3.274   0.581   1.694 -0.2377  0.2286 -0.3540
12596TIP3    H159203   3.292   0.644   1.763  0.4800  0.1186 -0.4396
12596TIP3    H259204   3.205   0.621   1.642 -0.0076  0.7973 -0.2206
12597TIP3   OH259205   2.269   4.896  11.437  0.0751  0.0449 -0.0037
12597TIP3    H159206   2.258   4.990  11.449 -0.3429  0.0400 -0.3373
12597TIP3    H259207   2.277   4.885  11.342  2.1926 -0.0349  0.1237
12598TIP3   OH259208   6.345   5.552  13.216 -0.0062 -0.0524 -0.7454
12598TIP3    H159209   6.366   5.484  13.280  0.8759 -1.0555 -2.0383
12598TIP3    H259210   6.276   5.514  13.162  0.2686  0.1978 -1.2798
12599TIP3   OH259211   4.276   0.360  13.506  0.2114  0.0538 -0.0942
12599TIP3    H159212   4.219   0.425  13.465  1.6352  1.5858  0.2461
12599TIP3    H259213   4.363   0.380  13.472  0.9503 -0.5739  1.3446
12600TIP3   OH259214   6.131   2.086   4.883  0.5885 -0.7173 -0.7151
12600TIP3    H159215   6.208   2.030   4.874  1.5023  0.4313 -0.2643
12600TIP3    H259216   6.167   2.174   4.895 -0.7401 -0.4381  1.6455
12601TIP3   OH259217   2.528   1.077  15.951 -0.4857  0.0072 -0.1308
12601TIP3    H159218   2.474   1.139  15.900  2.1716  0.4641 -2.6982
12601TIP3    H259219   2.533   0.999  15.896  0.2260 -0.5990  0.7640
12602TIP3   OH259220   3.912   4.951   2.670 -0.4577  0.1394  0.1048
12602TIP3    H159221   4.006   4.967   2.671 -0.0120 -2.0523 -0.7221
12602TIP3    H259222   3.889   4.944   2.763 -0.0097  1.5358  0.3479
12603TIP3   OH259223   4.709   3.766   6.222  0.5561 -0.0569  0.6279
12603TIP3    H159224   4.746   3.852   6.243  1.3250 -0.7267  2.1644
12603TIP3    H259225   4.683   3.730   6.307 -1.8645 -0.4310 -0.2086
12604TIP3   OH259226   1.030   5.006  16.913 -0.2600  0.2293 -0.2525
12604TIP3    H159227   0.978   5.082  16.938 -0.1841  0.4196 -0.6565
12604TIP3    H259228   1.084   4.987  16.989 -0.7709  0.1613  0.0954
12605TIP3   OH259229   0.356   4.199   2.396 -0.0450 -0.2648  0.0816
12605TIP3    H159230   0.446   4.165   2.390  0.0406  0.1016 -0.9011
12605TIP3    H259231   0.301   4.120   2.395  0.1665 -0.4546 -1.9203
12606TIP3   OH259232   6.234   5.145   3.881  0.2589  0.3895  0.0579
12606TIP3    H159233   6.175   5.128   3.954  0.5150 -2.8192 -0.3318
12606TIP3    H259234   6.314   5.178   3.922 -0.4625  1.0633  0.9555
12607TIP3   OH259235   4.130   5.605   3.048  0.2371  0.0894 -0.0842
12607TIP3    H159236   4.157   5.515   3.063 -3.5720 -1.0573  1.1417
12607TIP3    H259237   4.099   5.607   2.958  0.7609  0.3472 -0.2652
12608TIP3   OH259238   1.543   0.848  12.107 -0.4348  0.5992 -0.4626
12608TIP3    H159239   1.626   0.827  12.064 -0.8151  1.0045 -1.4403
12608TIP3    H259240   1.513   0.927  12.061 -0.1419  1.9724  1.5533
12609TIP3   OH259241   3.663   4.634   0.619 -0.3238  0.1976  0.3062
12609TIP3    H159242   3.752   4.614   0.648 -0.4168 -0.3241  0.2409
12609TIP3    H259243   3.615   4.551   0.629 -0.0807 -0.3512 -2.3825
12610TIP3   OH259244   0.922   3.619  16.208 -0.5805 -0.8429  0.3274
12610TIP3    H159245   0.899   3.708  16.235  1.5250  0.8478 -2.7785
12610TIP3    H259246   1.004   3.601  16.255 -0.3934 -0.6404  0.0823
12611TIP3   OH259247   6.548   1.293   4.625 -0.6069 -0.5034  0.6809
12611TIP3    H159248   6.642   1.294   4.642  0.3117 -1.3791 -3.3159
12611TIP3    H259249   6.524   1.385   4.617  0.7422 -0.2533 -1.4449
12612TIP3   OH259250   4.811   1.090  17.150  0.8944 -0.6507  0.3240
12612TIP3    H159251   4.875   1.042  17.097  0.3252 -0.5908 -0.4310
12612TIP3    H259252   4.741   1.114  17.088 -0.1911 -1.3063  1.2466
12613TIP3   OH259253   2.403   1.637   3.267  0.2731 -0.2882  0.1322
12613TIP3    H159254   2.348   1.659   3.341  0.5768 -0.0128  0.2756
12613TIP3    H259255   2.465   1.572   3.301  0.4901 -0.0726  0.1536
12614TIP3   OH259256   0.755   6.710   5.761 -0.2804 -0.5531  0.2639
12614TIP3    H159257   0.810   6.709   5.683 -1.0244  3.8938 -0.6111
12614TIP3    H259258   0.665   6.707   5.728 -0.6108 -0.8996  1.1389
12615TIP3   OH259259   4.577   3.902   5.281  0.1530 -0.3136  0.2940
12615TIP3    H159260   4.586   3.821   5.332 -1.6786 -0.3128  0.6833
12615TIP3    H259261   4.563   3.872   5.192 -1.1652 -0.4883  0.5352
12616TIP3   OH259262   6.143   5.717  13.554  0.0919  0.8140  0.1517
12616TIP3    H159263   6.109   5.666  13.480  0.5024  1.4820 -0.4969
12616TIP3    H259264   6.128   5.808  13.530  0.8093  1.0578  0.6120
12617TIP3   OH259265   5.110   5.581  11.178  0.7223  0.5684 -1.1933
12617TIP3    H159266   5.053   5.584  11.255 -0.2379  1.1162 -1.9045
12617TIP3    H259267   5.182   5.641  11.200  0.5454  0.5939 -0.6603
12618TIP3   OH259268   5.812   1.152   1.213  0.2649  0.0200 -0.1900
12618TIP3    H159269   5.851   1.147   1.300  0.3425  0.7604 -0.1798
12618TIP3    H259270   5.842   1.236   1.178 -1.4721  0.7093 -0.1149
12619TIP3   OH259271   1.227   5.292  17.250 -0.3259  0.2515  0.1661
12619TIP3    H159272   1.287   5.363  17.270 -0.3107  0.5486 -0.8657
12619TIP3    H259273   1.175   5.324  17.176 -0.2783 -0.8171 -0.3636
12620TIP3   OH259274   2.025   2.040  13.527  0.5094  0.6976  0.0932
12620TIP3    H159275   2.104   2.094  13.525  0.5135  0.7138 -1.6837
12620TIP3    H259276   1.968   2.078  13.459 -0.2069 -0.4658  0.0044
12621TIP3   OH259277   4.472   1.803  15.000 -0.0639 -0.1321  0.2401
12621TIP3    H159278   4.460   1.895  15.023  1.5270  0.1286  0.1771
12621TIP3    H259279   4.532   1.770  15.067  0.5057 -0.7392 -0.5532
12622TIP3   OH259280   6.710   3.042  13.337  0.3560 -0.2348 -0.2462
12622TIP3    H159281   6.751   3.052  13.423  0.4838 -0.6271 -0.2571
12622TIP3    H259282   6.784   3.035  13.276  0.2669 -0.1176 -0.3668
12623TIP3   OH259283   4.531   4.036  12.027 -0.2076 -0.0405  0.4100
12623TIP3    H159284   4.618   4.072  12.048 -0.4843 -0.2973  2.1574
12623TIP3    H259285   4.532   4.025  11.932  1.4810  0.4636  0.3328
12624TIP3   OH259286   0.992   1.062  17.393  0.2116 -0.8434 -0.4215
12624TIP3    H159287   1.076   1.091  17.358 -0.6369  0.6182 -1.3898
12624TIP3    H259288   0.929   1.125  17.358 -1.1618 -1.3174  1.0700
12625TIP3   OH259289   2.136   2.823   0.740 -0.0160  0.2551  0.0795
12625TIP3    H159290   2.122   2.772   0.819 -0.0294  0.4392  0.1972
12625TIP3    H259291   2.094   2.907   0.758 -0.4440  0.1299 -0.3056
12626TIP3   OH259292   2.134   6.704   3.314 -0.0514  0.0426  0.0454
12626TIP3    H159293   2.229   6.711   3.322  0.3274  0.2589 -3.2607
12626TIP3    H259294   2.105   6.793   3.296 -0.8735 -0.0496  0.8533
12627TIP3   OH259295   4.538   5.470   5.409 -0.3168 -0.1436  0.1242
12627TIP3    H159296   4.524   5.558   5.444 -2.0586 -0.3333  0.0167
12627TIP3    H259297   4.616   5.477   5.355 -0.3922  1.3229  0.1732
12628TIP3   OH259298   3.894   6.178  12.633  0.0368 -0.5813 -0.1481
12628TIP3    H159299   3.891   6.142  12.544 -1.7525 -0.0575 -0.3249
12628TIP3    H259300   3.872   6.104  12.690 -1.0635 -0.4021 -0.3232
12629TIP3   OH259301   2.052   3.423   1.312  0.8431 -0.0766  0.1991
12629TIP3    H159302   2.071   3.358   1.245 -1.3983 -1.6569  0.9763
12629TIP3    H259303   2.079   3.506   1.273  2.6226 -1.2869 -1.3195
12630TIP3   OH259304   0.121   1.167  11.852  0.2155 -0.1574  0.9717
12630TIP3    H159305   0.160   1.107  11.916 -2.1075 -1.8514  0.9102
12630TIP3    H259306   0.101   1.112  11.776 -2.3869  0.5242  1.0880
12631TIP3   OH259307   4.339   4.711   5.833  0.5700  0.0901 -0.1428
12631TIP3    H159308   4.415   4.653   5.828  1.8473  1.6449  0.5338
12631TIP3    H259309   4.335   4.737   5.925 -0.0493  0.9757 -0.4072
12632TIP3   OH259310   0.749   0.432  16.695 -0.0220  0.7725  0.0090
12632TIP3    H159311   0.813   0.477  16.640  0.2965  1.3042  0.8008
12632TIP3    H259312   0.769   0.460  16.784 -0.9131  0.3974  0.3463
12633TIP3   OH259313   6.323   1.665   4.916  0.1719 -0.1587  0.4985
12633TIP3    H159314   6.235   1.638   4.892 -1.0433  2.1528  1.9251
12633TIP3    H259315   6.380   1.596   4.883 -2.2191 -2.0907  0.1503
12634TIP3   OH259316   1.233   0.202   1.469 -0.0473 -0.4622  0.7510
12634TIP3    H159317   1.169   0.234   1.405  0.3496 -3.3795 -1.3324
12634TIP3    H259318   1.258   0.280   1.518 -2.3448  1.4925 -0.8803
12635TIP3   OH259319   2.013   3.578  16.903  0.2178  0.2539  0.1378
12635TIP3    H159320   2.107   3.572  16.921  0.5290  1.7469 -0.8795
12635TIP3    H259321   2.006   3.579  16.808 -0.6911  1.6903  0.1869
12636TIP3   OH259322   3.244   1.948   5.501  0.3129 -0.8814  0.3700
12636TIP3    H159323   3.266   2.012   5.568 -0.2383 -0.9179  0.5884
12636TIP3    H259324   3.284   1.866   5.532  0.1624 -0.8710  0.5906
12637TIP3   OH259325   4.388   0.045   3.489  0.1343 -0.0655 -0.0227
12637TIP3    H159326   4.428  -0.022   3.433  0.7727  0.2045  0.1027
12637TIP3    H259327   4.378   0.121   3.431 -0.7980 -0.3318 -0.2265
12638TIP3   OH259328   3.579   5.534  11.967  0.2241  0.6123 -0.2126
12638TIP3    H159329   3.540   5.593  12.031  2.0429  0.8152  0.7717
12638TIP3    H259330   3.611   5.591  11.898 -0.4698  0.5147 -0.6236
12639TIP3   OH259331   0.658   3.163   0.389 -0.6368 -0.3877 -0.2181
12639TIP3    H159332   0.580   3.112   0.409 -0.6988  0.5771  2.4686
12639TIP3    H259333   0.625   3.249   0.363 -0.5567  0.4334  2.1718
12640TIP3   OH259334   1.342   5.469   0.923  0.1676 -0.5292  0.5068
12640TIP3    H159335   1.374   5.434   0.839 -0.7780 -0.8258  0.2654
12640TIP3    H259336   1.387   5.416   0.989  0.4056 -0.7467  0.1770
12641TIP3   OH259337   0.745   2.267   5.310  0.6517  0.6517  0.0196
12641TIP3    H159338   0.725   2.284   5.218  2.1469 -0.9005 -0.6330
12641TIP3    H259339   0.834   2.233   5.310 -0.5767 -3.1521  1.5533
12642TIP3   OH259340   5.344   0.706   3.805 -0.4959 -0.1575  0.4060
12642TIP3    H159341   5.375   0.686   3.893  2.6681  0.3362 -0.4591
12642TIP3    H259342   5.338   0.621   3.761  0.7985 -0.2286  0.3149
12643TIP3   OH259343   4.182   1.756  15.612  0.0428  0.1134 -0.2285
12643TIP3    H159344   4.219   1.669  15.597  0.2205  0.1971 -0.2756
12643TIP3    H259345   4.147   1.783  15.527 -0.3203 -0.0551 -0.1359
12644TIP3   OH259346   4.342   5.735   5.749 -0.1483  0.1171 -0.1518
12644TIP3    H159347   4.277   5.673   5.780 -0.7337  0.0771 -1.4074
12644TIP3    H259348   4.420   5.716   5.800 -0.1039 -2.1145 -0.9438
12645TIP3   OH259349   1.759   2.573   1.646  0.2996 -0.1755 -0.2427
12645TIP3    H159350   1.787   2.530   1.726 -0.4797 -0.8427 -0.3168
12645TIP3    H259351   1.664   2.568   1.647  0.2482  0.3718 -0.9047
12646TIP3   OH259352   1.170   6.417   1.305  0.1496  0.8779 -0.0891
12646TIP3    H159353   1.204   6.486   1.362 -0.9442  1.1803  0.2217
12646TIP3    H259354   1.089   6.388   1.347  0.3445 -0.2747 -0.4650
12647TIP3   OH259355   0.309   3.700   2.981 -0.0182 -0.0776 -0.1011
12647TIP3    H159356   0.246   3.727   2.914  0.1860  1.1100  0.1550
12647TIP3    H259357   0.326   3.608   2.962 -0.2494  0.1276 -1.4535
12648TIP3   OH259358   0.262   4.024   2.031 -0.5805 -0.1334 -0.3691
12648TIP3    H159359   0.185   4.077   2.052  0.0516  0.7547 -0.1912
12648TIP3    H259360   0.264   4.020   1.935 -0.7641 -0.0379 -0.3767
12649TIP3   OH259361   4.005   6.476   4.291 -0.5691 -0.3302  0.5294
12649TIP3    H159362   4.082   6.532   4.302 -0.8357  0.3165 -0.6862
12649TIP3    H259363   3.931   6.535   4.305 -0.8517 -0.8674  1.3448
12650TIP3   OH259364   3.977   0.819  11.906  1.3185 -0.5024  0.4093
12650TIP3    H159365   3.995   0.728  11.882  0.9368 -0.4463 -0.1196
12650TIP3    H259366   3.953   0.816  11.998 -2.2054 -1.4531 -0.4001
12651TIP3   OH259367   2.890   6.302  14.401  0.6770 -0.6616 -0.0316
12651TIP3    H159368   2.920   6.230  14.346 -0.7015 -0.4388 -1.1318
12651TIP3    H259369   2.795   6.290  14.407  0.5017  0.6908  0.2942
12652TIP3   OH259370   6.519   5.757   4.607  0.3204  0.4775 -0.5375
12652TIP3    H159371   6.574   5.689   4.568  1.0350 -1.6435  3.6281
12652TIP3    H259372   6.580   5.826   4.632  0.0251  1.2935 -1.9713
12653TIP3   OH259373   5.846   2.546   3.479  0.0561  0.5036 -0.6286
12653TIP3    H159374   5.804   2.469   3.441 -1.2969  1.6920 -1.6608
12653TIP3    H259375   5.917   2.511   3.531 -0.2443 -1.4198 -1.4206
12654TIP3   OH259376   6.734   1.543  15.583 -0.7229  1.0955  0.1560
12654TIP3    H159377   6.668   1.549  15.652 -1.2483  0.9146 -0.3165
12654TIP3    H259378   6.730   1.629  15.539 -0.9582  0.9305 -0.1493
12655TIP3   OH259379   5.545   3.883  16.710  0.0352 -0.4918  0.3783
12655TIP3    H159380   5.464   3.879  16.659 -1.2433 -0.1784  2.2722
12655TIP3    H259381   5.614   3.861  16.647 -1.3410  0.6780 -1.6568
12656TIP3   OH259382   1.316   5.790   4.612 -0.0703  0.2069  0.7278
12656TIP3    H159383   1.409   5.803   4.629 -0.0264  0.1095  0.5645
12656TIP3    H259384   1.313   5.736   4.533 -0.2932  2.0979 -0.6001
12657TIP3   OH259385   1.103   0.003   4.491  0.3614  0.0436  0.6254
12657TIP3    H159386   1.028  -0.020   4.547 -2.0924  1.1570 -1.9929
12657TIP3    H259387   1.100  -0.061   4.420  1.8994  0.1579  0.4325
12658TIP3   OH259388   6.747   1.584   1.446 -0.5460  0.3787  0.9228
12658TIP3    H159389   6.790   1.652   1.395 -1.7554  0.2693 -0.3113
12658TIP3    H259390   6.815   1.519   1.463 -0.4173 -0.4482 -2.1213
12659TIP3   OH259391   5.898   0.763   1.994 -0.3890  0.1098  0.7143
12659TIP3    H159392   5.939   0.764   1.908 -1.0933  0.5312  0.3777
12659TIP3    H259393   5.935   0.685   2.037 -0.3530 -0.3502 -0.1262
12660TIP3   OH259394   0.376   4.416  15.376 -0.2387 -0.5922 -0.0047
12660TIP3    H159395   0.369   4.423  15.281  2.5947 -1.3276 -0.3467
12660TIP3    H259396   0.372   4.507  15.407 -1.0878 -0.3399 -0.8185
12661TIP3   OH259397   6.495   4.830  13.074  0.4419 -0.1311  0.0527
12661TIP3    H159398   6.570   4.780  13.107  2.5263  2.1880 -0.8328
12661TIP3    H259399   6.487   4.802  12.983 -0.3854 -1.0147  0.3820
12662TIP3   OH259400   2.161   2.887   2.073 -0.2348  0.3205 -0.1982
12662TIP3    H159401   2.110   2.879   2.154  1.4512 -2.1050  0.7622
12662TIP3    H259402   2.239   2.935   2.099 -0.0157  0.1668 -0.5683
12663TIP3   OH259403   0.516   6.198  12.265 -0.3002  0.2345  0.4316
12663TIP3    H159404   0.570   6.276  12.256 -0.6639  0.7914  2.5518
12663TIP3    H259405   0.564   6.142  12.326  0.3552 -1.6337 -1.6672
12664TIP3   OH259406   2.073   5.833   0.861 -0.1026  0.1087  0.0363
12664TIP3    H159407   2.049   5.820   0.769  0.0887 -3.2664  0.3221
12664TIP3    H259408   2.166   5.854   0.859 -0.3694  1.3442 -0.5451
12665TIP3   OH259409   3.706   1.563  12.189  0.4692 -0.1004 -0.4985
12665TIP3    H159410   3.661   1.510  12.254  2.0261 -0.0995  0.6473
12665TIP3    H259411   3.790   1.519  12.176 -0.2988 -0.8646 -3.5809
12666TIP3   OH259412   1.217   3.599  11.144 -0.2800  0.2344 -0.1012
12666TIP3    H159413   1.187   3.649  11.069 -0.5888  0.4069  0.1359
12666TIP3    H259414   1.285   3.541  11.109 -1.9950 -1.3427 -0.9754
12667TIP3   OH259415   3.850   5.467  11.993  0.0900 -0.2495  0.5016
12667TIP3    H159416   3.760   5.489  11.967 -0.2326 -0.1541  1.6419
12667TIP3    H259417   3.889   5.552  12.014  0.1133 -0.3826  1.0080
12668TIP3   OH259418   6.445   4.091  11.745 -0.5392  0.0810  0.0273
12668TIP3    H159419   6.411   4.149  11.813 -1.7810 -0.4561 -0.1028
12668TIP3    H259420   6.367   4.059  11.700  0.2410  0.1272 -1.4159
12669TIP3   OH259421   5.250   6.337  12.499 -0.1539  0.1107  0.0961
12669TIP3    H159422   5.278   6.249  12.472  0.9561  0.3584  0.4049
12669TIP3    H259423   5.156   6.328  12.515 -0.2568 -0.7628 -0.9119
12670TIP3   OH259424   5.162   3.158   5.372  0.2934 -0.2866  0.3454
12670TIP3    H159425   5.099   3.193   5.309 -1.4789 -0.0676  2.1611
12670TIP3    H259426   5.189   3.234   5.423 -1.0426 -0.9719  2.1530
12671TIP3   OH259427   6.227   4.153   3.986  0.4401 -0.2776  0.0171
12671TIP3    H159428   6.143   4.171   3.944  0.1918 -1.0873  0.1621
12671TIP3    H259429   6.290   4.209   3.939 -0.0472 -0.2210 -0.5731
12672TIP3   OH259430   1.337   0.856  17.255 -0.4709 -0.2975 -0.4770
12672TIP3    H159431   1.302   0.889  17.172 -3.0382  0.0937  0.6682
12672TIP3    H259432   1.270   0.795  17.287  0.7940 -1.0094  0.9774
12673TIP3   OH259433   2.390   5.815  15.620 -0.2666  0.1968  0.3451
12673TIP3    H159434   2.458   5.876  15.651  1.7419 -1.7502  0.0330
12673TIP3    H259435   2.433   5.730  15.619 -2.6292 -1.0694 -0.3400
12674TIP3   OH259436   2.952   2.048   6.612  0.3269  0.2293 -0.3699
12674TIP3    H159437   2.914   1.988   6.548  0.4403 -0.9622  0.6590
12674TIP3    H259438   3.033   2.079   6.571  1.4119 -2.0284 -0.0474
12675TIP3   OH259439   4.139   5.522  12.172  1.0049 -0.5439 -0.1488
12675TIP3    H159440   4.103   5.438  12.142  1.6114 -0.5115 -1.0091
12675TIP3    H259441   4.135   5.578  12.095 -0.5853  0.6417  0.7492
12676TIP3   OH259442   1.572   5.440   1.257 -0.2975 -0.1428 -0.8446
12676TIP3    H159443   1.501   5.500   1.235  1.2091  1.5657 -1.3121
12676TIP3    H259444   1.537   5.353   1.238 -3.8520  0.0767  3.1781
12677TIP3   OH259445   4.469   2.877  11.582 -0.4412 -0.2260  0.4852
12677TIP3    H159446   4.375   2.856  11.583 -0.3704 -1.2183 -2.6808
12677TIP3    H259447   4.477   2.947  11.517  1.1464 -1.4113 -0.6896
12678TIP3   OH259448   1.970   5.214   7.002 -0.2989  0.3303  0.4429
12678TIP3    H159449   2.039   5.228   6.937 -0.1853  2.3950  0.9374
12678TIP3    H259450   1.894   5.260   6.966 -0.7374  0.0448  0.9909
12679TIP3   OH259451   3.381   1.955  14.290 -0.4471 -0.0404  0.0222
12679TIP3    H159452   3.367   2.035  14.341 -2.5015 -0.9076  0.8973
12679TIP3    H259453   3.296   1.913  14.287  0.4273 -1.8418 -1.0793
12680TIP3   OH259454   1.429   6.010   4.784 -0.2337  0.3650  0.2683
12680TIP3    H159455   1.364   6.051   4.841 -1.9145 -1.3185 -0.3100
12680TIP3    H259456   1.424   6.061   4.703 -0.1419  0.8090  0.5353
12681TIP3   OH259457   5.226   2.148  12.591  0.7782 -0.2606 -0.1077
12681TIP3    H159458   5.271   2.139  12.675 -0.7955  0.5893  0.8853
12681TIP3    H259459   5.292   2.127  12.526  2.3781  0.1987  1.2901
12682TIP3   OH259460   4.277   2.320  12.163  0.1685  0.5495 -0.2887
12682TIP3    H159461   4.207   2.259  12.140  1.2161 -0.1893 -1.7047
12682TIP3    H259462   4.290   2.309  12.257  0.1979 -1.2979 -0.4870
12683TIP3   OH259463   6.234   3.126  14.107  0.2599  0.1880  0.2957
12683TIP3    H159464   6.300   3.194  14.119 -0.2924  0.4121  2.4461
12683TIP3    H259465   6.278   3.044  14.130  0.5646 -0.0705 -1.0857
12684TIP3   OH259466   5.413   4.327  11.165 -0.1009  0.2301  0.0319
12684TIP3    H159467   5.420   4.378  11.084 -0.9564 -1.3900 -1.1242
12684TIP3    H259468   5.448   4.241  11.142  0.0140 -0.1442  1.5206
12685TIP3   OH259469   5.885   3.822  13.499 -0.1986  0.5312 -0.1192
12685TIP3    H159470   5.848   3.785  13.419  2.4036  1.8440 -2.0372
12685TIP3    H259471   5.858   3.914  13.498 -0.0129  0.5978  0.4546
12686TIP3   OH259472   5.013   3.534  12.691  0.2461  0.0442 -0.3421
12686TIP3    H159473   4.968   3.450  12.697  0.0482  0.1892  0.2891
12686TIP3    H259474   5.050   3.548  12.778 -0.6140  1.0929 -0.1247
12687TIP3   OH259475   5.257   4.776  14.345  0.3428  0.3589 -0.7085
12687TIP3    H159476   5.303   4.725  14.278 -3.5921 -4.0062 -0.5702
12687TIP3    H259477   5.277   4.730  14.427  1.2697  2.7437  0.4980
12688TIP3   OH259478   2.928   4.681   5.240 -0.3881  0.4532 -0.2209
12688TIP3    H159479   2.929   4.739   5.316 -0.9332  0.9119 -0.5602
12688TIP3    H259480   3.020   4.675   5.213 -0.5662  3.4654 -1.9211
12689TIP3   OH259481   2.132   6.620   6.034  0.3422 -0.0991  0.1714
12689TIP3    H159482   2.147   6.620   6.128  1.2584 -0.5238  0.0429
12689TIP3    H259483   2.206   6.670   5.998 -0.4216  0.7287 -0.2659
12690TIP3   OH259484   0.379   5.700  17.318 -0.1042 -0.2358  0.2430
12690TIP3    H159485   0.454   5.752  17.347  0.8687 -1.6703  0.4431
12690TIP3    H259486   0.399   5.675  17.228 -1.4120  1.1767 -0.4887
12691TIP3   OH259487   2.693   1.276   1.029  0.2243 -0.6775  0.1175
12691TIP3    H159488   2.782   1.311   1.025  0.0116 -0.2035 -1.6285
12691TIP3    H259489   2.656   1.296   0.943 -1.0635 -2.2306  0.2557
12692TIP3   OH259490   5.639   4.696   3.948  0.2616  0.1907  0.7160
12692TIP3    H159491   5.659   4.603   3.939  0.3742  0.1983  0.8670
12692TIP3    H259492   5.703   4.740   3.893  0.3808  0.1910  0.8519
12693TIP3   OH259493   6.755   1.025  14.044  0.0511  0.3471  0.3668
12693TIP3    H159494   6.753   1.107  14.092 -0.7732  0.1255  0.7250
12693TIP3    H259495   6.820   0.972  14.091 -0.7012  0.1551  1.2279
12694TIP3   OH259496   5.381   4.190   4.824  0.3075  0.4046  0.2878
12694TIP3    H159497   5.401   4.282   4.808  0.2393  0.6166  1.3451
12694TIP3    H259498   5.460   4.144   4.796 -0.9125  0.3517 -3.7419
12695TIP3   OH259499   4.012   3.844   6.861  0.7404 -0.2348 -0.1434
12695TIP3    H159500   4.088   3.834   6.803  0.8181 -1.1634  0.0978
12695TIP3    H259501   3.974   3.756   6.866 -1.0827  0.4484 -1.2201
12696TIP3   OH259502   1.115   4.543   1.912 -0.5481  0.2422 -0.0903
12696TIP3    H159503   1.078   4.574   1.995 -0.5621 -0.3752  0.1418
12696TIP3    H259504   1.210   4.549   1.923 -0.4931 -1.3032  0.5756
12697TIP3   OH259505   6.408   6.691  15.409 -0.4479  0.0353  0.5429
12697TIP3    H159506   6.479   6.630  15.390 -0.5801 -0.7587  2.3834
12697TIP3    H259507   6.451   6.775  15.424 -0.2307  0.3528 -1.6279
12698TIP3   OH259508   3.606   4.175   4.401  0.2405 -0.4003 -0.0765
12698TIP3    H159509   3.561   4.188   4.484  1.1203  0.2495  0.3158
12698TIP3    H259510   3.575   4.246   4.345 -1.0614 -1.3689 -0.6471
12699TIP3   OH259511   5.824   3.426   5.209  0.2172  0.6010  0.3694
12699TIP3    H159512   5.901   3.482   5.200 -0.3472  1.1735 -1.2687
12699TIP3    H259513   5.758   3.466   5.153 -1.0196 -0.3365  1.0924
12700TIP3   OH259514   6.582   1.944  11.041 -0.2140  0.3154  0.0124
12700TIP3    H159515   6.671   1.952  11.006 -0.0708  1.1956  0.5515
12700TIP3    H259516   6.579   1.855  11.076  0.8759  0.6563  1.0586
12701TIP3   OH259517   1.761   6.665   0.869  0.1242 -0.1191 -0.0656
12701TIP3    H159518   1.739   6.639   0.779 -2.4742  0.0010  0.4732
12701TIP3    H259519   1.832   6.606   0.893  0.1604 -0.8792 -1.8335
12702TIP3   OH259520   4.458   0.942   1.145  0.1254 -0.1047  0.6321
12702TIP3    H159521   4.525   0.950   1.213 -0.1079 -0.2030  0.8763
12702TIP3    H259522   4.507   0.922   1.066  0.3109 -1.2762  1.0213
12703TIP3   OH259523   0.625   2.423   0.159 -0.5020  0.8615 -0.5635
12703TIP3    H159524   0.592   2.349   0.211 -0.1778  0.2587 -1.2020
12703TIP3    H259525   0.558   2.490   0.169 -0.3058  0.8863  0.9015
12704TIP3   OH259526   1.169   2.900   1.294  0.0795 -0.0767 -0.1228
12704TIP3    H159527   1.172   2.809   1.323 -0.6115 -0.1160 -0.1705
12704TIP3    H259528   1.121   2.946   1.363 -1.6876 -0.1882 -1.2294
12705TIP3   OH259529   5.537   5.426  13.699 -0.1794  0.1925 -0.1382
12705TIP3    H159530   5.579   5.476  13.769  1.0086 -0.5868 -0.2657
12705TIP3    H259531   5.467   5.378  13.744  0.6974 -0.4540  0.5777
12706TIP3   OH259532   4.538   2.215   3.869 -0.4523 -0.2862  0.3912
12706TIP3    H159533   4.482   2.165   3.929 -1.7639  1.6679  0.8766
12706TIP3    H259534   4.497   2.301   3.864  2.1890  1.0573  0.2775
12707TIP3   OH259535   5.138   2.111  15.632 -0.0118 -0.2411 -0.4396
12707TIP3    H159536   5.178   2.074  15.711 -0.7743  0.7328  0.4210
12707TIP3    H259537   5.200   2.177  15.603  0.5737 -1.0343 -1.0440
12708TIP3   OH259538   4.970   6.164  15.637 -0.3248 -0.3896  0.3924
12708TIP3    H159539   5.025   6.095  15.675  1.0003 -0.1043 -0.9244
12708TIP3    H259540   5.010   6.246  15.668 -0.7213 -0.1912  0.3787
12709TIP3   OH259541   2.256   3.477   3.135 -0.3235 -0.3207 -0.1222
12709TIP3    H159542   2.197   3.534   3.086  0.3549 -0.3887 -1.0681
12709TIP3    H259543   2.305   3.536   3.192 -2.1623 -0.4044  1.6651
12710TIP3   OH259544   6.262   0.969  16.974 -0.6086 -0.4918  0.2113
12710TIP3    H159545   6.346   0.924  16.978  0.8751  2.1765  0.8784
12710TIP3    H259546   6.247   0.984  16.881  0.3835  0.2862  0.1709
12711TIP3   OH259547   3.664   4.571  12.630  0.5404 -0.0159  0.0089
12711TIP3    H159548   3.753   4.602  12.646  0.0130  1.1671  0.8500
12711TIP3    H259549   3.660   4.559  12.535  2.4706 -3.0579  0.1951
12712TIP3   OH259550   5.502   5.653   3.929  0.6397 -0.0101  0.0687
12712TIP3    H159551   5.525   5.602   4.007 -1.7888 -0.0514  0.8372
12712TIP3    H259552   5.495   5.743   3.960  0.2540  0.0662 -0.2331
12713TIP3   OH259553   4.850   2.397   2.667 -0.3450 -0.2145  0.1412
12713TIP3    H159554   4.871   2.484   2.633 -0.8280 -1.1787 -2.9157
12713TIP3    H259555   4.834   2.411   2.760 -0.6666  2.9973 -0.2850
12714TIP3   OH259556   5.438   1.206   0.909 -0.4589  0.1861  0.5581
12714TIP3    H159557   5.373   1.248   0.965  0.4837  0.9640  1.0955
12714TIP3    H259558   5.503   1.170   0.970  0.0790  0.2030  0.0088
12715TIP3   OH259559   6.270   2.123   1.219 -0.2326 -0.1493  0.0664
12715TIP3    H159560   6.323   2.191   1.262 -1.4177  0.5498  0.4665
12715TIP3    H259561   6.180   2.152   1.231 -0.6540 -0.4043 -2.1067
12716TIP3   OH259562   1.029   1.815   3.935  0.0765 -0.2601 -0.2937
12716TIP3    H159563   0.959   1.753   3.954 -1.1483  0.6543 -1.6387
12716TIP3    H259564   0.994   1.900   3.959  1.3284  0.0728  0.4732
12717TIP3   OH259565   4.173   0.741   4.747  0.1505 -0.2101 -0.1576
12717TIP3    H159566   4.198   0.685   4.674  1.0891  0.9234 -0.7547
12717TIP3    H259567   4.255   0.781   4.776 -0.3992  0.3937  0.6208
12718TIP3   OH259568   1.615   6.442  15.505  0.4773  0.7313  0.1154
12718TIP3    H159569   1.525   6.449  15.537  0.6142  1.3817  0.3661
12718TIP3    H259570   1.613   6.366  15.447 -0.2819  0.8622 -0.0478
12719TIP3   OH259571   3.724   6.333   2.123  0.1104 -0.1260  0.2159
12719TIP3    H159572   3.727   6.317   2.029 -2.0253 -0.1399  0.0818
12719TIP3    H259573   3.764   6.255   2.162  0.0218 -0.6350 -0.6669
12720TIP3   OH259574   2.162   2.293  13.884  0.0327 -0.2078 -0.1947
12720TIP3    H159575   2.093   2.321  13.824  0.5302  1.3838 -0.0780
12720TIP3    H259576   2.119   2.286  13.969  0.1032  1.3351 -0.0100
12721TIP3   OH259577   5.100   2.692   5.010 -0.5641  0.1959 -0.6276
12721TIP3    H159578   5.074   2.777   4.975  0.2828  0.3043 -1.0091
12721TIP3    H259579   5.196   2.693   5.007 -0.4269  0.2604  1.7982
12722TIP3   OH259580   1.947   4.594  15.633 -0.1663  0.1371 -0.4224
12722TIP3    H159581   1.883   4.622  15.698  1.2714 -0.5279  1.3695
12722TIP3    H259582   2.008   4.668  15.625  0.5000 -0.3356  0.1436
12723TIP3   OH259583   2.113   5.436  16.355 -0.4054  0.0172 -0.0496
12723TIP3    H159584   2.162   5.354  16.358 -0.9558 -0.2927  0.8932
12723TIP3    H259585   2.022   5.409  16.342 -0.6138  0.4630  0.4644
12724TIP3   OH259586   2.791   1.313   2.984 -0.9539 -0.1586 -0.3323
12724TIP3    H159587   2.845   1.247   2.941  0.1385  0.2220  0.4194
12724TIP3    H259588   2.819   1.396   2.944 -0.2771  0.1432  0.7274
12725TIP3   OH259589   0.485   0.049  12.334  0.6818  0.5328  0.8943
12725TIP3    H159590   0.478   0.134  12.292 -0.5311  0.6714  1.3497
12725TIP3    H259591   0.502   0.069  12.426  1.1405  0.2655  0.8722
12726TIP3   OH259592   5.173   4.312   1.490  0.0963  0.2489  0.3159
12726TIP3    H159593   5.204   4.275   1.407 -1.9647 -0.5875 -0.1466
12726TIP3    H259594   5.179   4.407   1.478 -1.5322  0.1900 -1.4091
12727TIP3   OH259595   2.182   0.724  11.847 -0.4487 -0.0343 -0.1888
12727TIP3    H159596   2.274   0.741  11.868  0.0500 -2.1433 -0.4846
12727TIP3    H259597   2.184   0.682  11.761 -1.5694 -1.1268  0.2866
12728TIP3   OH259598   3.226   4.686  11.053  0.2263  0.2665 -0.9605
12728TIP3    H159599   3.189   4.719  10.971 -0.4677 -1.9288 -1.6202
12728TIP3    H259600   3.290   4.620  11.025  0.7962  0.2745  0.2658
12729TIP3   OH259601   3.673   4.960   0.584 -0.0320 -0.1981 -0.2939
12729TIP3    H159602   3.767   4.956   0.604 -0.0073 -0.2196 -0.4119
12729TIP3    H259603   3.637   4.879   0.620  0.0240 -0.2690 -0.3964
12730TIP3   OH259604   2.380   2.573  15.286 -0.0617  0.2533  0.1953
12730TIP3    H159605   2.324   2.625  15.344  1.8239 -0.4440  2.8384
12730TIP3    H259606   2.363   2.482  15.313  1.6002 -0.0212  0.4339
12731TIP3   OH259607   5.620   0.083   6.633  0.0869 -0.2177 -0.2202
12731TIP3    H159608   5.550   0.117   6.689  0.1509 -1.5216  0.6967
12731TIP3    H259609   5.574   0.047   6.557 -0.1513 -0.0198 -0.1726
12732TIP3   OH259610   3.071   5.960   1.561 -0.0519  0.0920 -0.0593
12732TIP3    H159611   3.139   6.006   1.609 -0.6599  0.7374  0.2082
12732TIP3    H259612   3.035   5.897   1.624 -1.8913  1.9713  0.9279
12733TIP3   OH259613   5.767   1.810   6.615  0.2307  0.7853 -0.2844
12733TIP3    H159614   5.803   1.787   6.701 -2.2259  0.2986  0.6953
12733TIP3    H259615   5.844   1.823   6.560  1.8708 -1.0150  1.4139
12734TIP3   OH259616   6.528   5.857   3.052 -0.3747  0.3378  0.0287
12734TIP3    H159617   6.582   5.792   3.008  1.5709  2.1646 -0.4862
12734TIP3    H259618   6.526   5.829   3.144 -0.0879 -0.7439 -0.2789
12735TIP3   OH259619   4.481   1.260   3.156  0.3933 -0.5740 -0.2979
12735TIP3    H159620   4.390   1.287   3.143  0.8782  0.5396 -1.7477
12735TIP3    H259621   4.491   1.253   3.251 -1.2301 -0.8586 -0.1183
12736TIP3   OH259622   2.140   5.884  17.367 -0.2284  0.2965  0.9955
12736TIP3    H159623   2.180   5.883  17.280 -0.1674 -1.8437  0.9956
12736TIP3    H259624   2.205   5.928  17.423 -0.5386  2.2790 -0.0985
12737TIP3   OH259625   0.930   1.330  16.720  0.0132 -0.0130  0.0237
12737TIP3    H159626   0.844   1.288  16.722  0.7387 -1.5717  1.6938
12737TIP3    H259627   0.918   1.412  16.768 -0.2375 -0.9880  1.7135
12738TIP3   OH259628   6.737   0.358   3.164  0.2972 -0.0108 -0.0844
12738TIP3    H159629   6.780   0.425   3.216 -0.6919 -0.2534  1.0954
12738TIP3    H259630   6.653   0.344   3.208 -0.3515 -0.5945 -1.4655
12739TIP3   OH259631   1.888   1.706   1.969 -0.2390 -0.4666 -0.0651
12739TIP3    H159632   1.859   1.694   1.878  0.0373 -2.0091  0.0321
12739TIP3    H259633   1.834   1.779   2.001 -2.2472 -1.6154 -0.6581
12740TIP3   OH259634   3.994   1.490   2.779  0.1576  0.0957 -0.5569
12740TIP3    H159635   3.919   1.548   2.764 -0.9402 -0.5365  1.9067
12740TIP3    H259636   4.034   1.524   2.859 -1.1631 -2.9984  1.6171
12741TIP3   OH259637   6.314   4.684  14.405  0.4086 -0.3841  0.1419
12741TIP3    H159638   6.277   4.605  14.366  0.4883  0.6126 -2.0835
12741TIP3    H259639   6.238   4.733  14.437  0.2666 -0.7721  0.4067
12742TIP3   OH259640   0.062   0.994  16.112 -0.3896  0.3057 -0.0038
12742TIP3    H159641   0.132   0.930  16.123 -0.4817  0.2761  0.4441
12742TIP3    H259642   0.019   0.997  16.198 -0.1102  1.2855  0.1198
12743TIP3   OH259643   1.155   6.189   0.640  0.4491  0.0331 -0.1199
12743TIP3    H159644   1.161   6.104   0.594  1.5774 -0.9824  1.7705
12743TIP3    H259645   1.224   6.242   0.600  0.1127 -0.1141 -0.9298
12744TIP3   OH259646   1.918   1.333   5.622 -0.2848  0.3296 -0.3933
12744TIP3    H159647   2.011   1.357   5.628  0.2472 -1.5690 -0.6142
12744TIP3    H259648   1.881   1.395   5.559  1.1903  0.0698 -1.5442
12745TIP3   OH259649   3.946   5.367   3.539 -0.5647  0.0006 -0.2735
12745TIP3    H159650   3.958   5.272   3.536 -0.5777 -0.0350  0.5446
12745TIP3    H259651   3.854   5.381   3.517 -1.1381 -0.3531  1.7155
12746TIP3   OH259652   1.337   1.186  15.107  0.3464 -0.5437  0.9080
12746TIP3    H159653   1.272   1.224  15.048 -1.7740  0.0014  3.4327
12746TIP3    H259654   1.411   1.247  15.102 -0.3510  0.2556 -0.0906
12747TIP3   OH259655   0.730   6.712   3.578 -0.1787 -0.2367  0.5627
12747TIP3    H159656   0.640   6.714   3.612  0.0579 -2.8346  1.5886
12747TIP3    H259657   0.723   6.748   3.489 -2.1332  0.1058  0.8137
12748TIP3   OH259658   4.597   4.831  17.076  0.0870  0.6358  0.1406
12748TIP3    H159659   4.657   4.902  17.097 -0.1392  0.8997 -0.0984
12748TIP3    H259660   4.638   4.753  17.113 -0.5167  1.1551  1.9900
12749TIP3   OH259661   0.291   4.356  14.222  0.0873 -0.0916  0.5792
12749TIP3    H159662   0.327   4.407  14.294  0.8689  1.0595 -0.5862
12749TIP3    H259663   0.273   4.420  14.153  0.2708 -1.2669 -0.6113
12750TIP3   OH259664   6.543   1.681  11.084  0.0738  0.4882  0.2654
12750TIP3    H159665   6.590   1.613  11.133  0.8926 -0.4642 -1.6977
12750TIP3    H259666   6.453   1.649  11.079 -0.3511  1.2615  2.2158
12751TIP3   OH259667   4.594   2.413   1.396 -0.3806  0.1409 -0.0897
12751TIP3    H159668   4.627   2.483   1.340 -1.9239  0.9902  0.0151
12751TIP3    H259669   4.583   2.454   1.482  1.5665 -1.0358  0.8088
12752TIP3   OH259670   6.290   0.664   4.555 -0.6036  0.9449 -0.1806
12752TIP3    H159671   6.257   0.704   4.474 -2.4376 -0.0446  0.0175
12752TIP3    H259672   6.212   0.632   4.600  0.6051 -1.6731  0.3031
12753TIP3   OH259673   6.579   6.448  16.707 -0.0456  0.5455 -0.0046
12753TIP3    H159674   6.506   6.489  16.752 -1.3257 -1.5246 -0.0732
12753TIP3    H259675   6.638   6.420  16.777 -1.2181 -1.1705  0.3596
12754TIP3   OH259676   2.402   5.905   0.900  0.0188  0.2495 -0.3186
12754TIP3    H159677   2.483   5.863   0.868 -0.4095  0.4299 -1.7192
12754TIP3    H259678   2.376   5.852   0.975  0.9980 -0.3076 -0.3463
12755TIP3   OH259679   5.418   1.858  12.448 -0.1148 -0.4603 -0.6822
12755TIP3    H159680   5.411   1.942  12.403  3.6678  0.0586 -0.5999
12755TIP3    H259681   5.337   1.851  12.498 -1.1071  2.5291 -1.6469
12756TIP3   OH259682   2.037   1.684  11.299 -0.1353  0.1648  0.4360
12756TIP3    H159683   2.016   1.596  11.267 -1.7871  0.2205  1.2306
12756TIP3    H259684   2.006   1.743  11.231  1.0833  0.1523 -0.1521
12757TIP3   OH259685   5.575   2.865  12.235  0.7403  0.3668 -0.6724
12757TIP3    H159686   5.562   2.960  12.231  2.3577  0.5836 -2.2090
12757TIP3    H259687   5.609   2.849  12.324 -0.7911  0.9994  0.0642
12758TIP3   OH259688   6.716   5.107   1.651  0.6425  0.3653 -0.9027
12758TIP3    H159689   6.687   5.035   1.707 -0.9395  1.1491 -0.6789
12758TIP3    H259690   6.637   5.155   1.630  1.5765  1.6378 -1.6461
12759TIP3   OH259691   5.307   2.401  17.337  0.3432  0.0349 -0.0158
12759TIP3    H159692   5.215   2.385  17.360  0.7586 -1.0273  1.0116
12759TIP3    H259693   5.324   2.490  17.366  0.7028 -1.0412  3.6622
12760TIP3   OH259694   5.478   6.668  13.132 -0.5696  0.3724  0.2793
12760TIP3    H159695   5.472   6.590  13.077  0.1217  1.3361 -1.2279
12760TIP3    H259696   5.569   6.696  13.124 -0.9180  1.6023  0.3750
12761TIP3   OH259697   4.834   5.453   3.225 -0.3751  0.3222  0.6247
12761TIP3    H159698   4.913   5.506   3.221 -0.4855  0.4794  0.5293
12761TIP3    H259699   4.763   5.517   3.236 -0.5861  0.2508 -0.2646
12762TIP3   OH259700   0.961   4.186   0.644 -0.2153 -0.5848 -0.5188
12762TIP3    H159701   0.964   4.108   0.590  0.9334 -0.3472 -0.8077
12762TIP3    H259702   0.921   4.156   0.726 -0.1913 -1.3661 -0.7845
12763TIP3   OH259703   3.812   1.291   4.323 -0.0603 -0.6425  0.1716
12763TIP3    H159704   3.818   1.300   4.418 -0.7286 -0.8126  0.2375
12763TIP3    H259705   3.758   1.365   4.295  1.1591  0.1281 -0.2343
12764TIP3   OH259706   4.095   4.815  11.896 -0.6894  0.5998  0.2083
12764TIP3    H159707   4.068   4.906  11.908 -1.0933  0.3668  1.1177
12764TIP3    H259708   4.190   4.817  11.899 -0.7218  0.8730  1.1498
12765TIP3   OH259709   6.719   1.020   4.452  0.3062  0.7237  0.4319
12765TIP3    H159710   6.810   1.018   4.484  0.0263  0.5222  1.2315
12765TIP3    H259711   6.706   0.934   4.412 -0.0514  0.1149  1.8137
12766TIP3   OH259712   3.555   5.500   6.479 -0.4142  0.6564  0.2626
12766TIP3    H159713   3.623   5.450   6.524 -0.2725 -0.5229 -1.1796
12766TIP3    H259714   3.487   5.435   6.458 -0.8984  1.3469 -0.3693
12767TIP3   OH259715   6.388   6.450   0.975  0.0441 -0.0940  0.5291
12767TIP3    H159716   6.389   6.544   0.994  1.3440 -0.5083  2.9065
12767TIP3    H259717   6.299   6.422   0.998 -0.2283  0.4669  0.1818
12768TIP3   OH259718   0.675   0.793   6.309  0.2454  0.3748  0.6615
12768TIP3    H159719   0.592   0.818   6.350 -0.3078  0.8101 -0.6577
12768TIP3    H259720   0.674   0.698   6.308  0.2527  0.3523  1.5897
12769TIP3   OH259721   2.659   6.503  12.106  0.0985  0.4495 -0.1938
12769TIP3    H159722   2.730   6.451  12.143 -0.2083 -1.0760 -1.5788
12769TIP3    H259723   2.660   6.481  12.012 -2.2034  0.3218 -0.2530
12770TIP3   OH259724   1.236   0.927  12.577 -0.4589  0.1227  0.1114
12770TIP3    H159725   1.328   0.902  12.582 -0.3403  0.4985 -0.1102
12770TIP3    H259726   1.231   1.011  12.623 -0.7104  0.0462  0.2243
12771TIP3   OH259727   5.228   3.645   2.342  0.2090 -0.1940  0.1606
12771TIP3    H159728   5.312   3.675   2.377 -0.1643  1.1747 -0.0341
12771TIP3    H259729   5.164   3.670   2.408 -0.3548  1.3340 -0.8906
12772TIP3   OH259730   2.771   1.887   3.040 -0.2081 -0.0970  0.3425
12772TIP3    H159731   2.688   1.839   3.038 -0.0208 -0.4703  1.2218
12772TIP3    H259732   2.754   1.962   3.098 -0.0661  0.0953  0.1381
12773TIP3   OH259733   1.261   1.228  14.455  0.5451  0.5259 -0.0172
12773TIP3    H159734   1.215   1.212  14.372 -1.1427  0.2127  0.9208
12773TIP3    H259735   1.286   1.141  14.485  0.1987  0.5284  0.2950
12774TIP3   OH259736   1.642   3.038  14.188  0.3642 -0.1622  0.1997
12774TIP3    H159737   1.654   3.038  14.093  0.8971 -0.6403  0.2650
12774TIP3    H259738   1.650   3.130  14.213 -1.9533  0.2935 -0.4737
12775TIP3   OH259739   5.154   2.360   4.439  0.3152  0.0832 -0.2259
12775TIP3    H159740   5.070   2.320   4.418  0.0627  0.3421  0.2720
12775TIP3    H259741   5.210   2.340   4.364 -0.3439  0.3723 -0.8004
12776TIP3   OH259742   0.926   4.794   3.228  0.7927  0.4607 -0.4218
12776TIP3    H159743   0.977   4.762   3.154  0.9843  1.1139 -0.5735
12776TIP3    H259744   0.886   4.715   3.265  2.8213 -0.2318  0.3966
12777TIP3   OH259745   1.674   2.327   1.411  0.4074 -0.2929 -0.3029
12777TIP3    H159746   1.636   2.305   1.326 -1.0223 -0.8146  0.4359
12777TIP3    H259747   1.713   2.414   1.397  1.5707 -1.0263 -1.8747
12778TIP3   OH259748   3.551   0.008  13.019 -0.3429 -0.7364 -0.1161
12778TIP3    H159749   3.548  -0.084  12.994 -2.2313 -0.6246 -0.4775
12778TIP3    H259750   3.580   0.054  12.940  0.6018 -1.0005  0.0657
12779TIP3   OH259751   2.197   5.148   1.000  0.3744  0.0676 -0.2555
12779TIP3    H159752   2.225   5.200   0.925  0.6066  0.3198  0.0033
12779TIP3    H259753   2.106   5.175   1.015  0.6401  0.7621  0.1735
12780TIP3   OH259754   3.178   3.265  16.027  0.6862  1.0944 -0.1671
12780TIP3    H159755   3.120   3.211  15.972  1.6600  1.7189 -1.9088
12780TIP3    H259756   3.125   3.286  16.104 -0.9391  0.5643 -1.0795
12781TIP3   OH259757   0.015   4.841  16.174 -0.1792  0.4737 -0.5651
12781TIP3    H159758  -0.044   4.916  16.181  0.1924  0.6914  0.3990
12781TIP3    H259759   0.011   4.799  16.260 -0.7176 -0.8754 -1.2255
12782TIP3   OH259760   6.627   4.338  11.895 -0.2001  0.1078  0.0267
12782TIP3    H159761   6.693   4.277  11.862 -1.0725 -1.3424  0.8253
12782TIP3    H259762   6.654   4.357  11.984 -0.9721 -0.7236  0.4581
12783TIP3   OH259763   4.685   1.259   1.078  0.2007  0.6993  0.8762
12783TIP3    H159764   4.744   1.191   1.044  0.4708  0.6167  1.4998
12783TIP3    H259765   4.654   1.304   1.000  0.6448  0.3699  0.5017
12784TIP3   OH259766   1.713   3.313  11.365  0.7218  0.3156 -0.6610
12784TIP3    H159767   1.745   3.385  11.311 -0.1362  0.0227 -1.5843
12784TIP3    H259768   1.619   3.309  11.347  0.8038 -1.2542 -0.9245
12785TIP3   OH259769   4.774   3.502  11.840  0.1383 -1.1529  0.1833
12785TIP3    H159770   4.711   3.500  11.912  0.3545 -1.0067  0.3733
12785TIP3    H259771   4.860   3.507  11.882  0.2257  0.0413 -0.0905
12786TIP3   OH259772   4.599   0.339   1.919  0.3870  0.0284 -0.0218
12786TIP3    H159773   4.563   0.348   2.007 -0.1673 -1.3761 -0.0731
12786TIP3    H259774   4.556   0.407   1.868  1.9189  1.9525  1.1022
12787TIP3   OH259775   3.553   0.260   2.241 -0.2631 -0.1771  0.3573
12787TIP3    H159776   3.488   0.319   2.279 -1.0792 -0.8122 -0.0304
12787TIP3    H259777   3.577   0.302   2.158 -2.0388 -1.1573 -0.6979
12788TIP3   OH259778   6.112   6.633   1.829  0.7131 -0.0470  0.3167
12788TIP3    H159779   6.156   6.708   1.789  1.9333 -1.2316 -0.6415
12788TIP3    H259780   6.022   6.638   1.798 -0.0094  2.4984  2.4092
12789TIP3   OH259781   5.271   1.293  16.125 -0.3727 -0.1206 -0.7727
12789TIP3    H159782   5.251   1.305  16.032 -0.7779  0.7823 -0.5806
12789TIP3    H259783   5.226   1.366  16.168  2.0614  1.1246 -0.1507
12790TIP3   OH259784   1.320   0.730   4.433  0.0537 -0.7939 -0.1128
12790TIP3    H159785   1.377   0.680   4.491  1.0239  1.9036  1.4140
12790TIP3    H259786   1.350   0.706   4.345  1.9783 -1.2056  0.6054
12791TIP3   OH259787   2.203   2.359   0.593  0.2176 -0.3221 -0.6397
12791TIP3    H159788   2.119   2.316   0.580 -0.6998  1.2891 -0.2704
12791TIP3    H259789   2.255   2.333   0.517 -0.5743 -1.3936 -0.8352
12792TIP3   OH259790   5.862   5.839  14.092  0.0783 -0.0625 -0.3912
12792TIP3    H159791   5.843   5.855  14.000 -0.4020  0.6732 -0.1766
12792TIP3    H259792   5.837   5.920  14.136  0.6719 -0.2613  0.3382
12793TIP3   OH259793   1.563   6.529   1.013 -0.1463 -0.1204 -0.1042
12793TIP3    H159794   1.612   6.600   0.972 -0.0611 -1.1699 -1.9397
12793TIP3    H259795   1.623   6.493   1.079 -0.2407  1.5283  0.9593
12794TIP3   OH259796   2.815   2.358  17.053  0.1575  0.0223  0.3449
12794TIP3    H159797   2.816   2.324  16.964 -1.1280  0.9676 -0.0667
12794TIP3    H259798   2.731   2.330  17.089 -0.7287  2.2201  0.1550
12795TIP3   OH259799   1.509   1.218  13.371  0.1381 -0.0912 -0.4854
12795TIP3    H159800   1.575   1.266  13.421  0.9157 -2.9451  1.5043
12795TIP3    H259801   1.517   1.251  13.282  2.5404  1.4002  0.1836
12796TIP3   OH259802   4.417   4.679   1.663 -0.1105  0.0193  0.4169
12796TIP3    H159803   4.504   4.685   1.703  0.5689 -0.2416 -0.9257
12796TIP3    H259804   4.382   4.768   1.666  0.5545  0.2915  0.2567
12797TIP3   OH259805   0.900   4.629   3.888 -0.2288  0.0310  0.2193
12797TIP3    H159806   0.955   4.652   3.963 -0.7671 -2.9614  1.6979
12797TIP3    H259807   0.941   4.550   3.852 -1.3739  0.0034 -1.0849
12798TIP3   OH259808   1.271   5.572  15.326  0.6413  0.0055 -0.3176
12798TIP3    H159809   1.202   5.521  15.284  0.5401 -0.6637  0.6446
12798TIP3    H259810   1.331   5.596  15.254 -0.5153  0.5097 -1.1451
12799TIP3   OH259811   0.763   0.905  15.678 -0.5281 -0.1601  0.5505
12799TIP3    H159812   0.690   0.947  15.725 -0.9543 -0.4853  0.1798
12799TIP3    H259813   0.764   0.815  15.711 -0.4034 -0.2046  0.4251
12800TIP3   OH259814   5.327   5.355   4.650 -0.3172  0.2715  0.2992
12800TIP3    H159815   5.365   5.272   4.678 -0.8333  0.1063  0.5049
12800TIP3    H259816   5.290   5.337   4.564  1.2793  0.7819 -0.5396
12801TIP3   OH259817   2.343   2.564  11.200  0.5142  0.4907  0.2013
12801TIP3    H159818   2.424   2.519  11.223  0.2145 -0.6460 -0.8537
12801TIP3    H259819   2.355   2.590  11.109 -0.4160  0.0387 -0.0618
12802TIP3   OH259820   1.823   0.235  13.454 -0.2240  0.1387 -0.0489
12802TIP3    H159821   1.918   0.231  13.463 -0.3044  1.5853  2.4480
12802TIP3    H259822   1.805   0.325  13.429 -0.9745  0.3395  1.1236
12803TIP3   OH259823   4.496   6.434  16.445  0.1039  0.0570 -0.1364
12803TIP3    H159824   4.435   6.363  16.463  1.3658 -0.4786  2.5443
12803TIP3    H259825   4.581   6.401  16.475  1.5107  1.3136 -2.3630
12804TIP3   OH259826   0.902   3.491   1.737  0.1617 -0.2876 -0.2340
12804TIP3    H159827   0.916   3.584   1.722  0.5238 -0.4594 -0.9703
12804TIP3    H259828   0.972   3.466   1.799  1.0624 -0.4064 -1.2720
12805TIP3   OH259829   2.327   5.003   4.232 -0.6390  0.4103 -0.2158
12805TIP3    H159830   2.285   4.918   4.219  1.2236 -0.2606 -2.4386
12805TIP3    H259831   2.297   5.056   4.159 -1.5128  1.6030  0.9688
12806TIP3   OH259832   5.869   0.716   0.534  0.4742  0.0748 -0.2060
12806TIP3    H159833   5.797   0.713   0.598 -1.0519 -1.3136 -1.8642
12806TIP3    H259834   5.919   0.793   0.558  0.3255 -0.6744  3.0034
12807TIP3   OH259835   4.050   5.072  13.931  0.0476  0.0449 -0.0772
12807TIP3    H159836   4.086   5.003  13.876 -1.3164  0.2142 -1.2418
12807TIP3    H259837   3.982   5.028  13.982 -0.1779  0.3364 -0.1264
12808TIP3   OH259838   3.089   1.213   0.801  0.1439  0.5563 -0.2860
12808TIP3    H159839   3.024   1.236   0.734  0.8409  1.5836 -0.6313
12808TIP3    H259840   3.084   1.117   0.807 -0.8236  0.5547 -0.8848
12809TIP3   OH259841   2.321   6.360   4.856  0.0011 -0.2046  0.0013
12809TIP3    H159842   2.257   6.430   4.842 -0.8156 -0.8609  0.4237
12809TIP3    H259843   2.367   6.385   4.936  1.3793  1.0704 -1.1190
12810TIP3   OH259844   4.980   6.311   4.179 -0.5659 -0.4204  0.6300
12810TIP3    H159845   4.920   6.375   4.218  0.2028 -0.3589  1.7346
12810TIP3    H259846   4.960   6.315   4.085 -1.3253  0.6009  0.8119
12811TIP3   OH259847   5.877   0.730   2.629 -0.1690 -0.3682 -0.2401
12811TIP3    H159848   5.812   0.677   2.582 -1.5886  1.5059 -0.5184
12811TIP3    H259849   5.933   0.766   2.560 -0.3742 -0.0423 -0.2421
12812TIP3   OH259850   2.336   6.548  12.788  0.1828  0.0199  0.0611
12812TIP3    H159851   2.360   6.640  12.796 -0.7759  0.1460  1.8485
12812TIP3    H259852   2.242   6.548  12.770  0.3206 -0.6032 -0.7227
12813TIP3   OH259853   2.191   5.544   0.005  0.6605  0.5072  0.6098
12813TIP3    H159854   2.144   5.611   0.055  0.9291  0.0379  1.5179
12813TIP3    H259855   2.223   5.590  -0.073 -1.9033  0.6882 -0.4480
12814TIP3   OH259856   1.794   1.359   0.872  0.4689 -0.1798  0.3104
12814TIP3    H159857   1.750   1.392   0.794  1.3423  0.3895  0.0557
12814TIP3    H259858   1.807   1.437   0.927  1.4578 -0.2835  0.2352
12815TIP3   OH259859   0.436   1.194  16.095 -0.0987 -0.0165  0.0558
12815TIP3    H159860   0.383   1.230  16.167  1.6167 -0.4184  1.5887
12815TIP3    H259861   0.448   1.102  16.118  0.4094 -0.1751 -0.8062
12816TIP3   OH259862   0.359   2.585  14.246  0.1020 -0.8701 -0.7215
12816TIP3    H159863   0.328   2.641  14.175  1.2853  1.2289  0.3052
12816TIP3    H259864   0.449   2.562  14.220  0.1805 -0.9533 -0.3742
12817TIP3   OH259865   0.213   4.626  17.028 -0.0141 -0.0703 -0.3049
12817TIP3    H159866   0.239   4.680  16.954 -1.6743  0.6693 -0.4083
12817TIP3    H259867   0.188   4.542  16.990 -0.5938  0.2156 -0.5687
12818TIP3   OH259868   1.941   0.863   1.849  0.6648 -0.0819  0.0090
12818TIP3    H159869   1.942   0.772   1.877 -2.7562 -0.1603  0.2501
12818TIP3    H259870   1.902   0.911   1.922  0.5142  1.2212 -0.8862
12819TIP3   OH259871   1.714   0.703   0.615  0.2745  0.3942  0.7499
12819TIP3    H159872   1.694   0.758   0.691  0.5360  1.5285  0.0032
12819TIP3    H259873   1.776   0.754   0.563  1.3499 -1.0302  0.5597
12820TIP3   OH259874   6.604   1.975  12.556 -0.8466 -0.3867 -0.6098
12820TIP3    H159875   6.554   2.033  12.498 -0.1118  0.3916 -0.4595
12820TIP3    H259876   6.543   1.903  12.575 -1.4522 -0.1262 -1.5101
12821TIP3   OH259877   0.261   1.081  12.070  0.3892 -0.3638  0.4881
12821TIP3    H159878   0.308   1.109  12.149 -1.8774 -1.7791  2.4952
12821TIP3    H259879   0.179   1.043  12.104  0.8672 -4.4310 -2.2692
12822TIP3   OH259880   1.040   0.346  13.376 -0.1003 -0.3606 -0.5550
12822TIP3    H159881   1.102   0.409  13.337  0.1318 -1.2431 -1.6669
12822TIP3    H259882   0.958   0.362  13.328 -0.3102 -0.2636 -0.1686
12823TIP3   OH259883   4.432   1.665  15.806  0.3187 -0.2809  0.2896
12823TIP3    H159884   4.488   1.734  15.842  1.9015 -2.8634  3.2169
12823TIP3    H259885   4.398   1.620  15.883 -2.5912 -1.3868 -1.4760
12824TIP3   OH259886   4.574   0.432   4.855  0.2130 -0.1276 -0.6731
12824TIP3    H159887   4.508   0.390   4.911 -0.0586  0.0419 -0.8628
12824TIP3    H259888   4.623   0.359   4.817  1.6293 -0.2268  1.2302
12825TIP3   OH259889   2.050   6.277  13.103  0.5525  0.2662  0.9516
12825TIP3    H159890   1.997   6.320  13.037 -0.7075 -0.8636  1.1940
12825TIP3    H259891   2.136   6.266  13.061  0.3732  1.3355  0.2510
12826TIP3   OH259892   2.078   4.692   0.136 -0.0543  0.3445 -0.9865
12826TIP3    H159893   2.084   4.712   0.230  0.9431  0.1800 -0.9989
12826TIP3    H259894   2.113   4.604   0.128  0.5519  0.6288 -1.5970
12827TIP3   OH259895   3.493   1.972   4.242  0.2833  0.3661  0.2107
12827TIP3    H159896   3.583   1.944   4.227 -0.2329 -0.1959 -2.2617
12827TIP3    H259897   3.481   2.046   4.182 -1.0039  0.1746  0.2039
12828TIP3   OH259898   4.582   6.478   1.901 -0.0921 -0.4897 -0.4266
12828TIP3    H159899   4.509   6.526   1.861 -1.7745 -2.3401  0.2361
12828TIP3    H259900   4.610   6.533   1.974  0.8817  1.4014 -2.1117
12829TIP3   OH259901   5.377   5.100  11.797 -0.2933  0.7467  0.0638
12829TIP3    H159902   5.294   5.061  11.825 -0.8439  2.1577  0.4914
12829TIP3    H259903   5.444   5.042  11.834 -1.0708  0.0642  0.4456
12830TIP3   OH259904   0.707   1.540  14.964 -0.2263 -0.2084  0.4090
12830TIP3    H159905   0.732   1.525  14.873 -1.5472  0.3371 -0.0738
12830TIP3    H259906   0.757   1.618  14.989  1.4317 -1.3288  0.7292
12831TIP3   OH259907   0.451   1.041   0.392  0.0820 -0.1683 -0.0134
12831TIP3    H159908   0.365   1.002   0.409  0.6521 -1.1331  0.7925
12831TIP3    H259909   0.503   1.018   0.469  1.1662  0.0996 -0.6475
12832TIP3   OH259910   5.565   0.775   0.048 -0.1317 -0.1609 -0.4391
12832TIP3    H159911   5.560   0.722  -0.032 -2.7430 -0.5962 -0.0702
12832TIP3    H259912   5.549   0.713   0.119  0.4968  0.5161  0.3166
12833TIP3   OH259913   5.953   3.201  16.544 -0.1059  0.6632 -0.1337
12833TIP3    H159914   5.903   3.192  16.625  1.5176  0.6352  0.9106
12833TIP3    H259915   5.950   3.114  16.504 -1.5606  0.8698 -0.5429
12834TIP3   OH259916   2.254   1.173   0.656 -0.9641  0.1587  0.3373
12834TIP3    H159917   2.204   1.254   0.669  1.2594  1.8878 -0.9688
12834TIP3    H259918   2.261   1.166   0.560  0.1516 -0.7492  0.4764
12835TIP3   OH259919   0.552   4.288   2.000 -0.0055 -0.9318  0.6763
12835TIP3    H159920   0.498   4.331   2.067 -1.4667  0.1007 -1.0631
12835TIP3    H259921   0.614   4.356   1.973 -1.0431 -0.4920 -0.7073
12836TIP3   OH259922   5.405   0.187   2.476 -0.1211  0.3019 -0.2586
12836TIP3    H159923   5.348   0.260   2.451 -2.0033 -0.7845  0.6096
12836TIP3    H259924   5.452   0.165   2.396 -1.0634  1.1483 -1.0763
12837TIP3   OH259925   3.807   1.723  15.119 -0.0345  0.0982 -0.2351
12837TIP3    H159926   3.778   1.792  15.179 -1.0548 -0.9191  0.4947
12837TIP3    H259927   3.778   1.753  15.033  0.2843  0.9667 -0.0572
12838TIP3   OH259928   0.016   0.565  11.376 -0.0887  0.1859 -0.3683
12838TIP3    H159929   0.001   0.600  11.464  1.0524 -0.7968  0.2612
12838TIP3    H259930   0.111   0.566  11.366 -0.0888 -1.4149 -0.8388
12839TIP3   OH259931   4.071   3.117   0.395 -0.2311  0.0437 -0.3098
12839TIP3    H159932   4.159   3.096   0.364 -0.4575 -0.7698 -0.4102
12839TIP3    H259933   4.017   3.046   0.363 -0.5930 -0.5055  1.4322
12840TIP3   OH259934   0.392   2.476  12.162  0.3205  0.0067 -0.7079
12840TIP3    H159935   0.345   2.548  12.204  0.4839  0.5643 -1.4528
12840TIP3    H259936   0.359   2.397  12.204 -2.0283  0.2939 -1.8717
12841TIP3   OH259937   3.073   0.725   2.880  0.4652 -0.2375 -0.2355
12841TIP3    H159938   3.099   0.765   2.796 -0.5715 -0.2221 -0.5684
12841TIP3    H259939   3.114   0.639   2.879  1.2351  0.1157 -0.3249
12842TIP3   OH259940   5.124   6.578   2.772  0.2079 -0.1965 -0.0789
12842TIP3    H159941   5.188   6.611   2.708  1.7252  0.1183  1.5035
12842TIP3    H259942   5.044   6.627   2.753  0.0191 -1.3719 -2.8389
12843TIP3   OH259943   3.210   0.357   5.642 -0.7657 -0.6295  0.2243
12843TIP3    H159944   3.175   0.361   5.553  0.4392 -1.9614 -0.3374
12843TIP3    H259945   3.280   0.293   5.638 -0.4318 -0.4402  2.0658
12844TIP3   OH259946   3.068   4.016  16.890 -0.0790  0.6385  0.1318
12844TIP3    H159947   3.036   3.932  16.924  0.8648  0.3800  0.4180
12844TIP3    H259948   3.142   3.993  16.834 -0.1649  1.2456 -0.2446
12845TIP3   OH259949   2.617   3.617  16.584  0.6042 -0.0824  0.1561
12845TIP3    H159950   2.689   3.668  16.620 -0.1986  0.8652  0.4722
12845TIP3    H259951   2.565   3.591  16.661  0.0793  0.0863 -0.1370
12846TIP3   OH259952   0.137   5.176  14.828 -0.5356 -0.1485 -0.1328
12846TIP3    H159953   0.094   5.151  14.910  0.1559  0.5209  0.4452
12846TIP3    H259954   0.154   5.269  14.837 -0.1059 -0.1470 -0.8816
12847TIP3   OH259955   1.326   4.979   5.334  0.5115 -0.2055 -0.6991
12847TIP3    H159956   1.237   4.954   5.358  0.6319 -0.1754 -0.2230
12847TIP3    H259957   1.364   4.899   5.298  0.9267 -0.7639  0.9018
12848TIP3   OH259958   4.055   2.761   3.570  0.3936 -0.3086  0.0587
12848TIP3    H159959   4.040   2.851   3.598  0.6860  0.4349 -1.9944
12848TIP3    H259960   4.070   2.712   3.651 -1.4262  1.1410  1.3404
12849TIP3   OH259961   2.056   6.188  17.209 -0.4531  0.0925  0.0895
12849TIP3    H159962   2.064   6.217  17.299 -0.3403  1.7946 -0.4355
12849TIP3    H259963   2.038   6.268  17.159  0.4129 -0.6603 -1.5171
12850TIP3   OH259964   5.606   2.802  11.491  0.3816 -0.4611 -0.1083
12850TIP3    H159965   5.655   2.800  11.409  0.5203  0.2435 -0.0459
12850TIP3    H259966   5.526   2.752  11.473 -0.6083  1.4455 -1.3398
12851TIP3   OH259967   6.111   3.775  12.934  0.7343 -0.0862  0.4681
12851TIP3    H159968   6.016   3.774  12.932  0.7151 -1.0683  1.4313
12851TIP3    H259969   6.133   3.864  12.960  0.0570 -0.0644  0.9931
12852TIP3   OH259970   2.642   2.679   1.399  0.6237 -0.1834 -0.3711
12852TIP3    H159971   2.725   2.641   1.371  0.4314 -1.0961  0.2437
12852TIP3    H259972   2.622   2.634   1.482 -0.0597  0.6274 -0.0846
12853TIP3   OH259973   0.087   5.984   0.987  0.0254 -0.3805  0.3909
12853TIP3    H159974   0.045   5.958   0.905  1.5620 -1.3690 -0.1230
12853TIP3    H259975   0.086   6.080   0.985  2.0005 -0.3081 -1.8924
12854TIP3   OH259976   4.948   2.525  11.671 -0.4698  0.1938 -0.0187
12854TIP3    H159977   4.894   2.446  11.679  0.4786 -0.4013  0.7890
12854TIP3    H259978   4.911   2.572  11.597 -0.6647 -1.3281 -0.9273
12855TIP3   OH259979   2.393   4.825  15.626  0.0742  0.2592 -0.1118
12855TIP3    H159980   2.430   4.868  15.703  0.1633  1.3381 -0.7359
12855TIP3    H259981   2.440   4.742  15.620  0.4933  0.4296  0.6451
12856TIP3   OH259982   2.123   1.744  12.635 -0.0729 -0.3035 -0.4475
12856TIP3    H159983   2.157   1.659  12.662  0.3087  0.2325  0.8587
12856TIP3    H259984   2.074   1.776  12.711 -0.6272  0.4231 -1.0952
12857TIP3   OH259985   3.621   3.625   2.661  0.2647  0.8947  0.6839
12857TIP3    H159986   3.698   3.613   2.716  0.7554  1.9891  0.2619
12857TIP3    H259987   3.646   3.692   2.598  0.1413 -1.1099 -1.6827
12858TIP3   OH259988   1.563   3.626   6.599  0.1204  0.0944  0.1415
12858TIP3    H159989   1.519   3.704   6.565 -1.6965  0.2498  2.5547
12858TIP3    H259990   1.512   3.601   6.676  1.6218 -2.5315  0.4247
12859TIP3   OH259991   3.815   2.954  11.409 -0.6484  0.1747  0.2137
12859TIP3    H159992   3.727   2.992  11.415  0.2821  2.6673 -0.7442
12859TIP3    H259993   3.826   2.933  11.316 -1.1486 -2.6488  0.7207
12860TIP3   OH259994   6.112   4.677  17.244  0.4353  1.0297  0.5278
12860TIP3    H159995   6.140   4.690  17.335 -0.0606  2.6580  0.4710
12860TIP3    H259996   6.166   4.737  17.193  1.2667 -0.4252 -0.3978
12861TIP3   OH259997   3.185   3.355  12.531  0.5144 -0.3912  0.0478
12861TIP3    H159998   3.211   3.372  12.440  0.4586  0.9685  0.2755
12861TIP3    H259999   3.107   3.300  12.524 -0.4878  1.0924 -0.7783
12862TIP3   OH260000   4.137   0.495  11.294 -0.2131 -0.0925  0.2498
12862TIP3    H160001   4.061   0.451  11.334 -0.2077 -0.8631 -0.5745
12862TIP3    H260002   4.098   0.561  11.237 -0.2271  0.5961  1.0300
12863TIP3   OH260003   4.703   0.060   0.827  0.3982 -0.0573  0.2386
12863TIP3    H160004   4.789   0.101   0.821 -0.1896  1.3350  0.7437
12863TIP3    H260005   4.718  -0.021   0.874  1.6924 -0.7272 -1.2375
12864TIP3   OH260006   2.128   5.482  12.206  0.3884 -0.1625  0.3720
12864TIP3    H160007   2.153   5.499  12.115 -0.1977 -0.0599  0.2260
12864TIP3    H260008   2.190   5.415  12.235  1.4545  0.7907  0.3379
12865TIP3   OH260009   6.498   3.303  12.090  0.0925 -0.2142  0.0999
12865TIP3    H160010   6.508   3.374  12.026  2.6205 -1.9545 -1.6195
12865TIP3    H260011   6.584   3.295  12.131 -1.0855 -0.0904  2.8448
12866TIP3   OH260012   4.492   3.071  16.959  0.0630 -0.1745  0.6201
12866TIP3    H160013   4.512   3.004  16.893  0.0880 -0.6590  1.1105
12866TIP3    H260014   4.557   3.056  17.028  0.7692  1.0625  0.2462
12867TIP3   OH260015   2.582   2.608  14.887  0.2839  0.1524 -0.3082
12867TIP3    H160016   2.546   2.646  14.967  1.1056 -1.9531  1.1683
12867TIP3    H260017   2.506   2.569  14.843 -0.0164  0.3726  0.0106
12868TIP3   OH260018   0.477   6.391   3.192 -0.1272  0.4490 -0.0259
12868TIP3    H160019   0.434   6.477   3.194  2.2698  1.7485  1.5468
12868TIP3    H260020   0.556   6.406   3.140 -1.0549 -1.6471 -2.2048
12869TIP3   OH260021   3.910   6.749   1.744  0.3984 -0.1836 -0.0751
12869TIP3    H160022   3.974   6.811   1.778 -1.7896  1.2404  1.7399
12869TIP3    H260023   3.948   6.663   1.760  2.6160  0.5928 -0.7788
12870TIP3   OH260024   4.135   1.746  13.993  0.1129 -0.0252 -0.0248
12870TIP3    H160025   4.174   1.814  13.938 -1.4282  0.8525 -0.0903
12870TIP3    H260026   4.209   1.695  14.024  1.1720  0.6004 -1.4070
12871TIP3   OH260027   6.626   6.157   1.171 -0.2021 -0.5558 -0.2092
12871TIP3    H160028   6.714   6.187   1.149  0.2843  1.6787  3.8038
12871TIP3    H260029   6.639   6.092   1.240 -1.7052 -2.7711 -1.8750
12872TIP3   OH260030   4.803   6.414  16.660 -0.0443  0.2866 -0.1699
12872TIP3    H160031   4.821   6.381  16.748 -0.7040  0.4977  0.0452
12872TIP3    H260032   4.755   6.495  16.674 -1.2516 -0.3029 -0.7330
12873TIP3   OH260033   4.766   4.927   4.695 -0.5105  0.0559 -0.1386
12873TIP3    H160034   4.731   4.841   4.718  1.0890 -0.1711  1.6830
12873TIP3    H260035   4.707   4.989   4.738  0.0553 -0.2629  1.1610
12874TIP3   OH260036   5.874   5.748   0.453  0.2954  0.0290  0.5376
12874TIP3    H160037   5.781   5.760   0.439  0.2254  2.2889  2.4131
12874TIP3    H260038   5.880   5.670   0.510 -0.2104 -1.4757 -1.3708
12875TIP3   OH260039   2.799   3.049  12.747 -0.3028  0.0112  0.3352
12875TIP3    H160040   2.794   2.968  12.698 -0.6067  0.9649 -1.2759
12875TIP3    H260041   2.713   3.058  12.788 -1.1369  0.6615 -1.4419
12876TIP3   OH260042   5.342   0.109  15.375  0.1892 -0.3910  0.1517
12876TIP3    H160043   5.401   0.090  15.447 -0.7024 -1.8488  0.5435
12876TIP3    H260044   5.254   0.101  15.412 -0.3282 -2.4349 -1.3223
12877TIP3   OH260045   2.908   4.899  14.390  0.5161 -0.3675  0.1014
12877TIP3    H160046   3.001   4.899  14.368  0.9799  0.4170  1.8613
12877TIP3    H260047   2.898   4.827  14.452 -0.5624 -1.9125 -1.7262
12878TIP3   OH260048   2.283   4.505  11.948 -0.2398 -0.6410 -0.1949
12878TIP3    H160049   2.241   4.549  12.023  0.9816  1.8861 -0.8729
12878TIP3    H260050   2.228   4.528  11.873  0.8789  0.5223 -0.6888
12879TIP3   OH260051   4.377   2.032   4.467 -0.0000  0.0487  0.0239
12879TIP3    H160052   4.449   1.976   4.437 -0.2429  0.1515 -0.7888
12879TIP3    H260053   4.325   1.975   4.524  0.3060 -0.2585  0.0011
12880TIP3   OH260054   4.319   3.080  14.945 -0.3262 -0.0773 -0.5287
12880TIP3    H160055   4.310   3.077  15.040  1.3071  2.1675 -0.2288
12880TIP3    H260056   4.229   3.075  14.913 -1.1181  1.3886  1.2545
12881TIP3   OH260057   1.384   2.515  13.350  0.3785  0.3521 -0.3161
12881TIP3    H160058   1.442   2.521  13.274  1.3014  1.8507  0.4602
12881TIP3    H260059   1.300   2.548  13.318  0.8335  1.2328 -0.6555
12882TIP3   OH260060   0.396   6.259   0.329  0.1863 -0.3172 -0.6083
12882TIP3    H160061   0.409   6.278   0.422 -0.9138 -0.2038 -0.4650
12882TIP3    H260062   0.302   6.265   0.316  0.0934 -2.4580 -1.2866
12883TIP3   OH260063   2.665   5.470  14.079 -0.5516 -0.5185 -0.0341
12883TIP3    H160064   2.746   5.505  14.042 -0.6542  0.5229  0.6644
12883TIP3    H260065   2.617   5.436  14.004 -0.2147  0.4227 -0.7000
12884TIP3   OH260066   1.405   3.121   2.648  1.4809 -0.6561  0.4044
12884TIP3    H160067   1.353   3.076   2.714  0.5419  0.3037  0.3608
12884TIP3    H260068   1.424   3.206   2.688 -0.5067  0.6007 -1.1183
12885TIP3   OH260069   3.494   3.121   4.519 -0.1357 -0.2574 -0.3843
12885TIP3    H160070   3.475   3.027   4.528 -0.9730  0.0381  1.3694
12885TIP3    H260071   3.429   3.152   4.455  0.4247 -0.9275 -1.3078
12886TIP3   OH260072   0.044   0.736   2.403 -0.0885 -0.4475 -0.4260
12886TIP3    H160073  -0.008   0.658   2.384 -3.2984  1.8286 -1.8364
12886TIP3    H260074   0.053   0.780   2.319 -0.3657  1.7957  0.6572
12887TIP3   OH260075   0.090   6.287   2.313 -0.4585  0.1007  0.4824
12887TIP3    H160076   0.056   6.335   2.238 -0.0888 -0.2103  0.1085
12887TIP3    H260077   0.185   6.299   2.308 -0.3505 -0.7523  0.3143
12888TIP3   OH260078   5.409   1.655  12.933  0.2574 -0.0412  0.2757
12888TIP3    H160079   5.440   1.738  12.895 -0.3828 -0.1724 -0.5727
12888TIP3    H260080   5.315   1.657  12.919  0.1150 -0.4818  1.1384
12889TIP3   OH260081   5.021   3.273   2.797 -0.0152  0.0624  0.1353
12889TIP3    H160082   4.940   3.323   2.783 -0.3138 -0.4325  0.0827
12889TIP3    H260083   5.089   3.340   2.809 -0.4639  0.4787  0.3746
12890TIP3   OH260084   1.435   0.144  12.229 -0.1484 -0.0289  0.2621
12890TIP3    H160085   1.486   0.139  12.148  0.2404  1.8280  0.3451
12890TIP3    H260086   1.474   0.217  12.277 -1.7933  0.3249  1.1216
12891TIP3   OH260087   2.182   1.557  15.228  0.3794  0.3735 -0.6190
12891TIP3    H160088   2.107   1.520  15.181  0.2973  0.1114 -0.2848
12891TIP3    H260089   2.163   1.651  15.232 -0.9995  0.0804  1.3028
12892TIP3   OH260090   5.690   3.762   0.328 -0.1707  0.2576  0.2627
12892TIP3    H160091   5.662   3.713   0.250  1.1700  0.5643 -0.4478
12892TIP3    H260092   5.751   3.703   0.372  1.1160  1.0787 -0.3619
12893TIP3   OH260093   0.262   5.790  14.197  0.1928 -0.3712 -0.2755
12893TIP3    H160094   0.213   5.782  14.115  1.2478 -2.0589 -0.7943
12893TIP3    H260095   0.220   5.863  14.242 -1.2871 -0.2531 -1.7131
12894TIP3   OH260096   3.672   3.968  14.442  0.4617  0.0047 -0.5428
12894TIP3    H160097   3.580   3.953  14.464  0.3863 -0.0852 -0.9196
12894TIP3    H260098   3.716   3.974  14.527  0.0083  0.6819 -0.3473
12895TIP3   OH260099   6.475   3.968   2.293 -0.0774 -0.3225 -0.3587
12895TIP3    H160100   6.451   3.915   2.368 -0.9988 -0.4492 -0.7228
12895TIP3    H260101   6.477   4.058   2.326 -0.2454 -0.4044 -0.1264
12896TIP3   OH260102   3.417   0.230   0.939 -0.3332 -0.1761  0.2732
12896TIP3    H160103   3.497   0.177   0.936 -1.4532 -1.9651  0.8287
12896TIP3    H260104   3.449   0.320   0.936  1.6231 -0.8374 -1.3501
12897TIP3   OH260105   1.341   1.070  15.994 -0.2506 -0.5547 -0.1297
12897TIP3    H160106   1.355   1.033  15.906  1.9698  3.3291 -1.6895
12897TIP3    H260107   1.256   1.114  15.988 -1.0063 -1.9157  0.3667
12898TIP3   OH260108   1.653   3.398   6.436  0.3755 -0.1427 -0.0624
12898TIP3    H160109   1.637   3.340   6.511  0.0780 -0.5921 -0.4623
12898TIP3    H260110   1.621   3.483   6.464  1.7959  0.1111  0.9372
12899TIP3   OH260111   1.204   6.052  13.778  0.1739  0.1890  0.2968
12899TIP3    H160112   1.164   5.968  13.799 -0.4167  0.6258  0.9536
12899TIP3    H260113   1.147   6.117  13.818  0.2696  0.9444 -0.7351
12900TIP3   OH260114   5.221   6.013   4.141  0.0560  0.0867  0.0091
12900TIP3    H160115   5.170   5.960   4.202 -0.6990 -0.3544 -0.9619
12900TIP3    H260116   5.157   6.044   4.077  1.1419 -1.3822 -1.8874
12901TIP3   OH260117   4.569   0.855  14.956  0.0074 -0.0218  0.5590
12901TIP3    H160118   4.620   0.914  15.010 -0.6349 -1.1990  2.5457
12901TIP3    H260119   4.482   0.897  14.950  0.4379  0.7719 -0.7847
12902TIP3   OH260120   0.234   3.166  12.944  0.3777 -0.5876 -0.2471
12902TIP3    H160121   0.197   3.255  12.942 -2.2424 -1.5836 -0.0456
12902TIP3    H260122   0.252   3.145  12.852  0.2478 -0.1350 -0.3779
12903TIP3   OH260123   3.190   4.071   2.274  0.0881 -0.0047 -0.0519
12903TIP3    H160124   3.098   4.053   2.254 -0.9750  2.0290  2.4619
12903TIP3    H260125   3.216   3.999   2.332 -0.4138  0.2336  0.4771
12904TIP3   OH260126   5.644   2.891  16.675 -0.2129 -0.8535  0.3030
12904TIP3    H160127   5.591   2.969  16.692 -0.1592 -1.1707  2.2569
12904TIP3    H260128   5.580   2.824  16.651 -0.4612 -0.6373  0.3500
12905TIP3   OH260129   3.723   3.590  15.092 -0.4222  0.2716 -0.0235
12905TIP3    H160130   3.813   3.558  15.099  0.0824  1.3440 -1.1618
12905TIP3    H260131   3.698   3.612  15.182  0.7502  0.6935  0.2149
12906TIP3   OH260132   3.678   4.760  16.583  0.0844  0.1528  0.1509
12906TIP3    H160133   3.659   4.674  16.546  0.7992  0.0191  0.0817
12906TIP3    H260134   3.591   4.797  16.602 -0.2185 -0.9336  1.0026
12907TIP3   OH260135   5.444   1.998  11.157  0.2969 -0.5483  0.3949
12907TIP3    H160136   5.443   2.092  11.173 -4.1463  0.1009 -2.0885
12907TIP3    H260137   5.502   1.986  11.082  1.9305 -0.0984  1.5344
12908TIP3   OH260138   1.535   3.882   1.842 -0.4734 -0.5421 -0.3891
12908TIP3    H160139   1.456   3.914   1.885 -0.0487  1.6528 -1.1370
12908TIP3    H260140   1.594   3.858   1.914 -1.0919 -0.3465  0.1912
12909TIP3   OH260141   1.949   6.616  13.557 -0.1009 -0.0416 -0.2947
12909TIP3    H160142   1.949   6.528  13.518  0.1705 -0.5602  0.8125
12909TIP3    H260143   1.971   6.675  13.485  0.3309 -0.9521 -0.9268
12910TIP3   OH260144   1.244   4.664   4.504 -0.2738  0.3658 -0.0552
12910TIP3    H160145   1.275   4.714   4.427 -0.7526  1.6948  0.5785
12910TIP3    H260146   1.223   4.731   4.569 -1.3597 -0.6611  0.6959
12911TIP3   OH260147   4.691   4.598  17.187  0.2062  0.5994 -0.3342
12911TIP3    H160148   4.722   4.602  17.277 -3.4108  0.5428  1.1125
12911TIP3    H260149   4.683   4.504  17.169 -2.2627  0.5318  0.6885
12912TIP3   OH260150   5.092   2.329  12.393 -0.1598  0.4418  0.4010
12912TIP3    H160151   5.007   2.363  12.423 -0.8558  0.3824 -1.3790
12912TIP3    H260152   5.118   2.266  12.460 -0.9119  1.3586  1.5998
12913TIP3   OH260153   6.237   5.558   2.906  0.4868 -0.3867  0.3179
12913TIP3    H160154   6.197   5.514   2.980 -0.8223  0.2555  0.0222
12913TIP3    H260155   6.253   5.647   2.936 -1.1109  0.2170 -0.4711
12914TIP3   OH260156   5.699   2.415  16.881 -0.1708  0.0803  0.3576
12914TIP3    H160157   5.733   2.493  16.926 -0.5862 -0.7820  2.2685
12914TIP3    H260158   5.612   2.441  16.851 -0.3570  0.3212  1.0958
12915TIP3   OH260159   6.025   0.702   1.135  0.2472  0.2843  0.1408
12915TIP3    H160160   5.944   0.717   1.183  0.5627 -0.1555  0.8266
12915TIP3    H260161   6.035   0.607   1.135  0.3135  0.2840 -0.6986
12916TIP3   OH260162   0.597   4.913  16.840 -0.1436 -0.1220 -0.4121
12916TIP3    H160163   0.608   4.819  16.853  0.6504 -0.1387 -1.0850
12916TIP3    H260164   0.586   4.923  16.746  1.6227  0.6024 -0.5809
12917TIP3   OH260165   4.040   5.221  12.623  0.1322  0.3952 -0.2963
12917TIP3    H160166   4.055   5.137  12.667 -2.1984  0.6925  1.2724
12917TIP3    H260167   4.098   5.283  12.667  1.0029 -0.1368 -0.6686
12918TIP3   OH260168   2.906   3.957  14.786  0.2794  0.0500 -0.0078
12918TIP3    H160169   2.978   3.905  14.821 -0.0551  1.0908  2.3919
12918TIP3    H260170   2.829   3.899  14.794  0.4577 -0.2643 -0.5065
12919TIP3   OH260171   3.889   2.940  11.657 -0.3500 -0.1918 -0.9585
12919TIP3    H160172   3.810   2.969  11.703  0.7884  1.4518  0.0820
12919TIP3    H260173   3.860   2.923  11.568 -1.5002  2.7125 -1.2539
12920TIP3   OH260174   5.926   0.368  16.529  0.6252  0.8761 -0.2658
12920TIP3    H160175   5.886   0.312  16.595  1.0982  0.0277 -0.6773
12920TIP3    H260176   5.858   0.382  16.464  0.4707  0.8753 -0.1054
12921TIP3   OH260177   4.643   3.660   6.487 -0.0587  0.2555  0.1887
12921TIP3    H160178   4.575   3.685   6.550  0.2419  0.0371  0.5994
12921TIP3    H260179   4.658   3.567   6.503  0.3650  0.3106  0.1217
12922TIP3   OH260180   0.239   4.397  15.091  0.0114  0.4736  0.1562
12922TIP3    H160181   0.222   4.416  14.999  0.2673  1.0332  0.2202
12922TIP3    H260182   0.153   4.378  15.129  0.1330 -2.6488 -0.7958
12923TIP3   OH260183   3.826   2.199  17.210  0.4417 -0.4943  0.2749
12923TIP3    H160184   3.777   2.233  17.284  1.2345  0.4515  0.3844
12923TIP3    H260185   3.905   2.161  17.249  0.8318 -0.0453 -0.0619
12924TIP3   OH260186   1.726   5.620   2.827 -0.3762  0.1234  0.0402
12924TIP3    H160187   1.695   5.541   2.870  2.0180 -0.3727  1.0135
12924TIP3    H260188   1.750   5.679   2.899 -1.9250  1.6940 -0.6674
12925TIP3   OH260189   2.461   5.709   5.772  0.2006  0.3090 -0.9827
12925TIP3    H160190   2.438   5.641   5.709  0.0170  0.6889 -1.3354
12925TIP3    H260191   2.446   5.791   5.724 -1.8595  0.6753  0.2005
12926TIP3   OH260192   3.661   0.453  13.517  0.1706  0.1383  0.1879
12926TIP3    H160193   3.595   0.522  13.522 -0.1490 -0.1334 -0.2310
12926TIP3    H260194   3.617   0.376  13.555 -0.3349 -0.4760 -1.5631
12927TIP3   OH260195   1.866   3.828  13.828 -0.1309 -0.8301 -0.5323
12927TIP3    H160196   1.958   3.803  13.822  0.5420  1.2809  0.1276
12927TIP3    H260197   1.850   3.879  13.748 -0.5359 -0.6444 -0.3371
12928TIP3   OH260198   5.142   5.346   5.611 -0.4156  0.0044  0.0199
12928TIP3    H160199   5.124   5.377   5.700 -1.4745  0.4122 -0.3225
12928TIP3    H260200   5.079   5.275   5.597 -0.6520  0.3206 -0.5953
12929TIP3   OH260201   1.748   4.951   2.669 -0.2429 -0.1532  0.9574
12929TIP3    H160202   1.834   4.918   2.643 -0.5081 -0.4343  0.4202
12929TIP3    H260203   1.764   5.041   2.696  0.0246  0.2100 -0.3596
12930TIP3   OH260204   5.458   5.614  16.893  0.0764 -0.3160  0.1138
12930TIP3    H160205   5.458   5.680  16.963 -0.2565  0.7565 -0.8727
12930TIP3    H260206   5.447   5.665  16.813 -2.5082 -1.7419 -0.5256
12931TIP3   OH260207   1.829   5.212  15.028  0.8139  0.0483  0.3892
12931TIP3    H160208   1.913   5.172  15.006  1.4113  1.5968 -0.2405
12931TIP3    H260209   1.820   5.201  15.123  2.2833  0.8846  0.6458
12932TIP3   OH260210   6.163   5.546  16.110  0.4014  0.1654  0.0523
12932TIP3    H160211   6.125   5.624  16.070 -0.5386 -0.0418  0.5235
12932TIP3    H260212   6.221   5.511  16.042 -0.2527  0.4883 -0.6834
12933TIP3   OH260213   4.496   1.604   1.159 -0.2130 -0.7696  0.5024
12933TIP3    H160214   4.418   1.636   1.114  0.2403  2.5240  1.7643
12933TIP3    H260215   4.565   1.607   1.093 -0.2397  0.8170  0.5063
12934TIP3   OH260216   2.406   4.708   1.751 -0.6469 -0.3798  0.2516
12934TIP3    H160217   2.405   4.747   1.838  1.2695 -1.5169  0.8466
12934TIP3    H260218   2.343   4.759   1.700 -2.2112 -0.0307  2.4345
12935TIP3   OH260219   0.321   6.730  15.064 -0.9545 -0.1630  0.2486
12935TIP3    H160220   0.275   6.726  14.981 -1.5559 -1.4810  0.6110
12935TIP3    H260221   0.365   6.815  15.064  1.5672 -1.2637 -2.7431
12936TIP3   OH260222   6.674   0.775   4.387  0.6218 -0.3197 -0.5342
12936TIP3    H160223   6.704   0.684   4.396  1.3563  0.0093  0.5160
12936TIP3    H260224   6.579   0.769   4.387  0.6295 -1.2436 -2.3550
12937TIP3   OH260225   5.883   4.581   2.144  0.0843  0.4393  0.0909
12937TIP3    H160226   5.841   4.658   2.106  0.4009 -0.7994 -3.1483
12937TIP3    H260227   5.975   4.606   2.155 -0.0085  0.8153  0.0236
12938TIP3   OH260228   4.271   0.856   1.907 -0.4527  0.3165  0.3646
12938TIP3    H160229   4.261   0.862   1.812  1.3239  0.1163  0.1354
12938TIP3    H260230   4.326   0.931   1.930  0.0335 -0.2489  1.0729
12939TIP3   OH260231   6.440   3.821  11.158 -0.0304  0.0504  0.3276
12939TIP3    H160232   6.518   3.803  11.211 -0.1042 -0.1978  0.3529
12939TIP3    H260233   6.474   3.843  11.071  0.0389 -0.9921  0.0737
12940TIP3   OH260234   5.795   1.583  16.426 -0.0053  0.1099  0.4216
12940TIP3    H160235   5.798   1.676  16.449 -2.2021  0.4293 -0.3390
12940TIP3    H260236   5.797   1.582  16.330 -0.6905 -0.5752  0.4044
12941TIP3   OH260237   1.909   0.572   4.628  0.3509 -0.6088  0.0077
12941TIP3    H160238   1.957   0.565   4.546 -0.5259  0.0770 -0.5803
12941TIP3    H260239   1.907   0.483   4.663 -0.1284 -1.0929 -1.2114
12942TIP3   OH260240   6.317   6.635   3.558  0.6896 -0.0022 -0.0164
12942TIP3    H160241   6.278   6.709   3.605  0.6382 -0.6760  1.0223
12942TIP3    H260242   6.302   6.656   3.465 -1.8121 -0.0188  0.3045
12943TIP3   OH260243   2.329   3.144  14.692 -0.1367 -0.5685  0.0931
12943TIP3    H160244   2.243   3.133  14.732  0.0213 -1.0087  0.3175
12943TIP3    H260245   2.361   3.227  14.728  0.3643 -1.3536  1.5811
12944TIP3   OH260246   1.307   2.285  16.291  0.1303  0.1284  0.2102
12944TIP3    H160247   1.341   2.335  16.217  0.3711 -0.2803  0.0428
12944TIP3    H260248   1.216   2.267  16.269  0.0836  0.3670  0.2059
12945TIP3   OH260249   1.835   4.193  16.130  0.0922 -0.3367  0.2594
12945TIP3    H160250   1.910   4.143  16.160  0.2654 -0.8157 -0.9299
12945TIP3    H260251   1.797   4.230  16.210  0.4041 -1.7309  1.0781
12946TIP3   OH260252   4.972   1.911   4.456 -0.0236  0.5475 -0.0826
12946TIP3    H160253   4.890   1.956   4.433 -0.0070  0.6888  0.1377
12946TIP3    H260254   5.015   1.970   4.517  0.8163  1.0431 -1.1195
12947TIP3   OH260255   4.134   3.172  17.319 -0.4477 -0.4615 -0.0684
12947TIP3    H160256   4.217   3.136  17.287  0.1547  0.4108  0.4725
12947TIP3    H260257   4.160   3.249  17.369 -1.5831 -0.2822  0.2496
12948TIP3   OH260258   1.855   2.612  16.582 -0.3259 -0.2183 -0.3144
12948TIP3    H160259   1.774   2.564  16.600 -0.3320  0.0743  0.5229
12948TIP3    H260260   1.861   2.675  16.654  1.1259 -0.8524  0.1600
12949TIP3   OH260261   4.402   5.861   1.307  0.1425  0.4529  0.2609
12949TIP3    H160262   4.477   5.916   1.285  1.7573 -2.4313 -2.2543
12949TIP3    H260263   4.427   5.819   1.390 -0.3180  2.0494  1.2510
12950TIP3   OH260264   3.206   2.035  16.214  0.3515 -0.5601 -0.1066
12950TIP3    H160265   3.209   1.946  16.178 -2.2471 -1.4712  1.6729
12950TIP3    H260266   3.143   2.030  16.286  2.4755  2.0278  2.1451
12951TIP3   OH260267   6.740   2.099   0.390  0.2209 -0.0151 -0.2708
12951TIP3    H160268   6.763   2.182   0.349  0.9523  0.2725  0.6663
12951TIP3    H260269   6.645   2.093   0.383  0.1410  1.0203 -0.1505
12952TIP3   OH260270   1.396   3.593  12.823  0.1479  0.7362  0.6132
12952TIP3    H160271   1.336   3.550  12.885 -1.3974  0.9738 -0.6466
12952TIP3    H260272   1.406   3.681  12.858 -2.1142  1.4300 -0.2946
12953TIP3   OH260273   4.868   2.231   1.337  0.7151  0.5613  0.5985
12953TIP3    H160274   4.931   2.284   1.288 -0.5566  0.4407 -1.2583
12953TIP3    H260275   4.866   2.147   1.292  0.5328 -0.0796  1.7452
12954TIP3   OH260276   1.853   0.393  15.190 -0.5025 -0.3567 -0.2537
12954TIP3    H160277   1.943   0.374  15.213 -0.4192 -0.1212 -0.3786
12954TIP3    H260278   1.856   0.415  15.097 -0.6088  0.1352 -0.1456
12955TIP3   OH260279   1.978   0.718   2.276 -0.8152  0.2190 -0.1070
12955TIP3    H160280   1.985   0.705   2.371  0.2531 -0.2918 -0.2454
12955TIP3    H260281   2.055   0.769   2.253 -0.4504 -0.6529 -0.8677
12956TIP3   OH260282   2.195   0.465  15.617 -0.0893 -0.0502 -0.4472
12956TIP3    H160283   2.175   0.547  15.572 -0.1318 -0.8290 -1.9198
12956TIP3    H260284   2.161   0.477  15.705 -0.9576  1.1524 -0.9164
12957TIP3   OH260285   4.178   0.505   2.712 -0.5001 -0.5026  0.5648
12957TIP3    H160286   4.267   0.541   2.714 -1.0165  0.8024  1.9205
12957TIP3    H260287   4.188   0.417   2.749  0.4014 -0.8617 -0.4728
12958TIP3   OH260288   6.208   0.321  14.305 -0.1903 -0.5008  0.1967
12958TIP3    H160289   6.293   0.297  14.266 -0.3571 -1.2963  0.2965
12958TIP3    H260290   6.231   0.365  14.387  0.2121  2.5670 -1.4242
12959TIP3   OH260291   0.387   0.374   5.912 -0.1244  0.4334  0.1761
12959TIP3    H160292   0.467   0.340   5.873 -1.2579 -1.3756 -0.7421
12959TIP3    H260293   0.332   0.296   5.925 -2.0368  1.6814 -0.0159
12960TIP3   OH260294   0.812   6.290  13.867 -0.0784 -0.0190  0.3678
12960TIP3    H160295   0.738   6.241  13.902 -1.5610  1.7977 -0.0541
12960TIP3    H260296   0.817   6.265  13.775  1.4684 -1.9842  0.9034
12961TIP3   OH260297   6.049   1.553   4.850 -0.4185  0.0032 -0.8302
12961TIP3    H160298   6.018   1.473   4.893 -1.0864  1.2363  1.1182
12961TIP3    H260299   5.986   1.620   4.877 -0.5024  1.0183 -3.2926
12962TIP3   OH260300   3.929   0.434   0.528  0.1203 -0.5280  0.0083
12962TIP3    H160301   3.863   0.366   0.542  1.0329 -1.3211  0.6138
12962TIP3    H260302   3.899   0.480   0.450 -1.4100 -0.5291  0.5574
12963TIP3   OH260303   2.132   6.114  15.692 -0.5946  0.3578  0.4899
12963TIP3    H160304   2.135   6.205  15.661  4.2985  0.8691  1.6545
12963TIP3    H260305   2.171   6.063  15.620  0.5076 -0.1148  1.3895
12964TIP3   OH260306   6.045   1.835   1.111  0.7486  0.4196 -0.0614
12964TIP3    H160307   6.130   1.801   1.141  0.4532  0.1511  0.4981
12964TIP3    H260308   6.011   1.765   1.055  0.0492 -0.3405  1.2538
12965TIP3   OH260309   5.355   2.803   6.386  0.2874 -0.3512  0.0999
12965TIP3    H160310   5.445   2.825   6.408  0.4873 -1.5716  0.5333
12965TIP3    H260311   5.350   2.816   6.291  1.7015 -2.8081 -0.3991
12966TIP3   OH260312   6.749   2.263   4.498 -0.7226  0.3527 -0.1928
12966TIP3    H160313   6.787   2.302   4.419 -0.5673  0.2453 -0.1707
12966TIP3    H260314   6.745   2.170   4.479  0.4964  0.1559  0.4115
12967TIP3   OH260315   5.627   3.227  13.660  0.1507  0.0911  0.1360
12967TIP3    H160316   5.557   3.292  13.648  1.1368  1.0816 -0.4764
12967TIP3    H260317   5.657   3.241  13.750  0.3026  0.4428  0.0342
12968TIP3   OH260318   1.069   0.766  12.852 -0.4279 -0.2455  0.5608
12968TIP3    H160319   1.037   0.689  12.805  1.1149 -1.3136  1.1712
12968TIP3    H260320   1.051   0.746  12.944 -0.4823  0.3703  0.6854
12969TIP3   OH260321   6.061   1.150   6.562  0.0064 -0.7526 -0.2087
12969TIP3    H160322   6.024   1.160   6.649 -0.9543  1.1740 -0.7739
12969TIP3    H260323   6.156   1.154   6.576 -0.1150 -1.1922  0.8063
12970TIP3   OH260324   0.854   6.113  16.913  0.3387  0.2128  0.2468
12970TIP3    H160325   0.853   6.168  16.834  0.7783 -0.4435 -0.2257
12970TIP3    H260326   0.769   6.129  16.954  0.7642  1.8818  0.5717
12971TIP3   OH260327   3.001   1.305   2.664 -0.5743 -0.1478  0.2498
12971TIP3    H160328   3.019   1.281   2.573  1.7977  1.1396  0.3220
12971TIP3    H260329   3.016   1.224   2.713 -0.1732 -0.4211 -0.3167
12972TIP3   OH260330   4.633   3.098   2.379  0.2141  0.6159 -0.0982
12972TIP3    H160331   4.583   3.097   2.298  2.8860 -1.1639 -1.9085
12972TIP3    H260332   4.568   3.084   2.448 -1.8136 -1.1688 -2.2132
12973TIP3   OH260333   1.784   2.982  11.690 -0.1243 -0.0474 -0.4477
12973TIP3    H160334   1.758   2.978  11.598 -0.0976  1.0987 -0.5123
12973TIP3    H260335   1.756   2.897  11.726  0.9333 -0.9934 -1.7680
12974TIP3   OH260336   0.148   2.461   4.897 -0.0629 -0.1625 -0.0245
12974TIP3    H160337   0.072   2.409   4.870  0.2357 -0.5430 -0.1275
12974TIP3    H260338   0.216   2.438   4.834 -0.4716  1.7369 -1.2409
12975TIP3   OH260339   2.996   4.455   4.071 -0.0600 -0.2511 -0.2475
12975TIP3    H160340   2.918   4.410   4.102  0.5826 -0.7022  0.7770
12975TIP3    H260341   2.997   4.538   4.118  0.6632 -0.7334  0.6304
12976TIP3   OH260342   4.715   0.273   4.684 -0.2916 -0.4074 -0.4075
12976TIP3    H160343   4.759   0.205   4.735  2.7338  0.7997 -1.1932
12976TIP3    H260344   4.782   0.304   4.623 -1.4724  3.3534 -0.0174
12977TIP3   OH260345   0.423   2.055   1.904  0.8238  0.3119 -0.0202
12977TIP3    H160346   0.488   2.112   1.863  1.8969 -0.5572  0.4063
12977TIP3    H260347   0.375   2.112   1.964  0.6838  1.1264 -0.8911
12978TIP3   OH260348   1.168   4.466  17.359 -0.2120  0.3884  0.3509
12978TIP3    H160349   1.183   4.410  17.283 -1.2535 -0.0915  0.4831
12978TIP3    H260350   1.245   4.523  17.362 -0.9733  1.7226 -2.1992
12979TIP3   OH260351   4.333   4.119  15.392 -0.1079 -0.0484  1.0861
12979TIP3    H160352   4.413   4.125  15.340 -1.4257  0.6667 -0.9750
12979TIP3    H260353   4.325   4.205  15.434 -1.2645  0.9551 -1.0681
12980TIP3   OH260354   1.784   1.334   3.934  0.2142 -0.0972 -0.6955
12980TIP3    H160355   1.714   1.360   3.873 -0.5028 -1.1993 -0.3638
12980TIP3    H260356   1.817   1.252   3.898 -1.7399 -2.0152  1.5131
12981TIP3   OH260357   3.245   5.768  12.044  0.2282 -0.0356 -0.7780
12981TIP3    H160358   3.325   5.721  12.066  0.0591 -0.1931 -0.5042
12981TIP3    H260359   3.247   5.775  11.948  0.7673  0.3187 -0.7478
12982TIP3   OH260360   6.546   6.530   4.383 -0.1594  0.1421 -0.1558
12982TIP3    H160361   6.541   6.589   4.307  0.0680  0.6562  0.2246
12982TIP3    H260362   6.522   6.584   4.458 -2.0040 -0.7668 -0.0321
12983TIP3   OH260363   1.992   4.567  11.204 -1.0418 -0.1532 -0.4176
12983TIP3    H160364   2.064   4.543  11.147 -1.3607 -0.2112 -0.8021
12983TIP3    H260365   1.920   4.588  11.145 -1.2296  0.2708 -0.0501
12984TIP3   OH260366   0.649   2.649  14.719  0.7599 -0.2089  0.2191
12984TIP3    H160367   0.586   2.721  14.711  1.2003  0.1555  0.0284
12984TIP3    H260368   0.619   2.600  14.796 -1.0559 -1.3363 -1.1166
12985TIP3   OH260369   0.761   1.921   2.239 -0.2485 -0.1102  0.0955
12985TIP3    H160370   0.738   1.909   2.331  0.2535 -0.7990  0.1478
12985TIP3    H260371   0.857   1.929   2.240 -0.3279  1.0492 -0.2616
12986TIP3   OH260372   1.562   5.910   1.438  0.1079  0.5796  0.0380
12986TIP3    H160373   1.547   5.824   1.477  2.0132  0.6244  1.0128
12986TIP3    H260374   1.648   5.903   1.397  0.7716  2.2676  1.0118
12987TIP3   OH260375   5.621   1.045   4.406  0.0326 -0.5233 -0.7958
12987TIP3    H160376   5.576   1.049   4.491  0.6067  1.9374 -0.5200
12987TIP3    H260377   5.710   1.015   4.428 -0.0436 -0.6322 -0.6324
12988TIP3   OH260378   3.837   5.981   4.855  0.1355  0.1105  0.4106
12988TIP3    H160379   3.756   5.935   4.872 -0.7330  1.9006  1.4522
12988TIP3    H260380   3.898   5.948   4.921 -0.7522  1.0592  1.7557
12989TIP3   OH260381   3.556   5.416  16.626 -0.0058  0.2982  0.1678
12989TIP3    H160382   3.472   5.457  16.606 -1.3894 -1.9483  0.9863
12989TIP3    H260383   3.596   5.401  16.541 -0.7931  0.6924 -0.2856
12990TIP3   OH260384   6.209   6.706   3.050  0.4944  0.6070  0.4370
12990TIP3    H160385   6.190   6.631   2.993 -0.3507 -0.4190  2.0027
12990TIP3    H260386   6.134   6.765   3.037  0.0372  0.1304  0.8496
12991TIP3   OH260387   5.107   5.370  13.973 -0.2476 -0.0382  0.0945
12991TIP3    H160388   5.137   5.329  14.054  0.9037  0.6687  0.0521
12991TIP3    H260389   5.031   5.422  13.999  0.1923  0.2912  0.7643
12992TIP3   OH260390   5.889   0.961   4.464 -0.4123 -0.4379  0.9240
12992TIP3    H160391   5.891   0.893   4.397 -0.1977  0.5860 -0.1592
12992TIP3    H260392   5.978   0.961   4.500 -0.3716 -0.6476  0.8249
12993TIP3   OH260393   3.892   5.066  13.284 -0.1908 -0.6506 -0.2928
12993TIP3    H160394   3.888   5.026  13.198  0.3564 -2.5961  0.5265
12993TIP3    H260395   3.814   5.121  13.289 -0.7638 -1.3024 -1.6381
12994TIP3   OH260396   1.878   5.180   3.073 -0.0183 -0.2158  0.3672
12994TIP3    H160397   1.895   5.086   3.066 -1.0815 -0.3771 -0.2884
12994TIP3    H260398   1.942   5.221   3.014 -1.0182 -0.7069 -1.0944
12995TIP3   OH260399   2.257   5.755  16.274  0.3057  0.3701  0.2272
12995TIP3    H160400   2.183   5.815  16.258 -0.3855 -1.0991 -2.7807
12995TIP3    H260401   2.312   5.764  16.197  0.0187 -2.9571 -0.5334
12996TIP3   OH260402   3.620   2.848   0.322  0.1613  0.0225 -0.1920
12996TIP3    H160403   3.542   2.793   0.326 -0.1215  0.4780  1.7319
12996TIP3    H260404   3.645   2.849   0.230 -0.2696 -2.6930 -0.4156
12997TIP3   OH260405   6.558   4.671   4.173  0.0649  0.3290 -0.1473
12997TIP3    H160406   6.616   4.624   4.234  0.3569  1.5837  0.5807
12997TIP3    H260407   6.539   4.608   4.104  1.4102 -0.4738  0.1839
12998TIP3   OH260408   0.069   3.611  11.318 -0.0977  0.2037 -0.3273
12998TIP3    H160409  -0.017   3.646  11.344  0.2745 -0.3135  1.7138
12998TIP3    H260410   0.130   3.683  11.336  0.1735 -0.1750  0.2653
12999TIP3   OH260411   3.672   6.074  10.955  0.0708 -0.3344 -0.7580
12999TIP3    H160412   3.613   6.052  10.882 -1.4015 -1.1996  0.6113
12999TIP3    H260413   3.614   6.081  11.031  1.7084 -0.7748  0.5930
13000TIP3   OH260414   1.999   5.857  14.013  0.6110 -0.5404 -0.0131
13000TIP3    H160415   1.913   5.895  14.031  0.8022 -0.3930  0.6017
13000TIP3    H260416   1.981   5.764  13.997  0.2536 -0.3736 -0.6246
13001TIP3   OH260417   2.816   0.843   3.343 -0.2318  0.0467  0.3626
13001TIP3    H160418   2.760   0.853   3.419 -2.9278  0.8151 -1.5807
13001TIP3    H260419   2.794   0.757   3.308 -0.7132  0.6165 -0.7851
13002TIP3   OH260420   4.335   3.884   2.774  0.4243  0.2377  0.5245
13002TIP3    H160421   4.348   3.959   2.833  0.0239 -0.2850  1.3037
13002TIP3    H260422   4.348   3.920   2.686 -1.7835  1.7100  0.7190
13003TIP3   OH260423   3.105   0.550   0.274  0.1755 -0.1799  0.4013
13003TIP3    H160424   3.064   0.491   0.338 -2.4457  1.8453  0.7326
13003TIP3    H260425   3.162   0.606   0.326  1.4639 -1.3162  0.2860
13004TIP3   OH260426   6.210   5.015  14.076  0.4297 -0.7243  0.9618
13004TIP3    H160427   6.211   5.053  14.164 -2.3376  1.5402  0.1648
13004TIP3    H260428   6.178   4.926  14.089 -0.4977 -0.2312  2.2355
13005TIP3   OH260429   2.224   2.039  13.107  0.4241 -0.1293  0.0181
13005TIP3    H160430   2.153   2.095  13.078  0.4761 -0.0173  0.1058
13005TIP3    H260431   2.180   1.965  13.149  0.3446 -0.4217 -0.5724
13006TIP3   OH260432   4.667   0.069   3.804  0.4592 -0.5254  0.3650
13006TIP3    H160433   4.714   0.152   3.813 -0.4206  0.0597 -0.2569
13006TIP3    H260434   4.699   0.015   3.877  2.3057 -0.2767 -0.2161
13007TIP3   OH260435   4.753   4.036  14.331  0.2705 -0.1758 -0.0069
13007TIP3    H160436   4.694   4.052  14.258 -0.0913  1.2563  0.5694
13007TIP3    H260437   4.698   4.046  14.409  1.6887  4.0055  0.7080
13008TIP3   OH260438   2.061   0.836   0.233 -0.4200  0.1043 -0.3236
13008TIP3    H160439   2.102   0.802   0.153  0.7617  1.0284 -0.1479
13008TIP3    H260440   1.999   0.902   0.202 -1.8419 -1.2983 -0.5918
13009TIP3   OH260441   0.113   4.270  13.895  0.7064 -0.1179 -0.0744
13009TIP3    H160442   0.174   4.210  13.938 -0.6511 -0.6116  1.2616
13009TIP3    H260443   0.115   4.349  13.948  0.1249 -0.1684  0.0269
13010TIP3   OH260444   2.145   6.299   6.263 -0.0980  0.5313  0.1496
13010TIP3    H160445   2.162   6.378   6.315  1.2791  0.4107 -0.0895
13010TIP3    H260446   2.109   6.236   6.326 -2.7371  1.8062  0.0493
13011TIP3   OH260447   6.538   1.983   2.825  0.1197  0.0926 -0.8350
13011TIP3    H160448   6.587   1.977   2.907 -1.5663  0.0926  0.2279
13011TIP3    H260449   6.601   2.018   2.762  0.9368  2.0734  0.9361
13012TIP3   OH260450   4.501   5.334   1.593 -0.0845 -0.3237 -0.1715
13012TIP3    H160451   4.434   5.318   1.659 -2.4869  0.9888 -2.1268
13012TIP3    H260452   4.454   5.330   1.510  2.1568  1.2871 -1.6341
13013TIP3   OH260453   3.666   3.879   4.023  0.0727  0.0095  0.4495
13013TIP3    H160454   3.712   3.838   3.950  1.6563 -0.0444  1.4369
13013TIP3    H260455   3.634   3.805   4.075 -3.5174 -0.0574 -1.5167
13014TIP3   OH260456   0.730   3.399  10.760 -0.4813  0.0082 -0.0162
13014TIP3    H160457   0.804   3.360  10.806 -0.0305  1.6225  0.7287
13014TIP3    H260458   0.653   3.365  10.804 -0.0896  0.2873  0.9039
13015TIP3   OH260459   6.160   5.599   2.518  0.0879 -0.1236 -0.2469
13015TIP3    H160460   6.217   5.657   2.468 -1.5867  0.5887 -1.4162
13015TIP3    H260461   6.114   5.548   2.452 -0.6570 -0.6541  0.6683
13016TIP3   OH260462   1.445   5.046   2.921  0.0202 -0.3380 -0.3429
13016TIP3    H160463   1.427   5.081   3.008 -0.2619  0.7612 -0.8291
13016TIP3    H260464   1.372   5.078   2.867 -1.0474 -2.8542 -0.5277
13017TIP3   OH260465   4.789   5.129  12.380 -0.0059  0.5526  0.5866
13017TIP3    H160466   4.856   5.060  12.384  0.3646  0.8828  4.7840
13017TIP3    H260467   4.835   5.209  12.405 -1.5065  1.2016  1.4306
13018TIP3   OH260468   0.782   3.070  17.076 -0.2253 -0.2415 -0.1726
13018TIP3    H160469   0.724   3.091  17.150 -2.6575 -0.3206 -1.9269
13018TIP3    H260470   0.723   3.031  17.011  1.6949  0.4159 -2.4144
13019TIP3   OH260471   2.296   5.424  16.564 -0.3049 -0.2803  0.5348
13019TIP3    H160472   2.291   5.480  16.642 -3.1657  0.4155 -0.0380
13019TIP3    H260473   2.230   5.459  16.505 -0.0834 -2.4436 -1.1188
13020TIP3   OH260474   0.366   1.125  13.422 -0.6096 -0.4878 -0.6515
13020TIP3    H160475   0.284   1.174  13.416 -0.1810  0.5752  1.3200
13020TIP3    H260476   0.359   1.076  13.504  1.1059  0.3964  0.0663
13021TIP3   OH260477   2.999   1.820  12.576  0.2148 -0.3342 -0.3110
13021TIP3    H160478   2.959   1.808  12.491  1.9827  0.2623 -1.2838
13021TIP3    H260479   2.933   1.790  12.639 -1.6449  0.4615 -1.7918
13022TIP3   OH260480   1.834   3.524   2.034  0.3781  0.5684  0.4700
13022TIP3    H160481   1.881   3.487   2.109  1.8409  2.6667  0.6483
13022TIP3    H260482   1.741   3.517   2.059  0.6106 -1.8994  0.9220
13023TIP3   OH260483   2.677   0.858  13.804  0.0160  0.2419 -0.6407
13023TIP3    H160484   2.718   0.879  13.888 -1.4435  0.2853  0.1086
13023TIP3    H260485   2.711   0.924  13.744  0.4577  0.7344  0.1248
13024TIP3   OH260486   5.918   4.838   5.209 -0.1411  0.0788 -0.0174
13024TIP3    H160487   5.833   4.850   5.166 -0.7099  0.7517  1.2351
13024TIP3    H260488   5.914   4.894   5.286  0.1920 -2.2975  1.8332
13025TIP3   OH260489   0.983   0.069   4.977  0.2724 -0.3552 -0.3368
13025TIP3    H160490   1.003   0.136   5.042  0.7160 -0.8470  0.0452
13025TIP3    H260491   1.021   0.103   4.895  0.5515 -0.1685 -0.1348
13026TIP3   OH260492   1.315   5.762   4.047  0.2133 -0.3829 -0.4335
13026TIP3    H160493   1.330   5.672   4.074 -3.1457 -0.2545  2.7322
13026TIP3    H260494   1.248   5.756   3.978  0.8978 -0.3000 -1.1222
13027TIP3   OH260495   3.364   2.744   6.460 -0.1160  0.0391  0.2591
13027TIP3    H160496   3.296   2.701   6.512  0.7569 -1.5013  0.2017
13027TIP3    H260497   3.323   2.824   6.427 -1.2639  0.1238  1.8073
13028TIP3   OH260498   1.879   0.556  16.618 -0.2597  0.0377 -0.3183
13028TIP3    H160499   1.866   0.491  16.549  0.1178 -0.4022  0.0224
13028TIP3    H260500   1.814   0.624  16.599  0.8077  0.6666 -2.0025
13029TIP3   OH260501   6.754   4.540   4.318 -0.0648  0.1332 -0.5110
13029TIP3    H160502   6.828   4.592   4.349  1.3712 -1.2880 -1.3760
13029TIP3    H260503   6.718   4.500   4.398 -0.6133  1.6789  0.0422
13030TIP3   OH260504   5.025   1.839  15.857 -0.0499 -0.2769 -0.0062
13030TIP3    H160505   5.094   1.905  15.852  0.3341 -0.6921 -0.2888
13030TIP3    H260506   4.965   1.871  15.924  0.3947  0.1131  0.2081
13031TIP3   OH260507   5.875   2.569   4.489 -0.0045  0.6470 -0.3377
13031TIP3    H160508   5.920   2.648   4.460  1.8543 -0.4830 -0.6644
13031TIP3    H260509   5.876   2.511   4.412  0.0772 -0.2967  0.3635
13032TIP3   OH260510   2.164   6.099   0.218  0.1942  0.3006  0.4926
13032TIP3    H160511   2.200   6.141   0.296  0.6278 -0.2908  0.6231
13032TIP3    H260512   2.233   6.038   0.190  0.7613  1.7080 -1.3523
13033TIP3   OH260513   5.448   4.689   1.738 -0.3295 -0.1267 -0.7328
13033TIP3    H160514   5.462   4.617   1.799 -2.1716  0.0567 -0.0383
13033TIP3    H260515   5.507   4.670   1.665  0.9953 -1.0167  0.5124
13034TIP3   OH260516   4.222   5.512   5.831  0.1954  0.2487  0.3540
13034TIP3    H160517   4.219   5.449   5.759  0.8884 -1.3987  1.7077
13034TIP3    H260518   4.313   5.511   5.859 -0.1391  0.6045  1.4788
13035TIP3   OH260519   3.363   2.757  13.721  0.3873  0.0457 -0.0067
13035TIP3    H160520   3.390   2.838  13.678 -1.5928  1.6979  1.6531
13035TIP3    H260521   3.287   2.727  13.671  0.8317 -0.5579 -0.3345
13036TIP3   OH260522   4.021   6.079   2.054  0.0424 -0.5546 -0.3685
13036TIP3    H160523   3.997   6.004   2.001  0.0451 -0.2549 -0.8003
13036TIP3    H260524   4.021   6.153   1.993 -2.4295  0.2662  0.5086
13037TIP3   OH260525   0.379   5.040  14.852  0.5841 -0.3127 -0.6874
13037TIP3    H160526   0.313   5.090  14.804  0.2163 -0.9664 -0.8817
13037TIP3    H260527   0.329   4.991  14.917  1.0580  0.4292  0.2712
13038TIP3   OH260528   3.967   2.490  15.566  0.0858  0.1256  0.6128
13038TIP3    H160529   4.056   2.461  15.545 -0.6431 -1.8561 -0.0508
13038TIP3    H260530   3.915   2.459  15.491 -1.3342  0.1574  1.5629
13039TIP3   OH260531   5.909   4.386   6.298 -0.3779 -0.0080  0.4575
13039TIP3    H160532   5.929   4.381   6.391 -0.9395 -1.2733  0.5304
13039TIP3    H260533   5.995   4.387   6.255 -0.1125 -0.4950  0.9558
13040TIP3   OH260534   3.798   0.142   4.816  0.2089 -0.0203 -0.6040
13040TIP3    H160535   3.753   0.164   4.897  1.2393  3.2470 -0.7477
13040TIP3    H260536   3.884   0.110   4.844  0.7542  1.5877 -0.3308
13041TIP3   OH260537   4.434   2.289   2.708 -0.4301 -0.1005 -0.2077
13041TIP3    H160538   4.447   2.377   2.744  1.2616  0.1029 -1.2237
13041TIP3    H260539   4.354   2.258   2.751 -0.4249  1.4631  1.0517
13042TIP3   OH260540   2.402   1.091  14.974  0.1852  0.3959  0.3755
13042TIP3    H160541   2.369   1.134  14.896  1.3508 -0.6125 -0.7099
13042TIP3    H260542   2.474   1.146  15.004 -0.5865  1.0597  1.0805
13043TIP3   OH260543   4.038   4.237  14.227  0.0591 -0.2452  0.3486
13043TIP3    H160544   3.971   4.181  14.188  1.1256 -1.4734  0.2052
13043TIP3    H260545   4.095   4.261  14.155  0.1721  0.2234  0.5890
13044TIP3   OH260546   0.221   2.263   2.180 -0.0654  0.1150  0.5230
13044TIP3    H160547   0.203   2.353   2.154 -0.1084  0.0920  0.4717
13044TIP3    H260548   0.232   2.267   2.275  2.6747  0.6367  0.2648
13045TIP3   OH260549   2.890   5.276   4.018  0.1470  0.1472  0.3772
13045TIP3    H160550   2.817   5.243   3.966  0.5043  0.9891 -0.6812
13045TIP3    H260551   2.864   5.258   4.109 -1.7822  1.1496  0.0916
13046TIP3   OH260552   5.378   2.773  13.997  0.1801 -0.5385 -0.2109
13046TIP3    H160553   5.447   2.719  13.958  1.6210  0.9985  0.0776
13046TIP3    H260554   5.420   2.813  14.073 -1.4071 -0.4378  0.6587
13047TIP3   OH260555   2.360   0.347   0.444 -0.1376  0.0964  0.1705
13047TIP3    H160556   2.412   0.267   0.455  1.5420  1.1528  0.2589
13047TIP3    H260557   2.313   0.333   0.362  0.8239 -0.6366 -0.2828
13048TIP3   OH260558   2.782   5.406   2.625 -0.3584 -0.4011  0.1282
13048TIP3    H160559   2.803   5.499   2.629 -3.0683  0.2716  0.3066
13048TIP3    H260560   2.867   5.363   2.617  0.9674  2.0675 -0.0188
13049TIP3   OH260561   6.648   1.618   0.621  0.3366  0.4779 -0.7029
13049TIP3    H160562   6.626   1.666   0.701 -0.6116  0.7164 -1.0967
13049TIP3    H260563   6.743   1.603   0.628  0.1190 -0.3943  0.9393
13050TIP3   OH260564   4.456   1.527   5.867 -0.6329  0.6640 -0.1348
13050TIP3    H160565   4.423   1.615   5.851 -1.1759  0.4240 -0.3543
13050TIP3    H260566   4.486   1.529   5.957 -1.1538  0.9156  0.0372
13051TIP3   OH260567   6.120   1.519   5.262  0.0453  0.2500  0.7990
13051TIP3    H160568   6.109   1.602   5.217  1.3291  0.8883  1.6092
13051TIP3    H260569   6.083   1.532   5.349 -0.7766 -0.3996  0.5617
13052TIP3   OH260570   3.120   3.489   6.087  0.0939  0.1780  0.3259
13052TIP3    H160571   3.064   3.567   6.086 -2.1012 -1.3121 -0.8932
13052TIP3    H260572   3.118   3.459   6.178 -1.3503  0.0055  0.2546
13053TIP3   OH260573   3.918   6.041   1.780  0.3618  0.6950  0.1081
13053TIP3    H160574   3.918   6.089   1.697 -0.1238 -0.4436 -0.5808
13053TIP3    H260575   3.895   5.951   1.756 -1.5069  0.6819  1.6698
13054TIP3   OH260576   3.768   6.500  13.044 -0.0456 -0.0585  0.3912
13054TIP3    H160577   3.725   6.433  12.991 -0.5389  0.6506 -0.1245
13054TIP3    H260578   3.768   6.578  12.988  1.4796  0.0910  0.5621
13055TIP3   OH260579   2.828   3.015  16.861  0.5295 -0.5493  0.4999
13055TIP3    H160580   2.802   3.102  16.889  0.2274 -0.6031  0.3933
13055TIP3    H260581   2.911   2.999  16.905  0.2357 -0.4942  1.0844
13056TIP3   OH260582   6.546   5.172   5.688 -0.0541  0.8389  0.0027
13056TIP3    H160583   6.540   5.102   5.624 -1.5391  0.6643  0.3063
13056TIP3    H260584   6.528   5.252   5.638 -0.1373  0.8155 -0.0047
13057TIP3   OH260585   3.901   5.009  15.472  0.1668 -0.4123 -0.5022
13057TIP3    H160586   3.934   5.095  15.499  0.1546  0.0578 -1.8996
13057TIP3    H260587   3.929   4.950  15.542  1.3706  0.4913 -0.1786
13058TIP3   OH260588   2.215   5.541   5.960 -0.3034 -0.4921 -0.0792
13058TIP3    H160589   2.227   5.560   6.053  0.6156 -2.7666  0.3430
13058TIP3    H260590   2.303   5.524   5.927 -0.8429 -2.5994 -0.6145
13059TIP3   OH260591   4.383   1.235   4.655  0.2698  0.2701 -0.1088
13059TIP3    H160592   4.294   1.260   4.680  0.0129 -0.2139 -0.5349
13059TIP3    H260593   4.385   1.243   4.560  0.3808 -0.6887 -0.1936
13060TIP3   OH260594   6.134   1.467   4.605  0.5061 -0.4319  0.5701
13060TIP3    H160595   6.077   1.402   4.563  1.5593 -0.5515 -0.7564
13060TIP3    H260596   6.094   1.482   4.691 -2.5619  0.7958 -0.8862
13061TIP3   OH260597   0.251   5.676   1.790 -0.6624 -0.0537 -0.4300
13061TIP3    H160598   0.187   5.711   1.852  0.1007 -1.1832  1.0451
13061TIP3    H260599   0.212   5.595   1.758 -1.2621  0.7516 -1.8532
13062TIP3   OH260600   3.508   2.988  11.463  0.2284  0.2527  0.4874
13062TIP3    H160601   3.503   2.963  11.370  1.8779  1.1489  0.1210
13062TIP3    H260602   3.416   2.991  11.492 -0.3645  0.5335 -1.2712
13063TIP3   OH260603   1.077   2.084  13.072  0.7387 -0.1140 -0.3098
13063TIP3    H160604   1.023   2.151  13.114  0.2255 -0.6532 -0.0972
13063TIP3    H260605   1.141   2.060  13.138 -0.3237 -1.2597  0.3545
13064TIP3   OH260606   1.615   3.850   6.345  0.0177  0.1319 -0.1326
13064TIP3    H160607   1.659   3.766   6.352 -0.6118 -0.2778 -0.8890
13064TIP3    H260608   1.528   3.836   6.384 -0.4223  0.1634 -1.0721
13065TIP3   OH260609   0.717   4.641  10.531 -0.3948  0.0748  0.4193
13065TIP3    H160610   0.746   4.704  10.598 -0.4099  1.5850 -0.9314
13065TIP3    H260611   0.678   4.570  10.581  0.5159  0.6626  2.0582
13066TIP3   OH260612   0.383   4.522   0.836 -0.2419 -0.6073  0.6154
13066TIP3    H160613   0.300   4.567   0.851  0.5151  1.0286  0.1315
13066TIP3    H260614   0.430   4.530   0.919 -0.1487 -0.6139  0.5635
13067TIP3   OH260615   5.276   3.014  16.423 -0.6623  0.3212  0.4567
13067TIP3    H160616   5.204   3.027  16.484 -0.8877 -0.2208  0.3144
13067TIP3    H260617   5.353   3.051  16.467 -0.8132 -0.1009  1.0770
13068TIP3   OH260618   1.452   1.090   4.566 -0.2434  0.2875  0.0373
13068TIP3    H160619   1.467   1.024   4.633  0.7326 -0.2533 -0.6913
13068TIP3    H260620   1.476   1.048   4.483  0.5058  1.5730 -0.4379
13069TIP3   OH260621   5.899   4.680  13.249  0.1944 -0.0565  0.4533
13069TIP3    H160622   5.993   4.674  13.233  0.2238 -0.6975  0.8371
13069TIP3    H260623   5.863   4.714  13.167  0.9449  1.8796  0.8758
13070TIP3   OH260624   5.656   3.845   4.452  0.1948  0.2949  0.5353
13070TIP3    H160625   5.606   3.844   4.533 -0.4172 -0.4915  0.1605
13070TIP3    H260626   5.728   3.783   4.467  0.4987  0.6972  0.7345
13071TIP3   OH260627   0.572   6.513   0.864 -0.3846  0.0343 -0.0856
13071TIP3    H160628   0.628   6.580   0.824 -2.0787  0.5956 -1.6323
13071TIP3    H260629   0.513   6.562   0.921  0.0983 -0.4580  0.8580
13072TIP3   OH260630   6.435   4.834   1.710  0.3152 -0.1405 -0.1782
13072TIP3    H160631   6.377   4.759   1.699 -0.9742  0.8160 -0.2488
13072TIP3    H260632   6.397   4.902   1.653 -0.2351  1.4689  1.9629
13073TIP3   OH260633   4.469   3.251   5.663 -0.2897  0.3685  0.2363
13073TIP3    H160634   4.485   3.186   5.732 -0.7188 -0.3820 -0.3558
13073TIP3    H260635   4.433   3.327   5.709  0.0423  0.1179  0.9194
13074TIP3   OH260636   0.412   0.782   0.187  0.7740  0.0919  0.3915
13074TIP3    H160637   0.326   0.822   0.176  0.6038 -0.7152 -1.5908
13074TIP3    H260638   0.463   0.813   0.112  1.9516 -0.1221  1.0714
13075TIP3   OH260639   3.328   0.210  17.047  0.2434 -0.1140  0.0566
13075TIP3    H160640   3.335   0.293  16.999  2.6569 -0.0311  0.4447
13075TIP3    H260641   3.353   0.232  17.137 -0.8312 -0.9443  0.5787
13076TIP3   OH260642   0.851   0.041   5.275  1.1821 -0.3761  0.0202
13076TIP3    H160643   0.842  -0.043   5.319 -0.3313 -0.5153 -0.5054
13076TIP3    H260644   0.866   0.019   5.183  2.3402 -0.0705  0.1227
13077TIP3   OH260645   0.654   6.593  12.791 -0.1558  0.2673 -0.5653
13077TIP3    H160646   0.643   6.607  12.885 -0.5044 -0.3762 -0.5028
13077TIP3    H260647   0.677   6.679  12.756  1.6989  0.1858  0.3401
13078TIP3   OH260648   2.195   1.064   0.014 -0.6602 -0.0768  0.6668
13078TIP3    H160649   2.108   1.028  -0.003 -0.2613  0.4017 -3.6393
13078TIP3    H260650   2.183   1.159   0.015 -0.2257  0.0121 -0.3498
13079TIP3   OH260651   1.889   1.445  13.610  0.0244 -0.2594  0.2706
13079TIP3    H160652   1.965   1.431  13.555 -0.0674  0.8191 -0.1636
13079TIP3    H260653   1.874   1.361  13.653 -0.8930 -1.6354 -2.5532
13080TIP3   OH260654   3.372   6.321  17.101 -0.2664 -0.3883  0.4266
13080TIP3    H160655   3.409   6.305  17.015 -1.9450 -1.6069 -0.1114
13080TIP3    H260656   3.321   6.401  17.090  1.7649  1.0956  1.0832
13081TIP3   OH260657   4.956   4.232  11.619 -0.3774 -0.1569 -0.3619
13081TIP3    H160658   4.921   4.277  11.542  1.9712 -1.6241 -2.4358
13081TIP3    H260659   5.036   4.191  11.588  1.3503  0.1388  3.2017
13082TIP3   OH260660   6.207   1.839   4.251 -0.3488  0.3335 -0.0579
13082TIP3    H160661   6.191   1.924   4.292  0.5373  0.3696  0.2306
13082TIP3    H260662   6.284   1.853   4.196 -1.3200  0.1934 -1.5063
13083TIP3   OH260663   6.613   2.653  15.844 -0.5278  0.3829 -0.0361
13083TIP3    H160664   6.688   2.599  15.867 -0.4808 -0.0204 -1.0752
13083TIP3    H260665   6.600   2.710  15.920 -0.7593 -1.2663  1.2259
13084TIP3   OH260666   5.651   0.572   0.240  0.6466  0.5442  0.1347
13084TIP3    H160667   5.743   0.582   0.264  0.8810 -2.4566  0.9686
13084TIP3    H260668   5.606   0.561   0.324 -0.2204  0.4757 -0.3260
13085TIP3   OH260669   1.345   5.142   4.407 -0.4781  0.2072 -0.1510
13085TIP3    H160670   1.345   5.112   4.498  0.9618 -2.8458 -1.0341
13085TIP3    H260671   1.435   5.169   4.391 -0.9652  1.7661 -0.4264
13086TIP3   OH260672   0.606   1.094  13.605  0.6698  0.0057 -0.8925
13086TIP3    H160673   0.514   1.070  13.619  0.5498  1.1968  0.7919
13086TIP3    H260674   0.655   1.014  13.622  0.0382 -0.1581  0.3302
13087TIP3   OH260675   5.470   4.376  15.600 -0.1223 -0.3798  0.1074
13087TIP3    H160676   5.521   4.307  15.557  0.7304  0.0534  0.3966
13087TIP3    H260677   5.484   4.454  15.547  0.5502  0.0435  0.8812
13088TIP3   OH260678   6.159   1.328  14.965 -0.9319 -0.3445  0.4817
13088TIP3    H160679   6.251   1.302  14.955 -0.5635  0.2581  1.9937
13088TIP3    H260680   6.157   1.376  15.048 -2.5845 -0.1690  0.3676
13089TIP3   OH260681   3.515   3.182  15.156  0.2661 -0.2637  0.1150
13089TIP3    H160682   3.466   3.127  15.094 -0.8762  1.6770 -0.8010
13089TIP3    H260683   3.448   3.216  15.216  0.4589  2.0822 -0.8798
13090TIP3   OH260684   3.171   6.604  16.128 -0.0817 -0.1948  0.6727
13090TIP3    H160685   3.088   6.652  16.124 -1.6766 -2.7973 -0.4121
13090TIP3    H260686   3.145   6.512  16.121  3.0531 -1.0459 -4.1992
13091TIP3   OH260687   0.707   0.222   0.555 -0.1122 -0.1462  0.5140
13091TIP3    H160688   0.696   0.282   0.481 -1.6473 -1.8213 -0.7340
13091TIP3    H260689   0.800   0.200   0.553  0.1697  0.9919  0.0351
13092TIP3   OH260690   2.062   1.636   0.011 -0.4787  0.0561 -0.0823
13092TIP3    H160691   2.018   1.592  -0.062  0.0001 -1.5015  0.5139
13092TIP3    H260692   2.043   1.580   0.087  1.8997 -0.3141  0.3229
13093TIP3   OH260693   4.149   2.391  12.420 -0.3887  0.4619  0.0127
13093TIP3    H160694   4.173   2.321  12.480  0.2762  0.0535 -0.7038
13093TIP3    H260695   4.113   2.460  12.476  1.9677  0.8799  1.1299
13094TIP3   OH260696   2.201   2.001   3.820  0.1618 -0.0068  0.4836
13094TIP3    H160697   2.215   1.907   3.810  1.5952  0.1418  0.8072
13094TIP3    H260698   2.155   2.028   3.741  1.2588 -0.7067 -0.4190
13095TIP3   OH260699   6.711   0.063   3.208  0.1140 -0.2323  0.6155
13095TIP3    H160700   6.699   0.147   3.164 -2.2297 -0.5829  0.4453
13095TIP3    H260701   6.724   0.000   3.137 -0.5951 -0.3465  0.5764
13096TIP3   OH260702   6.608   0.400  14.811 -0.3684  0.2988  0.0187
13096TIP3    H160703   6.628   0.438  14.897  1.6072  0.8574 -0.6210
13096TIP3    H260704   6.628   0.471  14.749 -1.4807 -0.1896 -0.9172
13097TIP3   OH260705   0.319   4.749   1.505 -0.1843 -0.0260  0.7506
13097TIP3    H160706   0.241   4.707   1.541 -0.7136  0.7188  0.4970
13097TIP3    H260707   0.316   4.728   1.411  0.8377 -1.4085  0.9956
13098TIP3   OH260708   0.642   2.691  15.652  0.1696  0.5597 -0.1803
13098TIP3    H160709   0.679   2.773  15.686 -0.3665 -0.2997  2.6999
13098TIP3    H260710   0.556   2.717  15.616 -1.3987  0.9718  3.4637
13099TIP3   OH260711   0.029   1.952  15.821 -0.2579  0.7424 -0.0811
13099TIP3    H160712   0.017   2.002  15.740 -0.4609  0.8942  0.0423
13099TIP3    H260713  -0.036   1.988  15.882  0.5220  1.2858  0.4577
13100TIP3   OH260714   3.759   2.030   3.397 -0.0884 -0.2185 -0.5731
13100TIP3    H160715   3.733   1.990   3.315 -0.4776 -0.0850 -0.5181
13100TIP3    H260716   3.804   2.111   3.372  1.7342 -1.2270 -0.7317
13101TIP3   OH260717   6.208   4.999   3.013  0.1777  0.6077 -0.2831
13101TIP3    H160718   6.225   4.990   2.919 -0.3948 -1.1877 -0.2542
13101TIP3    H260719   6.286   5.043   3.047  0.9675  0.1223 -1.3994
13102TIP3   OH260720   2.839   0.832  14.555 -0.3553  0.6235 -0.2858
13102TIP3    H160721   2.809   0.749  14.590  0.8633  0.4596  0.4307
13102TIP3    H260722   2.770   0.895  14.577 -0.8646 -0.0138 -0.0467
13103TIP3   OH260723   1.460   0.731   6.159  0.3676 -0.0561  0.0248
13103TIP3    H160724   1.394   0.676   6.202  0.1205 -0.7862 -1.2504
13103TIP3    H260725   1.543   0.698   6.193  0.1224  1.4029  2.2755
13104TIP3   OH260726   4.589   5.313   2.046 -0.3690  0.4126 -0.1200
13104TIP3    H160727   4.510   5.306   1.992 -1.3956 -1.9277  1.4899
13104TIP3    H260728   4.643   5.238   2.020  0.2633  0.6873  0.3698
13105TIP3   OH260729   6.168   2.510  16.940 -0.2910  0.0255  0.2877
13105TIP3    H160730   6.261   2.531  16.948  0.0412 -0.9561 -0.8615
13105TIP3    H260731   6.124   2.581  16.987  0.9819  1.0005  0.0513
13106TIP3   OH260732   5.997   5.760   1.558  0.5333 -0.7503 -0.1492
13106TIP3    H160733   6.091   5.751   1.571  0.8530 -0.1247 -1.7946
13106TIP3    H260734   5.959   5.735   1.642  2.1902 -0.3581  0.7649
13107TIP3   OH260735   4.150   2.896   2.813 -0.5206 -0.4108  0.5602
13107TIP3    H160736   4.204   2.854   2.880 -1.6679  0.1714  1.9013
13107TIP3    H260737   4.188   2.983   2.803 -0.5090 -0.4063  0.6419
13108TIP3   OH260738   0.806   2.785  14.540  0.3314  0.2047  0.0939
13108TIP3    H160739   0.863   2.743  14.605  0.1993 -0.1599 -0.0228
13108TIP3    H260740   0.718   2.755  14.564  0.0770  1.4396  0.7990
13109TIP3   OH260741   6.732   3.291  12.217  0.4526  0.8337  0.6612
13109TIP3    H160742   6.716   3.382  12.241  0.3688  2.2606 -3.8558
13109TIP3    H260743   6.820   3.291  12.180 -0.5043 -0.2171 -1.8174
13110TIP3   OH260744   0.957   0.502   3.316 -0.2003 -0.3141 -0.4713
13110TIP3    H160745   0.887   0.504   3.381 -0.9077 -1.0327 -1.1905
13110TIP3    H260746   1.034   0.471   3.365 -0.9743 -1.8863 -0.1744
13111TIP3   OH260747   3.120   5.399   5.191  0.1233 -0.3287  0.1487
13111TIP3    H160748   3.113   5.324   5.132 -0.7543  0.5300 -0.9032
13111TIP3    H260749   3.050   5.458   5.162  0.3605  0.5953  1.3822
13112TIP3   OH260750   2.852   5.750   4.936 -0.0957  0.4100 -0.1117
13112TIP3    H160751   2.783   5.782   4.878  1.6339  1.7572 -1.5347
13112TIP3    H260752   2.857   5.815   5.006 -1.6077 -0.7766  1.1768
13113TIP3   OH260753   2.295   6.089  16.658 -0.0033  0.7016  0.5402
13113TIP3    H160754   2.239   6.012  16.670 -3.1304  2.7301 -0.0043
13113TIP3    H260755   2.292   6.134  16.742  1.4326  0.5179  0.7092
13114TIP3   OH260756   4.167   5.726  11.019  0.0171  0.0531  0.2011
13114TIP3    H160757   4.198   5.689  10.937 -0.5216 -0.9281  0.4293
13114TIP3    H260758   4.078   5.758  10.999 -0.0964 -0.1439  0.3902
13115TIP3   OH260759   5.329   0.067   1.081 -0.1975  0.2528 -0.2685
13115TIP3    H160760   5.403   0.090   1.137  1.1323 -1.0499 -1.4236
13115TIP3    H260761   5.323  -0.028   1.086 -0.1367  0.1106 -2.1969
13116TIP3   OH260762   0.605   4.522   2.421  0.1459 -0.0922 -0.1481
13116TIP3    H160763   0.546   4.597   2.426 -0.7031 -0.7725  0.0794
13116TIP3    H260764   0.558   4.451   2.463  1.4068 -0.4744  0.6796
13117TIP3   OH260765   6.319   6.194   3.058  0.3130  0.2820  0.2232
13117TIP3    H160766   6.395   6.214   3.004 -0.1732 -1.2921 -1.1357
13117TIP3    H260767   6.251   6.168   2.996 -0.5527 -0.7685  1.5277
13118TIP3   OH260768   6.406   0.661  13.488 -0.2385  0.3960 -0.0822
13118TIP3    H160769   6.500   0.671  13.506 -0.5180  0.4798  1.4812
13118TIP3    H260770   6.401   0.649  13.393  1.4512 -0.7246 -0.0786
13119TIP3   OH260771   0.013   6.648   2.679  0.4244 -0.3916  0.4468
13119TIP3    H160772   0.049   6.709   2.614  1.8013 -0.2266  1.3265
13119TIP3    H260773  -0.026   6.578   2.627  0.5698  0.2527 -0.5591
13120TIP3   OH260774   4.210   2.175  17.046 -0.0881  0.6847 -0.3510
13120TIP3    H160775   4.288   2.119  17.049 -1.1852 -0.9086 -0.4253
13120TIP3    H260776   4.161   2.151  17.124 -0.2196  2.1539  0.0468
13121TIP3   OH260777   0.820   2.902   3.383 -0.5223  0.2431  0.2149
13121TIP3    H160778   0.731   2.911   3.349 -0.1737 -0.3005 -0.9154
13121TIP3    H260779   0.843   2.811   3.365 -0.5147 -0.2594  2.5232
13122TIP3   OH260780   1.895   6.285   2.178  0.2716  0.5995  0.1421
13122TIP3    H160781   1.989   6.271   2.178  0.7325  3.0307  1.4864
13122TIP3    H260782   1.882   6.362   2.121 -1.1316 -0.6193 -1.3004
13123TIP3   OH260783   4.226   5.270  13.306  0.3266  0.1529  0.2493
13123TIP3    H160784   4.208   5.206  13.237  0.2677  1.7447 -1.2892
13123TIP3    H260785   4.298   5.323  13.270 -1.0163  2.2642  0.5182
13124TIP3   OH260786   0.051   3.763   1.068 -0.0249 -0.5894 -0.2329
13124TIP3    H160787   0.002   3.685   1.043  0.1271 -1.1899  1.2607
13124TIP3    H260788   0.121   3.731   1.125  0.5360  0.5419 -0.2624
13125TIP3   OH260789   6.057   2.418   4.659  0.6321 -0.7913  0.7379
13125TIP3    H160790   6.006   2.472   4.598  1.0441 -0.2399  0.8761
13125TIP3    H260791   6.026   2.444   4.746  1.8852  0.3499  0.8850
13126TIP3   OH260792   1.633   1.439   0.008 -0.7931 -0.2688 -0.6098
13126TIP3    H160793   1.554   1.441   0.062 -0.3926 -0.2467 -0.0115
13126TIP3    H260794   1.608   1.483  -0.073 -0.4064  3.1898  0.9391
13127TIP3   OH260795   4.247   4.900   1.973  0.4857  0.3022  0.2694
13127TIP3    H160796   4.154   4.923   1.970 -0.1157 -1.9276 -0.0521
13127TIP3    H260797   4.281   4.926   1.887 -0.5817 -1.4799 -0.7551
13128TIP3   OH260798   3.695   3.573  14.154 -0.8661 -0.0987  0.1011
13128TIP3    H160799   3.721   3.598  14.066  0.2904 -0.7015  0.2641
13128TIP3    H260800   3.731   3.642  14.210 -1.2419  0.0573  0.1609
13129TIP3   OH260801   5.334   4.852   3.022 -0.1269 -0.2027 -0.1993
13129TIP3    H160802   5.251   4.828   3.062 -0.1997  0.1293 -0.1560
13129TIP3    H260803   5.340   4.795   2.945  0.9675 -2.3555  1.3536
13130TIP3   OH260804   1.270   1.252   2.687 -0.2897  0.2032 -0.1370
13130TIP3    H160805   1.318   1.190   2.632 -2.7775 -0.8756 -1.2940
13130TIP3    H260806   1.231   1.197   2.756 -2.0971  0.5181 -0.8644
13131TIP3   OH260807   6.306   0.805   2.290 -0.6263 -0.1148 -1.1865
13131TIP3    H160808   6.371   0.804   2.360 -1.3604 -0.3465 -0.4877
13131TIP3    H260809   6.355   0.787   2.210  0.4283  1.4060 -0.9238
13132TIP3   OH260810   3.006   6.013   4.996  0.6379  0.4824  0.3616
13132TIP3    H160811   2.930   6.069   4.977  0.1340 -0.8379 -1.7680
13132TIP3    H260812   3.079   6.056   4.952  0.4981  0.1474 -0.2075
13133TIP3   OH260813   0.823   3.413  14.812 -0.1914  0.5048  0.0220
13133TIP3    H160814   0.878   3.382  14.740  0.7217  0.5307  0.6876
13133TIP3    H260815   0.819   3.339  14.873 -0.1013  0.8228  0.4224
13134TIP3   OH260816   0.131   0.775   3.370 -0.3390 -0.0999  0.4196
13134TIP3    H160817   0.207   0.790   3.427  0.9408  1.9356 -1.6509
13134TIP3    H260818   0.055   0.797   3.424  0.5512 -1.3954  2.2938
13135TIP3   OH260819   1.751   5.540   5.021 -1.1015 -0.6767 -0.9457
13135TIP3    H160820   1.775   5.468   5.080 -1.6916 -2.6710 -2.9475
13135TIP3    H260821   1.679   5.584   5.064 -0.8359 -1.3901  0.2859
13136TIP3   OH260822   3.410   5.298  11.930 -0.1451 -0.1854  0.3014
13136TIP3    H160823   3.478   5.363  11.946  0.0510 -0.1513 -0.6193
13136TIP3    H260824   3.458   5.221  11.899 -0.4684 -0.4105  0.3528
13137TIP3   OH260825   5.729   0.645  16.767 -0.4200  0.4953 -0.0052
13137TIP3    H160826   5.694   0.587  16.699  1.8109  0.2875 -1.0966
13137TIP3    H260827   5.708   0.602  16.849  1.3899 -2.1138 -0.7729
13138TIP3   OH260828   6.115   3.608  12.002 -0.0340 -0.2601 -0.0273
13138TIP3    H160829   6.108   3.700  11.976  0.0431  0.3240  1.8066
13138TIP3    H260830   6.092   3.558  11.924 -3.9272  1.3187 -0.1344
13139TIP3   OH260831   5.785   4.229   6.020  0.1996  0.2657 -0.3410
13139TIP3    H160832   5.804   4.181   6.100 -0.0548 -0.8613 -0.9377
13139TIP3    H260833   5.866   4.222   5.969 -0.1595 -0.3525 -0.8310
13140TIP3   OH260834   6.503   6.001   1.726 -0.4452  0.4254  0.5003
13140TIP3    H160835   6.482   5.908   1.733  2.2858 -0.3116  0.1042
13140TIP3    H260836   6.451   6.042   1.795 -0.2097 -1.6889  2.0477
13141TIP3   OH260837   2.672   6.718   0.353  0.5873  0.2787  0.2137
13141TIP3    H160838   2.654   6.765   0.434 -0.5089 -0.3391  0.3385
13141TIP3    H260839   2.597   6.738   0.296 -1.0574 -2.9737  1.0233
13142TIP3   OH260840   4.038   5.847  15.003 -0.2504  0.1267 -0.1220
13142TIP3    H160841   3.993   5.852  14.918  0.5619  0.7387 -0.5312
13142TIP3    H260842   4.069   5.756  15.007  0.3282  0.2810 -0.8233
13143TIP3   OH260843   4.337   2.563   0.221 -0.2341  0.1530 -0.4042
13143TIP3    H160844   4.259   2.560   0.277 -0.7858  1.4792 -1.0418
13143TIP3    H260845   4.324   2.642   0.168  1.1836 -0.0408 -1.0648
13144TIP3   OH260846   4.967   5.386  15.670 -0.1190 -0.2207 -0.8264
13144TIP3    H160847   4.903   5.453  15.695 -1.2954 -1.1254 -1.3120
13144TIP3    H260848   4.914   5.312  15.640  1.0743 -1.8680  0.8210
13145TIP3   OH260849   2.832   1.871  12.358  0.6200 -0.2778  0.2224
13145TIP3    H160850   2.763   1.937  12.349 -0.4675 -1.3652  0.4348
13145TIP3    H260851   2.903   1.903  12.302 -0.5214  0.2358 -0.9823
13146TIP3   OH260852   2.162   0.147  14.729 -0.6473 -0.5205  0.6440
13146TIP3    H160853   2.239   0.148  14.785  0.7313  1.3936 -1.1399
13146TIP3    H260854   2.175   0.072  14.671 -0.5460 -0.7008  0.9007
13147TIP3   OH260855   4.421   2.235   0.746 -0.3459 -0.0073 -0.4074
13147TIP3    H160856   4.508   2.251   0.782  0.8307 -3.0089 -1.5461
13147TIP3    H260857   4.364   2.294   0.794  1.9759  0.4776  2.0215
13148TIP3   OH260858   3.746   0.790   5.909  0.3767  0.1713  0.0135
13148TIP3    H160859   3.674   0.757   5.855  0.7600  0.0964 -0.4618
13148TIP3    H260860   3.783   0.862   5.858  1.3743 -0.5417 -0.2960
13149TIP3   OH260861   4.452   5.585  16.751 -0.3138  0.4603 -0.2023
13149TIP3    H160862   4.390   5.649  16.719 -1.9537 -0.6751  0.5504
13149TIP3    H260863   4.411   5.500  16.732  0.9914 -0.3274  0.3477
13150TIP3   OH260864   3.265   1.374   0.686  0.0899  0.3743 -0.5164
13150TIP3    H160865   3.192   1.325   0.724  0.4555 -0.3434 -0.7194
13150TIP3    H260866   3.274   1.451   0.742 -0.9715  0.5901 -0.6301
13151TIP3   OH260867   3.397   6.212   2.580  0.1512 -0.3469  0.3137
13151TIP3    H160868   3.443   6.296   2.571 -0.7660  0.1905  0.4612
13151TIP3    H260869   3.407   6.170   2.494  1.5121 -0.5705  0.5622
13152TIP3   OH260870   0.763   1.083   3.630  0.2513  0.6672  0.2995
13152TIP3    H160871   0.793   1.023   3.698 -1.4911  0.0127  0.5160
13152TIP3    H260872   0.710   1.147   3.675  0.6603  1.3670 -0.1887
13153TIP3   OH260873   3.340   5.400   4.696  0.3320 -0.1458  0.1733
13153TIP3    H160874   3.277   5.339   4.657  0.9564 -0.8957  0.3205
13153TIP3    H260875   3.426   5.368   4.668  0.7109  0.1586  0.9430
13154TIP3   OH260876   3.964   3.610   0.436  0.5607  0.2446 -0.4274
13154TIP3    H160877   3.990   3.642   0.522  0.7476 -0.4869 -0.2017
13154TIP3    H260878   3.997   3.520   0.433 -0.0735  0.0204 -0.9850
13155TIP3   OH260879   1.376   1.892   2.103 -0.2618 -0.2273 -0.2972
13155TIP3    H160880   1.403   1.964   2.160 -0.0898 -1.1935  0.8877
13155TIP3    H260881   1.452   1.874   2.048 -1.1739  2.2824 -2.6178
13156TIP3   OH260882   5.579   3.121   0.694  0.1077  0.3350  0.4989
13156TIP3    H160883   5.532   3.106   0.611 -1.0608  0.0506  1.1960
13156TIP3    H260884   5.659   3.168   0.668 -0.3916  0.5275 -0.7526
13157TIP3   OH260885   4.837   4.734   2.668 -0.1768 -0.1750  0.1285
13157TIP3    H160886   4.858   4.661   2.610 -0.7001 -1.3516  1.3540
13157TIP3    H260887   4.900   4.803   2.644  2.9147 -2.3212  1.3781
13158TIP3   OH260888   1.328   1.358   1.573  0.0884  0.1348  0.0449
13158TIP3    H160889   1.404   1.309   1.539 -0.0047 -0.0080  0.0432
13158TIP3    H260890   1.253   1.321   1.526 -0.1636 -0.7227  1.1003
13159TIP3   OH260891   1.276   3.050  14.963 -0.4923  0.5797  0.3698
13159TIP3    H160892   1.222   2.973  14.978 -2.0249  1.7573  1.1509
13159TIP3    H260893   1.235   3.095  14.889  2.2009 -0.8607 -2.2573
13160TIP3   OH260894   0.842   6.115  15.583 -0.1062 -0.4601 -0.1309
13160TIP3    H160895   0.932   6.141  15.566 -0.4403 -0.0811 -1.4358
13160TIP3    H260896   0.846   6.066  15.665  0.7419  2.6533  1.8679
13161TIP3   OH260897   1.630   0.339  12.308 -0.3390  0.1256 -0.3664
13161TIP3    H160898   1.652   0.426  12.339  2.2918 -0.5098 -0.2178
13161TIP3    H260899   1.608   0.351  12.215 -2.2092  1.1699  0.1493
13162TIP3   OH260900   1.785   3.338   3.841 -0.1712  0.2165 -0.0979
13162TIP3    H160901   1.705   3.334   3.894 -0.8080 -2.1621 -1.1142
13162TIP3    H260902   1.852   3.297   3.894 -0.2366 -0.0115 -0.1887
13163TIP3   OH260903   0.029   6.558   4.733  0.4891 -0.1803 -0.3484
13163TIP3    H160904   0.095   6.527   4.672 -0.9618 -1.0193 -1.5671
13163TIP3    H260905   0.063   6.641   4.766  1.0077  0.6981 -2.8966
13164TIP3   OH260906   5.007   2.516   0.954 -0.2244  0.2585  0.2766
13164TIP3    H160907   5.073   2.582   0.932 -0.4747  0.6862  0.7912
13164TIP3    H260908   4.934   2.535   0.895 -1.0628  1.6701  1.6881
13165TIP3   OH260909   2.374   3.201  11.883  0.2492 -0.0830  0.4065
13165TIP3    H160910   2.422   3.119  11.869  0.0093 -0.5911  2.1851
13165TIP3    H260911   2.310   3.204  11.813 -0.2251 -1.8310  0.7200
13166TIP3   OH260912   0.509   6.738   3.089 -0.1308 -0.0655 -1.0630
13166TIP3    H160913   0.492   6.814   3.033 -1.2237  0.0429 -0.6043
13166TIP3    H260914   0.422   6.703   3.108  0.2962 -0.6996 -0.2595
13167TIP3   OH260915   5.468   5.439  13.394 -0.2144 -0.2918 -0.3263
13167TIP3    H160916   5.529   5.494  13.443  1.1781 -1.2037 -0.9479
13167TIP3    H260917   5.384   5.449  13.439 -0.3231  3.1617 -1.0639
13168TIP3   OH260918   5.360   5.014  14.440 -0.0315 -0.3119  0.1965
13168TIP3    H160919   5.455   5.004  14.442  0.6510  3.3061 -2.4616
13168TIP3    H260920   5.328   4.936  14.396  2.1167 -0.2590 -1.6280
13169TIP3   OH260921   6.408   4.320  14.332  0.1013  0.0581 -0.2040
13169TIP3    H160922   6.416   4.310  14.427 -0.6035  2.1212  0.1182
13169TIP3    H260923   6.329   4.372  14.320 -1.4672 -2.5592 -2.1336
13170TIP3   OH260924   2.584   1.334  15.316 -0.0051 -0.3538 -0.1673
13170TIP3    H160925   2.560   1.417  15.358 -0.6484 -0.5917 -0.0549
13170TIP3    H260926   2.528   1.328  15.239  1.4524  0.2656 -1.2983
13171TIP3   OH260927   4.247   1.709   2.173 -0.4341  0.1776 -0.1454
13171TIP3    H160928   4.314   1.681   2.111 -0.7923  0.9419 -0.8996
13171TIP3    H260929   4.296   1.745   2.247  0.0013 -1.0237  0.1778
13172TIP3   OH260930   1.530   0.369   1.042  0.2218  0.7758 -0.1040
13172TIP3    H160931   1.553   0.291   0.990  4.2674  0.8087  1.2258
13172TIP3    H260932   1.578   0.440   1.000  0.7048  1.4772  1.5398
13173TIP3   OH260933   0.406   4.149  10.448  0.4897  0.3734  0.3744
13173TIP3    H160934   0.487   4.180  10.406  0.1436  1.5843  0.5948
13173TIP3    H260935   0.356   4.228  10.467 -0.8335 -0.3685  0.1023
13174TIP3   OH260936   2.346   4.325  15.906 -0.2641 -0.0367  0.3891
13174TIP3    H160937   2.283   4.270  15.954 -0.7475  0.1628 -0.0029
13174TIP3    H260938   2.291   4.388  15.858 -0.0186 -1.7312 -2.3674
13175TIP3   OH260939   6.742   3.468   2.998 -0.0551  0.1558 -0.3688
13175TIP3    H160940   6.793   3.487   3.076 -0.2236 -1.0806  0.0654
13175TIP3    H260941   6.651   3.478   3.025 -0.0964  1.1165 -0.8058
13176TIP3   OH260942   1.132   4.986   2.394 -0.3569  0.4882  0.3603
13176TIP3    H160943   1.071   5.060   2.392 -0.4833  0.4043 -1.9232
13176TIP3    H260944   1.114   4.941   2.476 -0.0210  3.1774  1.9951
13177TIP3   OH260945   2.107   3.921  17.175 -0.9616 -0.5008  0.1357
13177TIP3    H160946   2.040   3.923  17.244 -0.5885  1.1270  0.4921
13177TIP3    H260947   2.188   3.945  17.220 -0.5803 -0.0986 -0.7465
13178TIP3   OH260948   2.500   3.640  11.508  0.6685  0.8853  0.4031
13178TIP3    H160949   2.565   3.604  11.569  0.7672  1.3691  0.5938
13178TIP3    H260950   2.455   3.564  11.473  0.7534  0.5892  0.9254
13179TIP3   OH260951   1.453   4.766  15.946  0.6762 -1.2658 -0.3162
13179TIP3    H160952   1.505   4.791  16.023 -0.9297 -3.2109  1.5422
13179TIP3    H260953   1.473   4.674  15.933 -2.3355 -2.1802  0.6634
13180TIP3   OH260954   4.618   1.852   2.130 -0.5119 -0.4334 -0.0977
13180TIP3    H160955   4.557   1.789   2.092 -2.1953  1.1485 -0.1834
13180TIP3    H260956   4.572   1.936   2.125  1.7559  0.8809 -0.2845
13181TIP3   OH260957   2.628   2.431   1.201 -0.2835 -0.1159 -0.6095
13181TIP3    H160958   2.553   2.487   1.221 -0.3720  0.0791 -1.4244
13181TIP3    H260959   2.693   2.453   1.267 -0.5195  0.5580 -0.5948
13182TIP3   OH260960   4.805   2.572  11.918  0.6504 -0.3512  0.1985
13182TIP3    H160961   4.864   2.598  11.848  0.2711  1.1935  0.4308
13182TIP3    H260962   4.731   2.633  11.913 -0.4617 -1.6035  0.5496
13183TIP3   OH260963   5.324   6.519  12.764  0.3517 -0.1305 -0.1130
13183TIP3    H160964   5.284   6.606  12.765 -1.6782 -1.0030  1.8495
13183TIP3    H260965   5.252   6.460  12.740  1.2195 -1.4539  0.4325
13184TIP3   OH260966   6.083   6.248  13.684 -0.4710 -0.6206 -0.6989
13184TIP3    H160967   6.103   6.340  13.699  2.5115 -0.9457 -1.9660
13184TIP3    H260968   6.016   6.227  13.748 -1.4499  2.4768 -0.5815
13185TIP3   OH260969   5.029   4.335  15.994 -0.2819 -0.0798  0.1378
13185TIP3    H160970   5.114   4.363  16.026 -0.7137  0.1431  1.1273
13185TIP3    H260971   4.969   4.404  16.023 -0.4315  1.2202 -2.8961
13186TIP3   OH260972   5.726   4.854  10.949  0.1382  0.0960 -0.0011
13186TIP3    H160973   5.646   4.804  10.962  0.9307 -1.1967  0.0852
13186TIP3    H260974   5.778   4.801  10.888  0.8762  0.9794 -0.1757
13187TIP3   OH260975   2.249   0.367   0.722  0.5694  0.1090 -0.4472
13187TIP3    H160976   2.195   0.382   0.645  0.3116 -0.6027 -0.4159
13187TIP3    H260977   2.334   0.338   0.688  0.3758 -0.4496 -0.4652
13188TIP3   OH260978   5.769   1.315  16.243 -0.2023 -0.5974 -0.0890
13188TIP3    H160979   5.674   1.323  16.249 -0.1549 -1.0680  2.2219
13188TIP3    H260980   5.786   1.222  16.258  0.6367 -0.5044 -0.4021
13189TIP3   OH260981   3.504   5.442   3.718  0.1505 -0.2695 -0.3425
13189TIP3    H160982   3.547   5.449   3.803  0.8805 -0.9251 -0.6480
13189TIP3    H260983   3.429   5.385   3.733 -0.7749  1.0426  0.2393
13190TIP3   OH260984   4.402   2.174  12.367  0.1457  0.2823 -0.3151
13190TIP3    H160985   4.432   2.252  12.413 -1.8204  1.9229 -1.6419
13190TIP3    H260986   4.482   2.133  12.335  1.5700 -0.5550  3.6938
13191TIP3   OH260987   2.005   2.615  15.353  0.5932 -0.1756  0.0390
13191TIP3    H160988   2.081   2.674  15.357 -1.1282  2.3328 -1.6621
13191TIP3    H260989   1.936   2.661  15.401 -0.3394 -1.7013  0.2454
13192TIP3   OH260990   0.179   2.986  14.501 -0.6017  0.0422  0.1512
13192TIP3    H160991   0.136   3.051  14.446  0.4860  0.5837 -0.0805
13192TIP3    H260992   0.273   3.007  14.495 -0.3212 -0.9269  0.8675
13193TIP3   OH260993   1.510   2.492   3.326  0.2333  0.6400 -0.7339
13193TIP3    H160994   1.563   2.414   3.340 -0.2488  0.2394 -1.0687
13193TIP3    H260995   1.446   2.465   3.260  0.5526  1.5534 -1.4388
13194TIP3   OH260996   0.019   4.508  16.548  0.3545  0.1140  0.0775
13194TIP3    H160997  -0.042   4.455  16.497  1.2258 -1.1325  0.2851
13194TIP3    H260998   0.005   4.481  16.638  0.9111  0.1355  0.1751
13195TIP3   OH260999   1.617   4.647   6.309  0.4701 -0.0156 -0.6863
13195TIP3    H161000   1.665   4.724   6.280  1.5706 -1.1241 -1.9930
13195TIP3    H261001   1.671   4.573   6.281 -0.2070 -1.2726  1.1017
13196TIP3   OH261002   4.274   3.823  15.135 -0.1091  0.3936  0.4986
13196TIP3    H161003   4.320   3.746  15.171  0.9592  0.2662 -1.0167
13196TIP3    H261004   4.183   3.811  15.161 -0.2405 -2.1200 -0.7606
13197TIP3   OH261005   3.621   4.068  11.994 -0.3520 -0.4859 -0.2488
13197TIP3    H161006   3.647   4.045  12.083 -0.0576 -0.5724 -0.3552
13197TIP3    H261007   3.525   4.063  11.994 -0.3950  0.1717  0.2443
13198TIP3   OH261008   2.545   1.449   3.854  0.3578 -0.1348 -0.0257
13198TIP3    H161009   2.517   1.357   3.844  0.7249 -0.3181  0.6137
13198TIP3    H261010   2.495   1.481   3.929  1.0816 -0.1605  0.4793
13199TIP3   OH261011   3.422   3.771   1.707 -0.4311  0.1377  0.0702
13199TIP3    H161012   3.411   3.861   1.737  0.3054  0.8312 -1.5931
13199TIP3    H261013   3.438   3.779   1.613  0.8753 -1.6337  0.0797
13200TIP3   OH261014   6.307   0.323   6.292  0.6224 -0.0181 -0.2347
13200TIP3    H161015   6.291   0.415   6.313 -0.8933 -0.8208  2.6184
13200TIP3    H261016   6.357   0.290   6.366 -0.0238 -1.8090 -0.5428
13201TIP3   OH261017   0.982   1.469  12.059  0.2687  0.1841  0.0327
13201TIP3    H161018   0.964   1.521  12.138  0.2604  0.6870 -0.2986
13201TIP3    H261019   1.029   1.529  12.001 -1.5490  0.5000 -1.1939
13202TIP3   OH261020   5.846   5.591  12.273 -0.3405 -0.4334  0.0581
13202TIP3    H161021   5.856   5.686  12.267 -1.2369 -0.3630 -0.6181
13202TIP3    H261022   5.935   5.556  12.262 -0.1261  0.2965 -0.6362
13203TIP3   OH261023   0.742   1.617   2.375  0.3088 -0.7569  0.4488
13203TIP3    H161024   0.813   1.592   2.316 -1.1613 -1.7536 -0.9903
13203TIP3    H261025   0.671   1.645   2.317 -0.1541  1.2052  1.8728
13204TIP3   OH261026   0.969   1.648  15.199  0.2958  0.0942 -0.2866
13204TIP3    H161027   0.884   1.608  15.219  0.4343 -0.0706 -0.0263
13204TIP3    H261028   0.947   1.727  15.150 -0.1414  1.4212  1.9455
13205TIP3   OH261029   3.057   2.836  11.378 -0.0385 -0.0423  0.5813
13205TIP3    H161030   2.977   2.791  11.352  0.7621 -1.2718  0.1962
13205TIP3    H261031   3.111   2.838  11.299  0.4378  0.5313  0.9047
13206TIP3   OH261032   0.258   5.043   1.869 -0.7288  0.4353 -0.4031
13206TIP3    H161033   0.177   4.999   1.843 -0.0518 -0.9242 -0.3063
13206TIP3    H261034   0.327   4.996   1.823  0.1162  0.7561  0.4998
13207TIP3   OH261035   1.266   2.625   5.509 -0.5929  0.5585 -0.3669
13207TIP3    H161036   1.264   2.552   5.571  1.8886  0.8391  0.1887
13207TIP3    H261037   1.247   2.702   5.563 -1.7995  0.4909 -0.6709
13208TIP3   OH261038   0.627   2.205   6.064 -0.2442 -0.0745 -0.5260
13208TIP3    H161039   0.578   2.271   6.113 -1.5650 -1.7998  0.5695
13208TIP3    H261040   0.571   2.127   6.066  1.1938 -1.2037 -1.9142
13209TIP3   OH261041   5.733   3.310  13.897  0.0370 -0.2560 -0.1826
13209TIP3    H161042   5.765   3.289  13.985 -2.0216 -2.8631  0.0743
13209TIP3    H261043   5.812   3.319  13.844  1.3024 -2.7790  1.1099
13210TIP3   OH261044   3.967   2.944   2.275  0.0985  1.0955  0.7194
13210TIP3    H161045   3.909   2.872   2.299  0.3086  1.1848  1.5251
13210TIP3    H261046   4.037   2.903   2.224  0.7440  0.5545  1.9932
13211TIP3   OH261047   2.454   3.289   5.986  0.1618  0.5905 -0.3972
13211TIP3    H161048   2.408   3.318   6.065 -0.4696  0.9609 -0.8910
13211TIP3    H261049   2.384   3.268   5.924  0.6531  0.3952 -0.8921
13212TIP3   OH261050   0.317   6.543  13.991  0.3195 -0.4051 -0.2078
13212TIP3    H161051   0.399   6.548  13.941  0.0804  1.1664 -0.5073
13212TIP3    H261052   0.249   6.567  13.928 -0.2904 -0.9684  0.2251
13213TIP3   OH261053   2.593   3.348   4.236  0.4192 -0.2753 -0.1254
13213TIP3    H161054   2.660   3.417   4.235  0.2079 -0.0024  1.4873
13213TIP3    H261055   2.623   3.287   4.302  0.2859 -1.4475 -1.1180
13214TIP3   OH261056   3.964   2.814   4.251 -0.3584  0.0439  0.0427
13214TIP3    H161057   3.891   2.799   4.190  1.0413 -0.0782 -1.6520
13214TIP3    H261058   4.018   2.880   4.209  0.8230 -0.2617  1.0327
13215TIP3   OH261059   6.647   5.736   5.301 -0.0956 -0.1455 -0.2075
13215TIP3    H161060   6.586   5.668   5.329  0.5865 -0.5421  0.3410
13215TIP3    H261061   6.595   5.815   5.296 -1.3418 -1.0189 -2.5804
13216TIP3   OH261062   6.232   0.006  11.862  0.4470  0.6796  0.3741
13216TIP3    H161063   6.222  -0.089  11.853 -2.1946  0.5353  3.1062
13216TIP3    H261064   6.319   0.018  11.900  0.8628 -0.5845 -0.1123
13217TIP3   OH261065   4.849   5.753  11.177  0.0405  0.2054  0.4671
13217TIP3    H161066   4.865   5.722  11.266 -1.2999  0.3819  0.7897
13217TIP3    H261067   4.762   5.721  11.156  0.8254 -0.9302 -1.2862
13218TIP3   OH261068   0.124   4.278   1.989  0.4969  0.0281 -0.0205
13218TIP3    H161069   0.200   4.317   1.945 -0.0731  3.1563  1.4695
13218TIP3    H261070   0.057   4.346   1.985 -0.4362 -0.5420  3.3014
13219TIP3   OH261071   0.432   5.059   1.146 -0.6770  0.1792  0.9144
13219TIP3    H161072   0.443   5.089   1.236  0.6282 -0.5822  1.0176
13219TIP3    H261073   0.354   5.106   1.115 -1.3132  0.2301  2.5171
13220TIP3   OH261074   1.327   3.348  15.169  0.4348 -0.2122 -0.3194
13220TIP3    H161075   1.326   3.365  15.263 -1.1503 -0.9572 -0.1620
13220TIP3    H261076   1.279   3.422  15.132 -0.7775 -0.9561 -0.2964
13221TIP3   OH261077   4.867   2.900   1.703 -0.1111 -0.4270  0.2282
13221TIP3    H161078   4.828   2.825   1.658  0.0447  1.0081 -2.5069
13221TIP3    H261079   4.823   2.976   1.665  0.9211  0.9603  1.6942
13222TIP3   OH261080   1.026   0.228   3.705 -0.4744  0.0708 -0.1607
13222TIP3    H161081   1.055   0.148   3.749  0.2128 -0.2671 -1.1881
13222TIP3    H261082   0.934   0.238   3.731 -0.6436 -1.1907 -0.2092
13223TIP3   OH261083   5.458   0.791   3.396 -0.2737  0.1179  0.2024
13223TIP3    H161084   5.383   0.823   3.347  0.7496  0.3789 -1.2719
13223TIP3    H261085   5.534   0.823   3.347  0.7979 -0.8417  1.1685
13224TIP3   OH261086   5.412   5.088  14.721  0.3111 -0.7823  0.5411
13224TIP3    H161087   5.374   5.095  14.633  0.6698  0.9493  0.4940
13224TIP3    H261088   5.340   5.056  14.776 -0.4117 -0.2362 -0.0673
13225TIP3   OH261089   1.085   0.535   5.040  0.0534 -0.7465  0.0744
13225TIP3    H161090   1.105   0.598   4.971 -0.5955  1.2527  1.5978
13225TIP3    H261091   1.043   0.587   5.109 -2.0045 -3.1341  0.7838
13226TIP3   OH261092   0.420   0.727   3.273 -0.3425  0.3772  0.0499
13226TIP3    H161093   0.334   0.702   3.306 -0.3380 -0.1864 -0.3343
13226TIP3    H261094   0.480   0.704   3.344 -0.2976 -1.1158 -0.4241
13227TIP3   OH261095   3.014   5.604   5.819  0.2376 -0.2711 -0.2660
13227TIP3    H161096   2.947   5.652   5.867 -1.0444 -0.3196 -1.9545
13227TIP3    H261097   3.089   5.663   5.817 -0.4294  0.6021 -0.0725
13228TIP3   OH261098   5.518   2.944  16.087 -0.4884 -0.4201 -0.4895
13228TIP3    H161099   5.560   3.028  16.064  0.6593 -1.1734 -1.2622
13228TIP3    H261100   5.562   2.880  16.031 -2.2235 -1.3770 -0.8169
13229TIP3   OH261101   6.558   2.154  10.540 -0.6749 -0.5157  0.7086
13229TIP3    H161102   6.571   2.124  10.629  0.3315  0.4846  0.9293
13229TIP3    H261103   6.635   2.123  10.492 -0.6633 -0.1234  0.4601
13230TIP3   OH261104   1.680   0.595   5.298  0.0777 -0.5862  0.0209
13230TIP3    H161105   1.721   0.536   5.235  1.4620  0.1086  0.2235
13230TIP3    H261106   1.737   0.592   5.374  1.4218  2.5131 -0.6996
13231TIP3   OH261107   5.209   4.600   1.496 -0.1111 -0.7743 -0.5505
13231TIP3    H161108   5.162   4.597   1.413  0.7557 -0.8941 -1.0418
13231TIP3    H261109   5.187   4.686   1.532 -1.1221 -1.0318 -0.5177
13232TIP3   OH261110   2.015   3.701   4.469 -0.1284  0.1426  0.1138
13232TIP3    H161111   1.998   3.630   4.408  2.2965 -0.4093 -0.0327
13232TIP3    H261112   2.027   3.658   4.554  0.9822  0.3695  0.0940
13233TIP3   OH261113   0.415   0.963  15.536 -0.6651 -0.1204  0.1556
13233TIP3    H161114   0.413   0.869  15.554 -0.3526 -0.3178 -0.7912
13233TIP3    H261115   0.509   0.986  15.536 -0.7571  0.3083  0.9125
13234TIP3   OH261116   1.200   3.006   1.026  0.6462  0.1446  0.6015
13234TIP3    H161117   1.283   3.053   1.020  0.3804  0.8139  1.8780
13234TIP3    H261118   1.198   2.973   1.116 -0.1009 -0.5904  0.3283
13235TIP3   OH261119   3.740   1.383   3.359 -0.0109 -0.6059  0.3381
13235TIP3    H161120   3.799   1.458   3.356  0.6345 -1.0952  0.4803
13235TIP3    H261121   3.763   1.331   3.282 -1.3033 -0.0506 -0.4607
13236TIP3   OH261122   1.860   5.700  16.036 -0.0994 -0.1080  0.4535
13236TIP3    H161123   1.767   5.725  16.039 -0.5699 -1.7877  1.8206
13236TIP3    H261124   1.907   5.781  16.020 -1.6270  1.2932  2.5957
13237TIP3   OH261125   5.614   0.062  11.352  0.4545 -0.2540 -0.0133
13237TIP3    H161126   5.689   0.050  11.293  0.3240 -3.4038  0.3260
13237TIP3    H261127   5.568  -0.021  11.350 -3.3101  1.6237 -0.4280
13238TIP3   OH261128   5.966   1.994   1.641 -0.6090 -0.8198 -0.1583
13238TIP3    H161129   5.988   1.960   1.554  0.2383 -1.8431  0.4251
13238TIP3    H261130   6.035   2.058   1.660  0.6429 -2.3478  0.7163
13239TIP3   OH261131   4.671   5.282  13.855 -0.3790  0.1417  0.1717
13239TIP3    H161132   4.634   5.216  13.797  0.5670 -0.1941 -0.0678
13239TIP3    H261133   4.638   5.259  13.942 -2.6147  1.2307 -0.3197
13240TIP3   OH261134   0.815   4.951   2.955 -0.4383 -0.9173 -1.0246
13240TIP3    H161135   0.771   4.890   3.014  0.0184 -0.6032 -0.3477
13240TIP3    H261136   0.887   4.900   2.917 -2.2791 -1.9377 -3.3865
13241TIP3   OH261137   2.778   0.500   2.515  0.2604  0.3024  0.0341
13241TIP3    H161138   2.817   0.421   2.551 -0.5353 -0.3487 -0.5012
13241TIP3    H261139   2.725   0.470   2.442 -0.1402  1.3227 -0.1156
13242TIP3   OH261140   4.942   6.675  14.163 -0.3080  0.7094 -0.4639
13242TIP3    H161141   4.908   6.764  14.173  1.5004  1.4126 -0.1986
13242TIP3    H261142   5.004   6.681  14.090  0.9419  0.0298  0.5072
13243TIP3   OH261143   3.809   1.593   5.807 -0.0771 -0.0316 -0.0093
13243TIP3    H161144   3.852   1.541   5.739 -1.1133 -0.9913  0.0447
13243TIP3    H261145   3.877   1.610   5.872  0.4938 -0.5629 -0.4631
13244TIP3   OH261146   1.492   5.023   4.945  0.4282  0.0801  0.3109
13244TIP3    H161147   1.404   5.014   4.981  0.0799  0.1917 -0.5059
13244TIP3    H261148   1.482   5.081   4.870  0.7737 -1.7491 -1.2407
13245TIP3   OH261149   0.979   3.536   2.355 -0.2937 -0.6439 -1.0446
13245TIP3    H161150   0.973   3.545   2.450 -1.1736 -2.4158 -0.8845
13245TIP3    H261151   1.072   3.523   2.338 -0.1997 -0.9067 -0.3532
13246TIP3   OH261152   5.125   6.427   0.477  0.4591  0.2220 -0.1415
13246TIP3    H161153   5.040   6.460   0.448  0.7467  0.6608 -0.4893
13246TIP3    H261154   5.168   6.502   0.517 -0.5416 -0.7114  2.9048
13247TIP3   OH261155   2.535   4.674  16.468  0.2126  0.2129  0.0668
13247TIP3    H161156   2.525   4.595  16.414  1.8869  0.2921 -0.4001
13247TIP3    H261157   2.470   4.735  16.433 -0.5096 -0.6494 -0.1308
13248TIP3   OH261158   6.015   2.747   4.311  0.2351  0.2106 -0.3659
13248TIP3    H161159   6.019   2.842   4.300 -0.3642  0.4567  1.2304
13248TIP3    H261160   6.068   2.729   4.388 -2.1149 -0.3057  1.2680
13249TIP3   OH261161   5.133   5.491   6.472  0.0493  0.1105  0.2647
13249TIP3    H161162   5.069   5.473   6.541 -2.3123  1.8972 -1.3058
13249TIP3    H261163   5.119   5.421   6.408 -0.4489  0.5360 -0.1081
13250TIP3   OH261164   6.400   5.679  13.936 -0.1150 -0.3190 -0.5246
13250TIP3    H161165   6.380   5.645  14.023 -0.6805 -0.8495 -0.8604
13250TIP3    H261166   6.327   5.651  13.882 -1.5850  2.9051 -0.4536
13251TIP3   OH261167   1.522   1.039  16.742  0.1268  0.5485 -0.3981
13251TIP3    H161168   1.550   1.055  16.832  2.1983 -0.5350 -0.7839
13251TIP3    H261169   1.597   1.063  16.688 -0.9949  0.9822 -1.8505
13252TIP3   OH261170   5.676   0.082  11.638  0.4422  0.2487  0.3236
13252TIP3    H161171   5.653   0.068  11.546  0.0671  1.5112  0.2054
13252TIP3    H261172   5.766   0.049  11.646  0.1079 -0.8453 -0.2291
13253TIP3   OH261173   0.913   0.984  14.880  0.3224  0.2934  0.1983
13253TIP3    H161174   0.822   1.014  14.874  0.3091  0.4695  1.0891
13253TIP3    H261175   0.953   1.011  14.797  0.0517  1.9709  0.5700
13254TIP3   OH261176   3.106   5.412  11.057 -0.2467 -0.1173 -0.1627
13254TIP3    H161177   3.201   5.401  11.061 -0.3063 -0.9546 -0.7901
13254TIP3    H261178   3.086   5.413  10.964 -0.8288  0.3412 -0.0358
13255TIP3   OH261179   0.687   3.467  16.868 -0.1918  0.0030  0.1843
13255TIP3    H161180   0.630   3.526  16.817  1.2177 -0.9862 -2.7860
13255TIP3    H261181   0.631   3.434  16.938 -3.1453 -0.3485 -2.1207
13256TIP3   OH261182   3.135   2.463  16.511  0.0633 -0.0059 -0.5123
13256TIP3    H161183   3.191   2.394  16.474  1.6140  0.5573  0.6675
13256TIP3    H261184   3.074   2.416  16.567  2.2508 -0.4200  1.7251
13257TIP3   OH261185   2.460   5.712  12.871 -0.0999 -1.0909  0.3750
13257TIP3    H161186   2.384   5.689  12.925  0.4666  0.5787  1.9599
13257TIP3    H261187   2.432   5.692  12.781 -2.6523  0.0563  0.8233
13258TIP3   OH261188   5.766   1.541  16.741 -0.1874 -0.1347 -0.1573
13258TIP3    H161189   5.858   1.527  16.717 -0.0868 -0.8496  0.5930
13258TIP3    H261190   5.719   1.470  16.698 -0.4136  0.3034 -0.6421
13259TIP3   OH261191   0.902   4.371  17.039  0.4395 -0.2197  0.6130
13259TIP3    H161192   0.884   4.286  17.000  0.7614 -0.4447  0.9399
13259TIP3    H261193   0.994   4.366  17.065  0.3276  0.0474  1.0798
13260TIP3   OH261194   2.794   1.918  11.517  0.3919 -1.0152  0.6533
13260TIP3    H161195   2.802   1.929  11.612  2.9676 -2.3811  0.6807
13260TIP3    H261196   2.726   1.852  11.506 -0.4798 -0.2823  1.4792
13261TIP3   OH261197   4.115   2.322   2.739  0.2470 -0.3865 -0.3045
13261TIP3    H161198   4.058   2.283   2.806 -0.9622  0.5530 -0.7284
13261TIP3    H261199   4.143   2.405   2.777  0.2514 -0.2453 -0.6075
13262TIP3   OH261200   1.611   5.102   1.289 -0.3369  0.3026 -0.4581
13262TIP3    H161201   1.522   5.084   1.319 -0.6225  0.2221 -1.3409
13262TIP3    H261202   1.616   5.062   1.203  1.2519 -1.6175  0.4423
13263TIP3   OH261203   3.538   5.146  13.696  0.1013  0.1679 -0.1223
13263TIP3    H161204   3.533   5.161  13.601 -1.3656  0.9312  0.0439
13263TIP3    H261205   3.490   5.064  13.710 -0.9097  0.7747  0.0867
13264TIP3   OH261206   3.523   4.244   3.587 -0.2101  0.2748  0.2126
13264TIP3    H161207   3.556   4.299   3.659 -0.3674  1.1644 -0.3842
13264TIP3    H261208   3.561   4.283   3.508 -1.4016  0.3253 -0.3431
13265TIP3   OH261209   4.393   6.211  11.738  0.1185  0.2635  0.6153
13265TIP3    H161210   4.341   6.239  11.663 -1.0974 -0.8038  1.0050
13265TIP3    H261211   4.484   6.213  11.707 -0.4162 -1.2001 -1.2694
13266TIP3   OH261212   2.557   1.648   5.414  0.0798  0.3285  1.1442
13266TIP3    H161213   2.461   1.649   5.419 -0.0230  1.3790 -0.3030
13266TIP3    H261214   2.584   1.736   5.441  0.6588  0.0068  1.6466
13267TIP3   OH261215   1.493   3.136   2.002 -0.1718 -0.4867  0.2652
13267TIP3    H161216   1.494   3.050   2.044  0.6106 -1.9372 -2.5294
13267TIP3    H261217   1.464   3.119   1.913  1.3198  1.9290 -0.7699
13268TIP3   OH261218   4.398   6.351  13.116  0.7389 -0.3513 -0.1294
13268TIP3    H161219   4.346   6.270  13.118  0.3595 -0.1302 -0.7293
13268TIP3    H261220   4.333   6.421  13.114  1.0665 -0.0065  0.8580
13269TIP3   OH261221   5.295   4.204   0.118 -0.6170 -0.1669  0.5883
13269TIP3    H161222   5.216   4.176   0.165  0.0142  0.4578  2.0955
13269TIP3    H261223   5.364   4.147   0.152 -0.1257  0.3734  0.5089
13270TIP3   OH261224   0.179   0.822  15.327 -0.1179  0.0872 -0.2367
13270TIP3    H161225   0.221   0.753  15.276 -0.2510 -0.1144 -0.0762
13270TIP3    H261226   0.152   0.778  15.408  0.4282  0.4907  0.1731
13271TIP3   OH261227   3.290   1.155  13.485 -0.1573  0.1618  0.1227
13271TIP3    H161228   3.245   1.204  13.554  1.0406 -1.4296  2.1686
13271TIP3    H261229   3.226   1.089  13.457 -1.0172  1.4763 -1.0989
13272TIP3   OH261230   0.453   0.062  14.090 -0.2938  0.0756  0.6275
13272TIP3    H161231   0.389  -0.008  14.076 -0.2981 -0.0537  1.2897
13272TIP3    H261232   0.525   0.020  14.136  0.2837  0.2181 -0.1255
13273TIP3   OH261233   4.538   4.436  14.651  0.1316 -0.2752  0.0986
13273TIP3    H161234   4.570   4.369  14.712 -0.9098 -0.9030 -0.0147
13273TIP3    H261235   4.509   4.507  14.708 -0.0168 -0.4901  0.2959
13274TIP3   OH261236   4.130   2.045   5.370  0.4171 -0.7609 -0.5767
13274TIP3    H161237   4.136   2.137   5.345 -3.3598  1.3354  4.4118
13274TIP3    H261238   4.058   2.010   5.317  0.5415 -0.2294 -1.1007
13275TIP3   OH261239   4.289   1.603   6.081  0.4994 -0.1544 -0.7459
13275TIP3    H161240   4.316   1.578   6.170  1.3194 -1.3504 -1.3075
13275TIP3    H261241   4.322   1.692   6.070  1.3150 -0.3751 -0.2207
13276TIP3   OH261242   4.550   1.669  14.366  0.1084 -0.0637  0.1569
13276TIP3    H161243   4.465   1.712  14.361  1.2173  2.2122 -1.9378
13276TIP3    H261244   4.560   1.626  14.281  1.3187  0.3265  0.0796
13277TIP3   OH261245   6.369   0.922   0.115  0.2887  0.3763  1.1113
13277TIP3    H161246   6.278   0.941   0.140  0.4155  2.5691  0.0507
13277TIP3    H261247   6.399   0.860   0.182 -1.9089 -0.2655  1.5926
13278TIP3   OH261248   3.426   5.968  15.967  0.3296  0.4402 -0.1367
13278TIP3    H161249   3.380   5.888  15.940  0.4931  0.7339 -1.3621
13278TIP3    H261250   3.516   5.955  15.938  0.1228  1.4980 -1.3629
13279TIP3   OH261251   0.157   3.442  14.475 -0.2658  0.1301 -0.2685
13279TIP3    H161252   0.213   3.516  14.453 -0.8259  0.5312 -0.3533
13279TIP3    H261253   0.084   3.448  14.414 -1.5350  0.9168  1.2518
13280TIP3   OH261254   1.515   1.443  13.996  0.2601 -0.3020 -0.0490
13280TIP3    H161255   1.514   1.528  14.040  0.6686 -0.3384  0.0386
13280TIP3    H261256   1.537   1.463  13.905  0.9699 -0.3658  0.1039
13281TIP3   OH261257   5.847   4.174  15.313 -0.0603  0.2524 -0.4413
13281TIP3    H161258   5.864   4.164  15.219  0.3526 -1.6685 -0.1841
13281TIP3    H261259   5.930   4.207  15.349  0.0367  0.2062 -0.6215
13282TIP3   OH261260   6.005   2.018  13.862 -0.5581 -0.3523 -1.4512
13282TIP3    H161261   6.068   1.957  13.824 -0.0446  0.4925 -1.9760
13282TIP3    H261262   5.961   2.057  13.787  0.8341  1.7243 -1.2612
13283TIP3   OH261263   5.038   2.155  11.715  0.6358  0.6022  0.4163
13283TIP3    H161264   5.019   2.162  11.808  0.3173  1.4651  0.3033
13283TIP3    H261265   5.011   2.066  11.691  0.0967  0.5974  1.0099
13284TIP3   OH261266   0.562   6.076  12.679  0.3620  0.2420 -0.0852
13284TIP3    H161267   0.470   6.068  12.703  0.1557 -0.1194 -0.9389
13284TIP3    H261268   0.592   6.156  12.723  0.3478 -0.9800  2.3040
13285TIP3   OH261269   0.663   4.488  16.194 -0.4497  0.8825 -0.4332
13285TIP3    H161270   0.739   4.532  16.232 -0.5600 -0.0443  0.9295
13285TIP3    H261271   0.617   4.450  16.269 -0.6683 -1.0569 -1.4764
13286TIP3   OH261272   5.010   0.626  13.399 -0.5755 -0.3475  0.5933
13286TIP3    H161273   5.102   0.639  13.378 -0.2794 -0.8569  1.5243
13286TIP3    H261274   5.002   0.533  13.418 -1.5564 -0.5514 -0.6948
13287TIP3   OH261275   3.286   4.885   0.434 -0.3840 -0.2547  0.1074
13287TIP3    H161276   3.195   4.909   0.414 -0.1499 -0.1319 -0.8348
13287TIP3    H261277   3.278   4.812   0.495 -1.1167  0.1374  0.4992
13288TIP3   OH261278   1.682   5.287  11.352  0.8082 -0.6925 -0.2737
13288TIP3    H161279   1.762   5.279  11.301  1.0812 -0.3494  0.0986
13288TIP3    H261280   1.709   5.331  11.433  0.1132  0.1210 -0.4716
13289TIP3   OH261281   3.651   3.438   5.571  0.2146 -0.1126  0.0028
13289TIP3    H161282   3.730   3.384   5.574 -0.8576 -1.6879  0.5733
13289TIP3    H261283   3.635   3.451   5.477  2.5630  2.4849 -0.1968
13290TIP3   OH261284   1.989   5.373   5.387 -0.3505  0.3818 -0.1357
13290TIP3    H161285   1.944   5.418   5.458  0.7279 -0.2061  0.9477
13290TIP3    H261286   2.079   5.364   5.417 -0.3208 -1.6826 -0.6970
13291TIP3   OH261287   4.812   3.808  11.956  0.2100  0.7778 -0.3884
13291TIP3    H161288   4.747   3.740  11.974 -0.9224  1.4100 -1.8048
13291TIP3    H261289   4.790   3.878  12.017 -0.6759  1.1033 -1.0485
13292TIP3   OH261290   4.931   2.613  16.364  0.3310  0.3234  0.2028
13292TIP3    H161291   4.911   2.693  16.315  0.4388  0.5602  0.5445
13292TIP3    H261292   4.932   2.640  16.456 -0.4518 -0.2327  0.3880
13293TIP3   OH261293   2.062   5.311   1.450  1.0103  0.0200  0.4823
13293TIP3    H161294   1.979   5.288   1.410  0.4431 -1.0781  2.2226
13293TIP3    H261295   2.065   5.407   1.445  0.0745  0.0192 -0.3716
13294TIP3   OH261296   0.477   4.867   5.737  0.1438 -0.4100 -0.2129
13294TIP3    H161297   0.444   4.781   5.765 -0.3516  0.4019  1.8884
13294TIP3    H261298   0.564   4.872   5.775 -0.0973  0.2735  0.2644
13295TIP3   OH261299   1.200   3.281   3.478 -0.1227 -0.3545  0.5334
13295TIP3    H161300   1.284   3.308   3.517  0.3728  0.6851 -1.1395
13295TIP3    H261301   1.191   3.189   3.504 -0.7963  0.6457  4.6257
13296TIP3   OH261302   6.547   3.344  14.353 -0.8450  0.6365  0.4352
13296TIP3    H161303   6.538   3.339  14.258 -3.0474  1.6457  0.5348
13296TIP3    H261304   6.495   3.270  14.386  1.6766 -1.0846  0.8942
13297TIP3   OH261305   5.082   5.112  16.752  0.1005  0.5299 -0.0989
13297TIP3    H161306   4.993   5.127  16.720 -1.0410 -0.8035  2.1692
13297TIP3    H261307   5.086   5.017  16.767  1.0663  0.8323  1.9670
13298TIP3   OH261308   1.965   3.868  14.869  0.7162  0.0334  0.3153
13298TIP3    H161309   1.935   3.881  14.779 -2.0219  0.4179  1.1826
13298TIP3    H261310   1.941   3.777  14.889 -1.3685  0.7597  1.4734
13299TIP3   OH261311   2.334   0.826  12.267  0.3167  0.0943 -0.2990
13299TIP3    H161312   2.383   0.745  12.250  0.1762  0.1215 -0.8609
13299TIP3    H261313   2.259   0.820  12.208 -0.6927 -0.2364  0.9700
13300TIP3   OH261314   0.665   1.936  13.406 -0.4503  0.0508  0.1645
13300TIP3    H161315   0.712   2.018  13.389 -0.7594  0.5498  1.5735
13300TIP3    H261316   0.735   1.871  13.417 -0.1641  0.3132 -0.0777
13301TIP3   OH261317   6.684   2.858  15.346 -0.6002 -0.1496 -0.0700
13301TIP3    H161318   6.666   2.814  15.429  0.0680 -0.5950 -0.1446
13301TIP3    H261319   6.706   2.948  15.370  0.6488 -0.5463  0.3539
13302TIP3   OH261320   6.376   5.361   6.611  0.5785 -0.2652  0.5484
13302TIP3    H161321   6.470   5.350   6.626  0.5523  0.8753  1.7090
13302TIP3    H261322   6.340   5.272   6.617  1.3973 -0.5481  1.4771
13303TIP3   OH261323   3.142   0.365  15.934 -0.4436  0.3963 -0.1801
13303TIP3    H161324   3.076   0.345  15.868  0.1058 -2.0132 -0.1098
13303TIP3    H261325   3.196   0.286  15.937  0.7901  1.2611  1.6836
13304TIP3   OH261326   2.523   3.399   1.404  0.0625  0.7079  0.1842
13304TIP3    H161327   2.458   3.466   1.427 -0.1440  0.2568  0.9948
13304TIP3    H261328   2.593   3.412   1.468  0.5444  0.8691 -0.3743
13305TIP3   OH261329   3.992   5.633   5.433  0.8079 -0.2463  0.2857
13305TIP3    H161330   4.056   5.704   5.437 -1.1604  1.6023  0.8677
13305TIP3    H261331   4.016   5.584   5.354  2.4111  0.8534  0.0320
13306TIP3   OH261332   5.800   3.805   2.519 -0.0353  0.1591 -0.3065
13306TIP3    H161333   5.720   3.847   2.553 -0.2076  0.0482 -0.5715
13306TIP3    H261334   5.810   3.726   2.572 -1.0595 -0.7256 -1.3845
13307TIP3   OH261335   3.352   6.758  11.320  0.7327  0.4366 -0.1814
13307TIP3    H161336   3.364   6.830  11.381 -1.3504  0.0715  0.7515
13307TIP3    H261337   3.416   6.773  11.251  2.2856  1.5749  1.4369
13308TIP3   OH261338   1.882   3.599   3.976  1.4121  0.2038  0.0193
13308TIP3    H161339   1.865   3.672   3.916  1.5975  0.2905  0.0692
13308TIP3    H261340   1.846   3.522   3.932 -1.9776  0.7757  1.4443
13309TIP3   OH261341   5.778   1.451   5.316  0.4328  0.1561 -0.2110
13309TIP3    H161342   5.752   1.522   5.375  0.7540  0.9294 -0.9768
13309TIP3    H261343   5.844   1.402   5.364 -0.1686  0.0606  0.5308
13310TIP3   OH261344   5.833   4.059  11.137  0.0930 -0.0509 -0.2735
13310TIP3    H161345   5.881   3.976  11.139 -0.0630 -0.1497 -0.5982
13310TIP3    H261346   5.795   4.063  11.050 -2.1319 -0.8899  0.6095
13311TIP3   OH261347   2.824   0.676   0.006 -0.4515  0.3653 -0.0806
13311TIP3    H161348   2.753   0.640   0.059 -0.9517  3.6129  1.7142
13311TIP3    H261349   2.783   0.747  -0.043  1.1782  0.9935 -0.5772
13312TIP3   OH261350   5.982   2.909   2.487 -0.5673  0.7201  0.0043
13312TIP3    H161351   6.064   2.918   2.439  0.0882 -1.1313  0.7057
13312TIP3    H261352   5.938   2.834   2.447 -0.3713 -0.3672  1.6943
13313TIP3   OH261353   3.436   6.424   2.157 -0.6669  0.2899  0.4186
13313TIP3    H161354   3.487   6.480   2.216  0.3242  1.9104 -1.8228
13313TIP3    H261355   3.476   6.338   2.164  1.8497  1.2977 -0.5356
13314TIP3   OH261356   0.412   3.568   5.547 -0.4662  0.7457 -0.0246
13314TIP3    H161357   0.372   3.573   5.634 -1.2834 -0.0828 -0.3325
13314TIP3    H261358   0.505   3.551   5.564 -0.8987 -1.2170  0.7066
13315TIP3   OH261359   4.839   4.424  10.862 -0.0397 -0.0984 -0.4489
13315TIP3    H161360   4.761   4.479  10.872  0.1416  0.4515 -1.8022
13315TIP3    H261361   4.804   4.336  10.850 -0.3090 -0.4872  2.5883
13316TIP3   OH261362   4.001   3.713   7.266  0.0148  0.4306  0.5310
13316TIP3    H161363   3.987   3.622   7.240 -2.6944  0.7207  0.7104
13316TIP3    H261364   3.983   3.763   7.186  0.9233  0.8830  0.5901
13317TIP3   OH261365   3.738   4.296  13.395  0.0747 -0.6555 -0.2121
13317TIP3    H161366   3.779   4.311  13.480  0.9121 -0.9295 -0.5543
13317TIP3    H261367   3.655   4.254  13.416 -1.6377  2.7996  0.6970
13318TIP3   OH261368   5.528   1.527  14.571 -0.0855  0.7461  0.1092
13318TIP3    H161369   5.614   1.556  14.600  0.1367 -0.5071  0.8157
13318TIP3    H261370   5.512   1.574  14.490  1.4781  0.6538 -0.2803
13319TIP3   OH261371   2.111   4.545   5.642  0.1112 -0.2583 -0.2113
13319TIP3    H161372   2.152   4.509   5.563  2.1562 -3.0406  1.8943
13319TIP3    H261373   2.150   4.632   5.651  1.5850 -0.7827 -1.1150
13320TIP3   OH261374   4.730   1.865   0.891 -0.2761 -0.0416 -0.3471
13320TIP3    H161375   4.748   1.891   0.801  0.2992 -2.2419 -0.9385
13320TIP3    H261376   4.638   1.887   0.904 -0.6257 -0.4821 -1.8168
13321TIP3   OH261377   0.226   1.067   4.428 -0.3792  0.8704 -0.5979
13321TIP3    H161378   0.195   1.110   4.348  0.9947  0.0392 -1.6153
13321TIP3    H261379   0.310   1.110   4.447  0.0954 -0.0597 -0.5527
13322TIP3   OH261380   1.903   0.210   1.042 -0.0306  0.0456 -1.0696
13322TIP3    H161381   1.899   0.131   1.096 -0.9619  0.0355 -1.1377
13322TIP3    H261382   1.824   0.206   0.987 -0.0531  0.9788 -1.1218
13323TIP3   OH261383   4.615   4.373   1.343 -0.3783 -0.1232  0.4490
13323TIP3    H161384   4.687   4.312   1.332  1.1653  1.1865  2.5657
13323TIP3    H261385   4.566   4.339   1.417 -1.8126 -0.8184 -0.7623
13324TIP3   OH261386   2.081   6.228   4.923 -0.1528  0.1031 -0.2741
13324TIP3    H161387   2.077   6.155   4.985 -2.0479  0.2215 -0.2139
13324TIP3    H261388   2.170   6.225   4.889  0.3071 -1.2173  0.9487
13325TIP3   OH261389   4.607   6.573  11.876  0.0928  0.4161 -0.0163
13325TIP3    H161390   4.672   6.559  11.945 -0.8998 -1.6866  0.5801
13325TIP3    H261391   4.657   6.608  11.802  1.6171  0.2867  0.9208
13326TIP3   OH261392   1.531   3.438  13.461  0.3939 -0.2866  0.2554
13326TIP3    H161393   1.554   3.530  13.463 -0.1838 -0.0300 -2.1064
13326TIP3    H261394   1.552   3.409  13.372 -1.3022 -1.9099  0.2943
13327TIP3   OH261395   1.907   1.085  14.229  0.1561  0.3437  0.4362
13327TIP3    H161396   1.915   0.997  14.264  0.9750 -0.1861 -0.9851
13327TIP3    H261397   1.860   1.134  14.296 -1.8947 -1.5954  0.5411
13328TIP3   OH261398   4.419   5.012  13.479  0.0052 -0.0696 -0.2130
13328TIP3    H161399   4.436   4.942  13.542  0.8336 -0.4552 -0.8491
13328TIP3    H261400   4.346   5.061  13.517 -0.2444 -0.9620  0.4946
13329TIP3   OH261401   0.976   5.650  12.706 -0.5457  0.2836 -0.6767
13329TIP3    H161402   0.932   5.734  12.715 -0.6552  0.2392 -0.7984
13329TIP3    H261403   0.949   5.599  12.783 -0.3018  0.4389 -0.4853
13330TIP3   OH261404   1.708   1.455   2.530  0.1854 -0.1913  0.2410
13330TIP3    H161405   1.629   1.462   2.584 -0.2976 -3.9091  0.2249
13330TIP3    H261406   1.778   1.435   2.592  1.1017  2.3862  0.1661
13331TIP3   OH261407   3.004   5.534  13.043 -0.5744  0.0797  0.1063
13331TIP3    H161408   3.082   5.494  13.081 -1.9204 -0.1770  2.8739
13331TIP3    H261409   3.022   5.628  13.047  0.4862 -0.0206 -1.4987
13332TIP3   OH261410   2.628   2.304  16.281 -0.0982  0.2246  0.2485
13332TIP3    H161411   2.558   2.240  16.281  1.9765 -2.2092  0.5669
13332TIP3    H261412   2.641   2.327  16.189 -1.3553  0.8107  0.2050
13333TIP3   OH261413   6.102   5.344   1.483  0.6686 -0.0214  0.4895
13333TIP3    H161414   6.015   5.346   1.523  0.6409  0.4072  0.4052
13333TIP3    H261415   6.085   5.333   1.389  0.6748  1.0109  0.3601
13334TIP3   OH261416   6.668   4.226  13.087  0.5682  0.2172  0.4692
13334TIP3    H161417   6.665   4.130  13.087  1.6795  0.1223  2.7453
13334TIP3    H261418   6.636   4.251  13.173  1.4196  1.8490  0.3505
13335TIP3   OH261419   6.109   0.923  13.572 -0.1705  0.5914  0.2462
13335TIP3    H161420   6.087   0.946  13.662 -0.7411 -0.5466  0.4133
13335TIP3    H261421   6.039   0.865  13.544 -0.1082  1.0872 -1.0128
13336TIP3   OH261422   5.887   0.500   1.509 -0.2188  0.3153 -0.0156
13336TIP3    H161423   5.823   0.534   1.572 -0.1833 -0.7580  0.6143
13336TIP3    H261424   5.838   0.437   1.456 -0.5880  2.1408 -1.9812
13337TIP3   OH261425   4.778   1.959  11.836  0.7539 -0.8812  0.3135
13337TIP3    H161426   4.706   2.001  11.789  0.8871  0.0641  0.9276
13337TIP3    H261427   4.771   1.866  11.813  1.3426 -0.3633 -2.2499
13338TIP3   OH261428   4.733   3.936   0.492  0.2354  0.0565  0.3266
13338TIP3    H161429   4.725   3.841   0.477 -0.5912 -0.0014  1.0716
13338TIP3    H261430   4.828   3.951   0.498  0.3377 -1.0982  2.4687
13339TIP3   OH261431   1.289   1.683   4.719  0.5066 -0.5589  0.3111
13339TIP3    H161432   1.269   1.653   4.807 -0.3307  0.2118  0.3922
13339TIP3    H261433   1.320   1.605   4.674  4.2573 -0.3709  2.1848
13340TIP3   OH261434   6.363   5.783  16.867 -0.4095 -0.4462 -0.4280
13340TIP3    H161435   6.406   5.810  16.948 -0.1082  2.7295 -1.4977
13340TIP3    H261436   6.435   5.764  16.806 -0.6346 -2.2214 -0.2064
13341TIP3   OH261437   4.666   6.301   5.505  0.0776  0.0588  0.3075
13341TIP3    H161438   4.700   6.252   5.430 -1.3881 -0.2242 -0.1985
13341TIP3    H261439   4.687   6.393   5.485  0.5610 -0.1095  0.0288
13342TIP3   OH261440   0.788   0.536  16.984  0.0489 -0.2685 -0.2242
13342TIP3    H161441   0.701   0.569  17.008 -0.3229 -0.5661 -1.1247
13342TIP3    H261442   0.849   0.600  17.021 -0.6448  1.4500 -1.8839
13343TIP3   OH261443   0.760   0.899  13.251  0.4760 -0.4231  0.2095
13343TIP3    H161444   0.724   0.930  13.168  0.5421 -0.5635  0.1286
13343TIP3    H261445   0.838   0.849  13.227  1.3786  0.8216  0.4543
13344TIP3   OH261446   3.103   5.375  15.448  0.0859 -0.1938 -0.2990
13344TIP3    H161447   3.010   5.356  15.458  0.4869 -2.1384  0.1986
13344TIP3    H261448   3.114   5.464  15.481 -1.6039  0.1266 -0.5276
13345TIP3   OH261449   1.912   3.935   4.419  0.1374  0.1699  0.2692
13345TIP3    H161450   1.838   3.911   4.362  0.5762  1.3303 -0.8253
13345TIP3    H261451   1.956   3.852   4.437 -2.4156 -0.8548  2.4444
13346TIP3   OH261452   6.696   6.088   4.387 -0.1852 -0.6072 -0.3171
13346TIP3    H161453   6.712   6.155   4.453  1.6936 -0.8368 -0.4932
13346TIP3    H261454   6.639   6.024   4.430 -1.8246  0.9379 -0.0707
13347TIP3   OH261455   5.085   2.267  14.975  0.5392 -0.0683  0.1865
13347TIP3    H161456   4.990   2.268  14.985  0.4012 -0.4559 -0.9524
13347TIP3    H261457   5.110   2.359  14.972  0.0832  0.0357 -0.4691
13348TIP3   OH261458   5.247   3.423   0.772  0.3310 -0.1934  0.4728
13348TIP3    H161459   5.313   3.475   0.817  0.2062 -0.1772  0.6402
13348TIP3    H261460   5.296   3.372   0.708  0.6204 -0.7648  1.1245
13349TIP3   OH261461   1.252   2.218  12.716  0.1757 -0.0598 -1.1009
13349TIP3    H161462   1.295   2.240  12.633  1.9580 -1.4676 -0.6089
13349TIP3    H261463   1.197   2.142  12.696  0.1830 -0.0620 -1.1120
13350TIP3   OH261464   2.350   5.311   3.389  0.1451 -0.1257  0.5480
13350TIP3    H161465   2.420   5.320   3.325 -0.3933 -0.8902 -0.1711
13350TIP3    H261466   2.337   5.216   3.398  0.5489 -0.0693  2.1884
13351TIP3   OH261467   3.182   5.835   5.803  0.2743 -0.5885  0.5729
13351TIP3    H161468   3.144   5.853   5.889  1.5692 -1.4871  1.3706
13351TIP3    H261469   3.246   5.906   5.790 -1.2446  0.6314 -0.5348
13352TIP3   OH261470   2.981   0.188   0.935  0.6378 -0.3294  1.2567
13352TIP3    H161471   2.935   0.272   0.939  0.2519 -0.5201  0.8400
13352TIP3    H261472   3.054   0.203   0.875 -0.4504 -0.7709 -0.2291
13353TIP3   OH261473   0.629   3.444  12.891 -0.2983 -0.5883  0.0849
13353TIP3    H161474   0.675   3.399  12.820 -0.1800 -0.0795 -0.1639
13353TIP3    H261475   0.644   3.537  12.874  0.1229 -0.4727  1.0351
13354TIP3   OH261476   0.092   4.919   5.897  0.0023 -0.0325 -0.3584
13354TIP3    H161477   0.115   4.997   5.949  1.5144 -1.0806  0.6469
13354TIP3    H261478   0.081   4.850   5.962  1.0538 -1.1911 -1.3678
13355TIP3   OH261479   1.463   4.656  14.444 -0.3425  0.3826  0.2498
13355TIP3    H161480   1.448   4.654  14.350  1.3727  0.5094 -0.0532
13355TIP3    H261481   1.547   4.611  14.456  1.1975  3.3118  1.3292
13356TIP3   OH261482   5.859   1.107   3.593 -0.1786  0.4486 -0.5182
13356TIP3    H161483   5.808   1.176   3.635 -0.1322  0.0254  0.2529
13356TIP3    H261484   5.934   1.152   3.555  0.6269  0.6726  1.2288
13357TIP3   OH261485   2.625   5.512  16.229 -0.0235  0.2153  0.3167
13357TIP3    H161486   2.530   5.512  16.217 -0.1075 -0.3687  0.9190
13357TIP3    H261487   2.637   5.545  16.318  0.2786 -0.6963  0.6171
13358TIP3   OH261488   2.762   0.829   3.630  0.6465 -0.0323  0.1276
13358TIP3    H161489   2.701   0.809   3.701  2.7583 -2.1850  1.5171
13358TIP3    H261490   2.776   0.923   3.635 -1.1420  0.2327  0.9087
13359TIP3   OH261491   2.428   3.609   4.987 -0.0812  0.3743  0.0643
13359TIP3    H161492   2.437   3.702   4.968 -0.7383  0.4905  0.3191
13359TIP3    H261493   2.369   3.604   5.062 -0.0116 -0.2471  0.0897
13360TIP3   OH261494   2.652   4.693   2.362 -0.1315 -0.0502 -0.0718
13360TIP3    H161495   2.617   4.617   2.315 -1.5912 -0.6564  1.8629
13360TIP3    H261496   2.715   4.731   2.301 -1.2251 -1.3002 -2.1329
13361TIP3   OH261497   4.113   2.584  16.881  0.8199 -0.1563  0.0319
13361TIP3    H161498   4.032   2.631  16.899  0.9429 -0.1816  0.6872
13361TIP3    H261499   4.096   2.536  16.801  0.7626  1.1780 -0.7929
13362TIP3   OH261500   4.543   0.489   4.416  0.0222 -0.2327 -0.1206
13362TIP3    H161501   4.625   0.538   4.422 -0.3174  0.2131  1.8603
13362TIP3    H261502   4.479   0.554   4.388  0.2523 -0.4639 -1.1923
13363TIP3   OH261503   2.350   5.508  16.218  0.3107 -0.2350 -0.0994
13363TIP3    H161504   2.323   5.418  16.198 -0.7177  0.6031 -3.1118
13363TIP3    H261505   2.279   5.543  16.272  0.4065 -1.0252  0.5520
13364TIP3   OH261506   0.364   0.101  14.557  0.3492 -0.5927  0.3478
13364TIP3    H161507   0.443   0.124  14.508 -1.9687 -0.0909 -3.6032
13364TIP3    H261508   0.375   0.008  14.576  2.0495 -0.4450  0.3045
13365TIP3   OH261509   5.589   1.934  10.930 -0.4497  0.0157  0.3347
13365TIP3    H161510   5.524   1.907  10.864 -0.2594 -1.9246  0.8618
13365TIP3    H261511   5.666   1.957  10.879 -0.4723 -0.9569 -0.1769
13366TIP3   OH261512   1.717   6.428   5.257  0.1435  0.5415  0.5026
13366TIP3    H161513   1.743   6.401   5.169 -2.0207 -2.1955  0.5683
13366TIP3    H261514   1.654   6.499   5.242 -0.7863 -0.4086 -0.2518
13367TIP3   OH261515   3.938   0.525   5.476  0.4201 -0.7249  0.2450
13367TIP3    H161516   3.896   0.610   5.492 -1.4974 -0.8816 -3.2078
13367TIP3    H261517   4.032   0.545   5.477  0.0642  1.1633  0.7794
13368TIP3   OH261518   5.276   4.620   4.495  0.0895 -0.4416  0.1580
13368TIP3    H161519   5.195   4.664   4.468 -1.3557 -2.3542  1.1709
13368TIP3    H261520   5.332   4.625   4.418 -1.4037 -0.0044 -0.9529
13369TIP3   OH261521   3.628   3.918   6.753  0.1773 -0.5927  0.4331
13369TIP3    H161522   3.543   3.960   6.768  1.2209  1.6672  0.3114
13369TIP3    H261523   3.617   3.830   6.790 -2.5863 -0.8259 -0.7019
13370TIP3   OH261524   5.562   2.781  12.717 -0.5887 -0.0892  0.6072
13370TIP3    H161525   5.584   2.695  12.754  2.2513  0.3152  0.1457
13370TIP3    H261526   5.522   2.761  12.632 -0.9576 -0.9540  0.9755
13371TIP3   OH261527   6.283   1.236   4.425 -0.2588 -0.0446  0.2054
13371TIP3    H161528   6.270   1.324   4.459  1.5189  0.4112 -0.1464
13371TIP3    H261529   6.202   1.189   4.445 -1.9756  2.1459 -1.1569
13372TIP3   OH261530   1.889   5.108   3.350 -0.1108  0.0231 -0.3043
13372TIP3    H161531   1.895   5.081   3.258 -0.3959 -1.9542  0.2130
13372TIP3    H261532   1.798   5.089   3.374 -0.1550  0.9211  0.3030
13373TIP3   OH261533   3.851   0.176  12.438  0.3117 -0.0586 -0.0215
13373TIP3    H161534   3.930   0.128  12.411 -0.0905 -0.6068 -0.2341
13373TIP3    H261535   3.780   0.114  12.425 -0.2475  0.6822 -0.5440
13374TIP3   OH261536   1.426   2.677  12.339  0.5894 -0.3037  0.1900
13374TIP3    H161537   1.384   2.644  12.260 -1.6568 -0.4191  1.3408
13374TIP3    H261538   1.519   2.660  12.326  0.3422  0.0926 -2.5836
13375TIP3   OH261539   4.914   0.388   2.151  0.0446  0.2926 -0.1365
13375TIP3    H161540   4.874   0.425   2.230 -1.5946 -0.4122 -0.6177
13375TIP3    H261541   5.001   0.360   2.180 -0.5997 -0.1453  1.4824
13376TIP3   OH261542   3.869   2.382   2.027 -0.0948 -0.2613  0.4593
13376TIP3    H161543   3.917   2.411   1.948 -1.3809  0.9452  0.0819
13376TIP3    H261544   3.938   2.363   2.090  0.9875 -1.4573 -1.0077
13377TIP3   OH261545   6.307   0.281  15.740  1.1670 -0.3530 -0.4240
13377TIP3    H161546   6.378   0.328  15.695 -0.5110  2.0088 -0.8003
13377TIP3    H261547   6.241   0.268  15.672 -0.4890  1.3141  0.7636
13378TIP3   OH261548   4.389   5.192  17.172  0.1485 -0.4432  0.0118
13378TIP3    H161549   4.413   5.128  17.240 -0.3474  0.0130  0.6313
13378TIP3    H261550   4.432   5.273  17.200 -1.8825  0.3468  1.0510
13379TIP3   OH261551   3.397   4.746   5.669 -0.1427  0.6771 -0.0416
13379TIP3    H161552   3.461   4.785   5.608  0.6572 -0.8658 -0.2354
13379TIP3    H261553   3.446   4.677   5.713 -2.3071 -2.4121 -2.0939
13380TIP3   OH261554   0.524   2.419   4.802 -0.5152 -0.1345 -0.3789
13380TIP3    H161555   0.583   2.494   4.805 -0.1368 -0.3525  3.7935
13380TIP3    H261556   0.445   2.453   4.760 -0.3190  2.6694  1.2100
13381TIP3   OH261557   4.301   5.695  11.617 -0.6416  0.1526  0.5906
13381TIP3    H161558   4.309   5.703  11.522  0.9110  0.1348  0.6937
13381TIP3    H261559   4.278   5.783  11.647 -1.1679  0.1512  0.1945
13382TIP3   OH261560   2.344   4.226   1.725 -0.1005 -0.0001 -0.5279
13382TIP3    H161561   2.258   4.235   1.766 -0.4488 -2.7026 -0.4782
13382TIP3    H261562   2.355   4.306   1.675 -1.4213  1.6276  1.6200
13383TIP3   OH261563   2.494   1.327  13.512 -1.0459 -0.4294 -0.4781
13383TIP3    H161564   2.524   1.237  13.520  0.9467  0.2147 -0.1579
13383TIP3    H261565   2.495   1.361  13.602 -0.1934  0.3705 -0.7743
13384TIP3   OH261566   4.894   6.247  14.266 -0.1828 -0.3194 -0.0705
13384TIP3    H161567   4.957   6.253  14.194 -0.0950  1.3073  0.0986
13384TIP3    H261568   4.926   6.309  14.331 -2.1329  0.8619 -0.1480
13385TIP3   OH261569   0.315   5.797  12.960  0.2746  0.0219  0.3560
13385TIP3    H161570   0.232   5.754  12.941 -0.4595  1.0183  1.2204
13385TIP3    H261571   0.343   5.761  13.044  1.1319 -0.8905 -0.3020
13386TIP3   OH261572   6.074   4.740  14.555 -0.4018  0.1556 -0.8817
13386TIP3    H161573   5.978   4.741  14.554 -0.7048 -1.0247  3.5433
13386TIP3    H261574   6.098   4.829  14.581 -0.5272 -0.1136  0.2279
13387TIP3   OH261575   0.843   2.901   1.414  0.0240  0.2550 -0.2404
13387TIP3    H161576   0.801   2.815   1.421  2.6706 -1.0967  0.5024
13387TIP3    H261577   0.783   2.953   1.361 -0.9199 -2.5720 -2.1798
13388TIP3   OH261578   0.965   2.131  14.830  0.5356 -0.4048  0.9452
13388TIP3    H161579   0.934   2.211  14.788 -0.7211 -0.6899  1.3105
13388TIP3    H261580   0.991   2.158  14.918  2.6949  0.0950  0.2178
13389TIP3   OH261581   2.799   0.330  15.143 -0.4631  0.0865 -0.3613
13389TIP3    H161582   2.707   0.311  15.124 -0.4283  0.6821 -1.1814
13389TIP3    H261583   2.799   0.360  15.234 -1.1344  0.4266 -0.4677
13390TIP3   OH261584   4.615   4.560  16.154 -0.5990 -0.1161  0.4212
13390TIP3    H161585   4.551   4.603  16.097 -0.7135 -0.5432  0.2237
13390TIP3    H261586   4.564   4.530  16.229 -0.4578  0.3950  0.7309
13391TIP3   OH261587   3.821   4.567   4.634  0.4624  0.4340  0.2471
13391TIP3    H161588   3.779   4.543   4.716  1.6765  1.0030  1.0700
13391TIP3    H261589   3.751   4.606   4.581  0.1779  2.5792  2.0756
13392TIP3   OH261590   5.646   4.282  12.693 -0.0020 -0.0097 -0.1638
13392TIP3    H161591   5.608   4.348  12.751 -0.2407 -1.7280  1.7435
13392TIP3    H261592   5.580   4.270  12.625 -0.2061  1.2732 -0.2210
13393TIP3   OH261593   2.999   3.099   0.429 -0.1382 -0.4573  0.7906
13393TIP3    H161594   3.062   3.043   0.383  0.3469  0.4901  0.2803
13393TIP3    H261595   3.047   3.180   0.446 -1.4074  0.5474 -0.2222
13394TIP3   OH261596   0.402   3.896   1.082 -0.0153 -0.0467 -0.1063
13394TIP3    H161597   0.334   3.954   1.049  0.3542  1.2373  1.2935
13394TIP3    H261598   0.474   3.904   1.019 -0.5285 -0.1565 -0.7160
13395TIP3   OH261599   2.724   0.391   0.695  0.0492  0.6805  0.1242
13395TIP3    H161600   2.755   0.386   0.785 -0.7341 -0.0586  0.3692
13395TIP3    H261601   2.736   0.483   0.671  0.9379  0.7361  0.7271
13396TIP3   OH261602   2.058   5.093   5.164  0.3064  0.2711 -0.0243
13396TIP3    H161603   2.102   5.178   5.166  0.6786  0.0917 -0.4249
13396TIP3    H261604   1.985   5.102   5.226  1.4158  0.2780  1.3253
13397TIP3   OH261605   0.756   1.928  16.170  0.1118  0.2941  0.1324
13397TIP3    H161606   0.678   1.960  16.125  1.3201  1.0462 -1.4861
13397TIP3    H261607   0.781   1.999  16.230 -0.4312  0.0404  0.6757
13398TIP3   OH261608   2.661   5.922   6.347  0.2084  0.0990  0.5349
13398TIP3    H161609   2.721   5.996   6.351  1.1307 -0.6184  0.3283
13398TIP3    H261610   2.658   5.889   6.437 -0.2707  0.4296  0.6447
13399TIP3   OH261611   5.474   0.194  14.880  0.2136  0.1548 -0.0773
13399TIP3    H161612   5.524   0.265  14.921  1.0568 -0.6580  0.3399
13399TIP3    H261613   5.387   0.232  14.864  1.2015  1.8909 -1.6765
13400TIP3   OH261614   6.590   1.388   1.226  0.1274 -0.1673  0.0276
13400TIP3    H161615   6.656   1.450   1.259 -1.1525  2.0165 -1.3175
13400TIP3    H261616   6.641   1.324   1.176  1.3079  1.1984 -0.6039
13401TIP3   OH261617   0.214   1.309   1.961 -0.6628 -0.2751  0.0017
13401TIP3    H161618   0.141   1.258   1.926  1.2046 -3.2632  0.0561
13401TIP3    H261619   0.292   1.265   1.926  1.1559  1.1696  1.9865
13402TIP3   OH261620   6.231   2.129   1.781  0.6283 -0.4222  0.7904
13402TIP3    H161621   6.183   2.204   1.746 -0.4488 -0.4298  2.1765
13402TIP3    H261622   6.275   2.091   1.705 -1.0001  0.0133 -0.4218
13403TIP3   OH261623   0.793   1.258   1.727  0.0531  0.3627  0.5995
13403TIP3    H161624   0.732   1.185   1.720  0.0795  0.4062 -0.1401
13403TIP3    H261625   0.773   1.298   1.811 -0.6439  0.1197  0.5522
13404TIP3   OH261626   6.355   5.768  14.516 -0.0753  0.6042  0.4639
13404TIP3    H161627   6.277   5.823  14.505  0.1290  0.5647 -1.4782
13404TIP3    H261628   6.334   5.688  14.468  1.0081  0.4508  0.2283
13405TIP3   OH261629   0.974   2.524   4.913 -0.6448 -0.1224 -0.5753
13405TIP3    H161630   0.888   2.548   4.946 -0.5457 -1.6633  0.9800
13405TIP3    H261631   1.034   2.549   4.983  0.1700  0.8500 -1.6060
13406TIP3   OH261632   4.463   2.401  13.484  0.6670 -0.6898 -0.4874
13406TIP3    H161633   4.428   2.406  13.395 -0.6975 -0.7152  0.0344
13406TIP3    H261634   4.505   2.315  13.489 -0.8510 -1.4579 -0.5502
13407TIP3   OH261635   4.436   0.214   2.555 -0.0448 -0.1621 -0.3225
13407TIP3    H161636   4.374   0.152   2.594  1.1279 -1.1534  0.0057
13407TIP3    H261637   4.495   0.238   2.626 -0.3817  1.2476 -0.4774
13408TIP3   OH261638   3.043   5.149  17.350 -0.2135 -0.4725 -0.4223
13408TIP3    H161639   2.957   5.122  17.383  0.3455 -2.2121 -0.3149
13408TIP3    H261640   3.054   5.099  17.270 -0.0690  1.1531 -1.4701
13409TIP3   OH261641   1.885   2.949  13.438 -0.0452  0.0049 -0.4513
13409TIP3    H161642   1.976   2.945  13.409 -0.3783 -2.0586 -1.4557
13409TIP3    H261643   1.875   2.872  13.495 -1.4579 -0.5728 -1.4251
13410TIP3   OH261644   1.447   2.857   1.244  0.0510  0.1953  0.2484
13410TIP3    H161645   1.477   2.803   1.317  0.7428  0.2577  0.0211
13410TIP3    H261646   1.367   2.898   1.276  1.1057  1.3509  1.5018
13411TIP3   OH261647   1.188   0.659   0.030 -0.3073 -0.1927 -0.2237
13411TIP3    H161648   1.272   0.613   0.034  0.2770  0.9357  1.6752
13411TIP3    H261649   1.168   0.681   0.121 -2.5625 -0.2035 -0.6597
13412TIP3   OH261650   5.939   3.502  11.606  0.0684 -0.1040  0.5883
13412TIP3    H161651   5.928   3.592  11.638  0.5192 -0.3429  1.4286
13412TIP3    H261652   5.861   3.487  11.552 -0.5003  0.4547  1.2217
13413TIP3   OH261653   3.331   4.699   6.627 -0.2637 -0.2947 -0.1491
13413TIP3    H161654   3.399   4.695   6.561  1.4849  2.5327  1.2742
13413TIP3    H261655   3.376   4.681   6.710 -1.3531  0.9156  0.7511
13414TIP3   OH261656   0.158   3.559   4.242  0.6046  0.1955  0.4334
13414TIP3    H161657   0.164   3.612   4.162 -2.4855  0.3852  0.2171
13414TIP3    H261658   0.113   3.615   4.305 -0.9924 -1.4388  0.8374
13415TIP3   OH261659   5.074   5.411  15.349  0.3314 -0.6726 -0.2324
13415TIP3    H161660   5.135   5.484  15.363  1.9827 -2.1634  0.8275
13415TIP3    H261661   5.014   5.443  15.282  1.3532  1.4353 -0.2499
13416TIP3   OH261662   1.201   1.222  17.324 -0.3921 -0.6912 -0.7223
13416TIP3    H161663   1.151   1.296  17.358 -0.2381 -0.1563 -1.6145
13416TIP3    H261664   1.215   1.243  17.232 -2.3819 -2.9217 -1.6480
13417TIP3   OH261665   2.125   3.419   5.441  0.1898  0.7138  0.1185
13417TIP3    H161666   2.176   3.487   5.484 -0.8548  1.1807  0.6537
13417TIP3    H261667   2.034   3.448   5.449 -0.3044 -0.8682  0.5724
13418TIP3   OH261668   3.665   0.108   0.919  0.1584 -0.4564  0.2135
13418TIP3    H161669   3.680   0.024   0.875  0.1445  0.0274 -0.7380
13418TIP3    H261670   3.712   0.100   1.002  1.0881 -1.0060 -0.3493
13419TIP3   OH261671   2.146   4.692   3.634  0.2365  0.4006 -0.3142
13419TIP3    H161672   2.128   4.710   3.541 -0.2357  1.9289  0.0438
13419TIP3    H261673   2.234   4.655   3.634  0.1807  0.2313 -1.3916
13420TIP3   OH261674   2.384   6.313  14.718  0.2052  0.1008  0.4276
13420TIP3    H161675   2.439   6.240  14.691  0.6242  0.0567  1.3439
13420TIP3    H261676   2.432   6.391  14.689 -1.1043  0.0227 -2.1537
13421TIP3   OH261677   2.531   0.347   3.560  0.1988 -0.3394  0.3092
13421TIP3    H161678   2.565   0.268   3.520  0.9512  0.2797 -0.3054
13421TIP3    H261679   2.458   0.373   3.503  0.3378 -0.2590  0.1676
13422TIP3   OH261680   4.459   2.657  16.600  0.0126 -0.2751  0.5023
13422TIP3    H161681   4.445   2.567  16.629  0.6525 -0.2508  0.9115
13422TIP3    H261682   4.476   2.705  16.681  0.0583  0.1407  0.2458
13423TIP3   OH261683   1.370   4.437   0.766 -0.1877  0.4210 -0.5175
13423TIP3    H161684   1.312   4.392   0.705  0.4611  0.7609 -1.4100
13423TIP3    H261685   1.338   4.412   0.853 -0.5724 -0.8149 -0.9876
13424TIP3   OH261686   2.228   3.610   5.631  0.2509 -0.3292 -0.1552
13424TIP3    H161687   2.215   3.690   5.579 -0.8309 -0.3186  0.1139
13424TIP3    H261688   2.252   3.641   5.718 -0.2612 -0.2975 -0.0263
13425TIP3   OH261689   2.163   6.243   2.241  0.1695  0.2605  0.2760
13425TIP3    H161690   2.222   6.300   2.292  0.2452  0.9706 -0.5729
13425TIP3    H261691   2.210   6.160   2.234  0.7183  0.5578  0.3105
13426TIP3   OH261692   5.653   0.009  14.491 -0.1629 -0.2924  0.0953
13426TIP3    H161693   5.580  -0.013  14.549  0.5378 -0.0645  1.1039
13426TIP3    H261694   5.680   0.097  14.518  0.1172 -0.1420 -0.6507
13427TIP3   OH261695   5.134   5.447   5.355  0.3713 -0.1714 -0.9070
13427TIP3    H161696   5.130   5.411   5.444 -0.1815 -0.2755 -0.9691
13427TIP3    H261697   5.214   5.411   5.318  1.0964  0.5955 -0.1441
13428TIP3   OH261698   2.013   4.503   4.321  0.3728  0.0231  0.5214
13428TIP3    H161699   2.091   4.447   4.323 -0.7790 -1.8578 -1.7607
13428TIP3    H261700   1.962   4.475   4.397  0.0719 -1.7526 -0.2814
13429TIP3   OH261701   6.022   1.403   4.209 -0.5433 -0.2547  0.2669
13429TIP3    H161702   5.993   1.390   4.119 -2.2008 -0.6036  0.8086
13429TIP3    H261703   5.985   1.329   4.257 -1.1019  0.7720  1.5107
13430TIP3   OH261704   0.036   1.842  16.231  0.0137 -0.5946  0.2896
13430TIP3    H161705  -0.024   1.767  16.223  0.0081 -0.4847 -0.8279
13430TIP3    H261706   0.116   1.812  16.189  0.0526 -0.0171 -0.0533
13431TIP3   OH261707   3.492   0.417   1.641  0.0037  0.3622  0.0729
13431TIP3    H161708   3.462   0.345   1.697 -0.3969 -0.4167 -1.1150
13431TIP3    H261709   3.420   0.481   1.644  0.4146  0.7988  1.2284
13432TIP3   OH261710   6.483   0.149  16.705  0.0542 -0.3556 -0.3614
13432TIP3    H161711   6.433   0.127  16.784  0.9741 -0.3905  0.2308
13432TIP3    H261712   6.417   0.162  16.637 -0.7342 -0.6938  0.3257
13433TIP3   OH261713   3.379   1.549   3.483  0.0008 -0.0619 -0.2907
13433TIP3    H161714   3.339   1.468   3.451  1.1152 -0.6253 -0.3111
13433TIP3    H261715   3.352   1.615   3.419 -1.3256 -0.2984 -0.0005
13434TIP3   OH261716   3.261   5.750   6.733 -0.3724 -0.4222  0.0930
13434TIP3    H161717   3.263   5.823   6.672 -0.0120 -1.1195 -0.7438
13434TIP3    H261718   3.349   5.712   6.728 -0.0702 -0.0156  1.6534
13435TIP3   OH261719   4.668   0.554  16.457 -0.1936  0.4382  0.1083
13435TIP3    H161720   4.663   0.545  16.361 -0.8572 -0.6057  0.2261
13435TIP3    H261721   4.659   0.464  16.490  1.5024  0.5874  1.1085
13436TIP3   OH261722   0.800   0.466   0.416  0.1969 -0.3643 -0.3547
13436TIP3    H161723   0.865   0.473   0.346 -0.6367 -0.6137 -1.1750
13436TIP3    H261724   0.735   0.533   0.395 -0.4164 -0.9057 -0.2232
13437TIP3   OH261725   0.223   2.320   1.570 -0.4456  0.0095 -0.0959
13437TIP3    H161726   0.233   2.309   1.665 -1.4461  2.5675  0.4000
13437TIP3    H261727   0.189   2.236   1.539 -0.7425 -0.6652  1.9237
13438TIP3   OH261728   4.659   5.363  16.425  0.3521 -1.0587 -0.2558
13438TIP3    H161729   4.671   5.441  16.480 -1.3906 -1.2121  0.3886
13438TIP3    H261730   4.709   5.295  16.470 -0.4974 -1.0107  0.7945
13439TIP3   OH261731   0.108   3.369   0.767 -0.2118  0.0663  0.0156
13439TIP3    H161732   0.092   3.307   0.696 -0.9286  0.2107  0.0351
13439TIP3    H261733   0.136   3.314   0.841 -0.4389 -0.1903 -0.0860
13440TIP3   OH261734   4.542   4.075  15.870 -0.1323 -0.2572 -0.6575
13440TIP3    H161735   4.601   4.149  15.861 -0.6809  0.5814  1.9541
13440TIP3    H261736   4.590   4.001  15.833  1.1344  1.0258 -1.6933
13441TIP3   OH261737   2.525   2.167   5.420  0.6683 -0.5451 -0.1028
13441TIP3    H161738   2.502   2.158   5.328 -0.3186 -0.2829  0.1043
13441TIP3    H261739   2.441   2.167   5.466  1.1895 -2.0265  0.9266
13442TIP3   OH261740   1.225   0.720   1.062 -0.1997  0.3858  0.3679
13442TIP3    H161741   1.145   0.667   1.066 -0.5912  0.9560  0.1796
13442TIP3    H261742   1.285   0.668   1.008 -0.2569 -0.2826  0.9395
13443TIP3   OH261743   4.845   2.309  17.355 -0.3602  0.1977 -0.3710
13443TIP3    H161744   4.912   2.363  17.398 -0.5320 -0.8199  1.2813
13443TIP3    H261745   4.816   2.249  17.424 -1.8799 -0.4036 -1.4909
13444TIP3   OH261746   6.086   6.308  12.805  0.3868  0.3460  0.2085
13444TIP3    H161747   6.033   6.355  12.869  0.1218 -0.4794  0.6099
13444TIP3    H261748   6.024   6.276  12.740  0.5785  0.6501 -0.1251
13445TIP3   OH261749   4.671   5.050  14.311  0.2077 -0.1964  0.0513
13445TIP3    H161750   4.624   4.996  14.248  0.1907 -1.8750  1.4226
13445TIP3    H261751   4.614   5.053  14.388  0.8521  0.5864  0.5206
13446TIP3   OH261752   5.381   3.709  17.207  0.3000 -0.0698  0.0285
13446TIP3    H161753   5.472   3.696  17.180 -0.1462 -0.0470 -1.6452
13446TIP3    H261754   5.330   3.678  17.132 -1.1118 -1.2125  1.4060
13447TIP3   OH261755   2.277   0.571   0.917  0.4216 -0.3424  0.2175
13447TIP3    H161756   2.256   0.484   0.882 -0.0776 -0.9196  1.8664
13447TIP3    H261757   2.194   0.604   0.950  0.8902  0.0848  1.0056
13448TIP3   OH261758   5.678   0.424  13.713  0.2545 -0.8385 -0.2530
13448TIP3    H161759   5.683   0.332  13.687 -1.9364 -0.5271 -2.0375
13448TIP3    H261760   5.766   0.458  13.695  0.5573 -2.1288 -1.4225
13449TIP3   OH261761   0.437   4.088   0.841 -0.0975  0.4561 -0.1163
13449TIP3    H161762   0.351   4.085   0.884 -0.0213 -0.7361 -0.0284
13449TIP3    H261763   0.460   3.997   0.827 -0.1011  0.7762 -2.6873
13450TIP3   OH261764   1.902   1.624  12.487 -0.5786  0.2153 -0.1931
13450TIP3    H161765   1.904   1.639  12.392 -0.4843  1.5878  0.0047
13450TIP3    H261766   1.994   1.616  12.512 -0.4472  2.1949  0.0945
13451TIP3   OH261767   4.980   3.485   2.193  0.1191 -0.0527  0.1649
13451TIP3    H161768   4.912   3.544   2.161  0.5821  0.2076 -0.3567
13451TIP3    H261769   4.936   3.429   2.257 -0.6723 -0.1608 -0.4703
13452TIP3   OH261770   0.792   2.263  12.366  0.4496 -0.1018  0.8162
13452TIP3    H161771   0.719   2.219  12.321  1.7402 -0.8816 -0.5982
13452TIP3    H261772   0.805   2.344  12.316  0.4845  0.0912  1.1370
13453TIP3   OH261773   6.035   6.387   0.818 -0.5567  0.5596  0.3835
13453TIP3    H161774   6.106   6.362   0.758 -0.9304  1.0462 -0.2794
13453TIP3    H261775   6.067   6.466   0.861 -0.9807  1.2096 -0.4635
13454TIP3   OH261776   3.172   6.178  13.406  0.0165 -0.2953  0.1113
13454TIP3    H161777   3.096   6.174  13.465  0.6679 -0.1363  0.9882
13454TIP3    H261778   3.177   6.091  13.367 -0.0909 -0.5954  0.7463
13455TIP3   OH261779   5.195   3.119  12.184 -0.5627 -0.3758 -0.2508
13455TIP3    H161780   5.209   3.034  12.144 -2.7874 -0.5307 -0.8407
13455TIP3    H261781   5.258   3.177  12.141 -0.5387 -1.2737 -1.4811
13456TIP3   OH261782   5.425   1.439  15.727 -0.3472  0.3346  0.0761
13456TIP3    H161783   5.346   1.461  15.777 -0.3836  2.2625 -0.7655
13456TIP3    H261784   5.497   1.476  15.778 -0.2772  1.2355 -0.6495
13457TIP3   OH261785   4.385   1.679   3.500 -0.4813  0.4462  0.5761
13457TIP3    H161786   4.298   1.657   3.534 -0.6989 -0.1502 -0.3341
13457TIP3    H261787   4.389   1.775   3.507 -1.3112  0.5064  0.4019
13458TIP3   OH261788   5.682   5.955   5.930 -0.1358  0.8641  0.3801
13458TIP3    H161789   5.645   6.026   5.983 -0.9243  0.9644 -0.2851
13458TIP3    H261790   5.607   5.901   5.906  0.5002 -0.4155  1.1639
13459TIP3   OH261791   1.203   3.148   3.121  0.3081  0.5435  0.0334
13459TIP3    H161792   1.198   3.103   3.036  2.7936 -0.5135  0.3718
13459TIP3    H261793   1.179   3.238   3.101  1.8864  0.5879 -2.0719
13460TIP3   OH261794   3.698   3.651   2.149 -0.0476 -0.4835 -0.8670
13460TIP3    H161795   3.718   3.560   2.128 -1.0139 -0.6489 -1.1229
13460TIP3    H261796   3.681   3.692   2.063  1.6755  0.2826 -0.8888
13461TIP3   OH261797   6.085   5.526   2.090  0.0313 -0.1540 -0.1976
13461TIP3    H161798   6.145   5.565   2.026  0.4610 -1.2850 -0.5006
13461TIP3    H261799   6.037   5.460   2.040 -0.4035 -0.2947  0.4012
13462TIP3   OH261800   3.558   2.458  14.615  0.6889  0.5142  0.9559
13462TIP3    H161801   3.626   2.522  14.595  1.5690 -0.9428 -1.0769
13462TIP3    H261802   3.595   2.407  14.688  0.8034  1.0895  1.3115
13463TIP3   OH261803   5.728   5.345  12.395  0.2136 -0.8620  0.0571
13463TIP3    H161804   5.786   5.417  12.368  0.8490 -0.5808  1.9868
13463TIP3    H261805   5.641   5.385  12.399  0.5387 -0.2025  0.9663
13464TIP3   OH261806   2.350   2.678   4.343 -0.1352 -0.0763 -0.0714
13464TIP3    H161807   2.356   2.770   4.369  0.9420 -0.3917  0.8809
13464TIP3    H261808   2.264   2.650   4.375  0.5504 -0.0513  1.9525
13465TIP3   OH261809   2.268   0.187  15.181 -0.2968 -0.5224  0.2744
13465TIP3    H161810   2.360   0.214  15.186 -0.7436  1.2238 -0.0280
13465TIP3    H261811   2.227   0.231  15.256 -1.3325  0.8202 -1.0265
13466TIP3   OH261812   1.008   1.124  16.124 -0.3435  0.3146 -0.1856
13466TIP3    H161813   0.951   1.094  16.194  0.1784  0.7683  0.4436
13466TIP3    H261814   1.009   1.219  16.133  0.6045  0.3097 -0.1015
13467TIP3   OH261815   1.311   2.615  13.801  0.4905 -0.4370 -0.4417
13467TIP3    H161816   1.351   2.627  13.715  1.0932  2.0656  0.0990
13467TIP3    H261817   1.220   2.645  13.790 -0.3975 -2.9950 -0.8599
13468TIP3   OH261818   1.982   3.374   6.113 -0.5708  0.3534  0.8067
13468TIP3    H161819   1.890   3.350   6.121 -0.2021 -1.0336  1.0973
13468TIP3    H261820   1.992   3.450   6.171 -0.8842 -1.3599  3.2856
13469TIP3   OH261821   6.175   6.665   5.542  0.4288  0.8909  0.1609
13469TIP3    H161822   6.177   6.632   5.632  0.5642  0.7986  0.1251
13469TIP3    H261823   6.239   6.611   5.496  0.3959  0.9720  0.0208
13470TIP3   OH261824   4.622   4.922  12.987 -0.0778  0.0614 -0.2349
13470TIP3    H161825   4.634   4.995  13.047  1.4434 -1.8904  1.9985
13470TIP3    H261826   4.706   4.915  12.941  1.1634 -2.2978  2.1141
13471TIP3   OH261827   5.826   4.989  14.831  0.0001  0.0310 -0.8114
13471TIP3    H161828   5.743   4.944  14.813 -0.0007 -0.3316  0.0608
13471TIP3    H261829   5.810   5.035  14.914  0.9805 -0.8025 -0.1499
13472TIP3   OH261830   4.137   1.764  15.885  0.0665  0.5830 -0.0746
13472TIP3    H161831   4.171   1.760  15.796  2.0208  2.6522  0.5107
13472TIP3    H261832   4.044   1.787  15.874 -0.2807 -1.2387 -1.5669
13473TIP3   OH261833   4.278   4.829   5.491 -0.2485  0.3021 -0.4724
13473TIP3    H161834   4.299   4.741   5.459 -1.9416  0.5372 -2.4555
13473TIP3    H261835   4.291   4.885   5.415 -0.0370  1.6513  0.5301
13474TIP3   OH261836   6.648   2.374   1.297 -0.1841  0.1272  0.2019
13474TIP3    H161837   6.678   2.326   1.374  2.3703  1.2782  0.0138
13474TIP3    H261838   6.593   2.444   1.332 -0.1437 -0.1644  0.8530
13475TIP3   OH261839   5.672   4.293   2.019 -0.6540 -0.5102 -0.4595
13475TIP3    H161840   5.647   4.249   2.100  0.3931 -2.7635 -1.2957
13475TIP3    H261841   5.761   4.262   2.001 -0.2084  1.2637 -1.6202
13476TIP3   OH261842   2.185   5.699   0.243 -0.6586  0.1977 -0.4843
13476TIP3    H161843   2.104   5.674   0.288  0.6289  0.9428  2.5044
13476TIP3    H261844   2.251   5.640   0.280  0.7839  2.0068 -0.0624
13477TIP3   OH261845   3.510   0.163  11.067  0.2504 -0.3060  0.0046
13477TIP3    H161846   3.449   0.206  11.007  2.7012 -1.7118 -3.8922
13477TIP3    H261847   3.562   0.235  11.103 -1.2301  0.5808  0.4544
13478TIP3   OH261848   2.401   1.650  16.428  0.0548  0.0154  0.4101
13478TIP3    H161849   2.333   1.614  16.371  0.1175  0.6590 -0.0896
13478TIP3    H261850   2.363   1.650  16.515  0.7163 -3.0625  0.8205
13479TIP3   OH261851   1.746   0.947   5.644 -0.3657 -0.2830 -0.3899
13479TIP3    H161852   1.673   0.996   5.608  1.4255  2.4348 -0.6499
13479TIP3    H261853   1.760   0.875   5.582 -0.9944  0.8815 -1.9492
13480TIP3   OH261854   4.343   4.643  13.618 -0.2580  0.3213 -0.3281
13480TIP3    H161855   4.416   4.704  13.613  0.3862 -0.4344 -0.3752
13480TIP3    H261856   4.295   4.656  13.536  1.2003 -0.8391 -1.4109
13481TIP3   OH261857   1.978   5.786  13.523  0.5775  0.2084  0.2126
13481TIP3    H161858   2.007   5.819  13.438 -1.8689 -0.0848 -0.8154
13481TIP3    H261859   1.999   5.692  13.521  0.8277  0.2645  0.1087
13482TIP3   OH261860   6.724   1.810  15.446  0.0918  0.3741 -0.3953
13482TIP3    H161861   6.666   1.805  15.370  0.7522  0.2710 -0.8935
13482TIP3    H261862   6.810   1.785  15.413  0.2161 -0.5751  0.5762
13483TIP3   OH261863   1.364   0.038   1.049  0.1322  0.7995  0.0941
13483TIP3    H161864   1.392  -0.000   1.133 -0.3671  0.8444  0.2842
13483TIP3    H261865   1.446   0.052   1.001  0.3710  0.0440  0.2572
13484TIP3   OH261866   1.244   6.435  12.303 -0.4940  0.0538  0.6443
13484TIP3    H161867   1.325   6.450  12.351 -1.1917  1.0345  1.5616
13484TIP3    H261868   1.182   6.498  12.339 -1.6970 -0.7097  0.0130
13485TIP3   OH261869   4.660   1.428  15.488 -0.3886  0.2293 -0.2189
13485TIP3    H161870   4.646   1.405  15.580  0.0771  0.2722 -0.1386
13485TIP3    H261871   4.628   1.351  15.440 -0.9070  0.3263 -0.0363
13486TIP3   OH261872   6.109   0.897   4.936  0.6855 -0.8071 -0.5038
13486TIP3    H161873   6.059   0.829   4.981  1.7804 -1.2500  0.1082
13486TIP3    H261874   6.158   0.849   4.869  1.4928 -0.6492 -0.0411
13487TIP3   OH261875   4.245   6.317   2.438 -0.3365  0.1343  0.0769
13487TIP3    H161876   4.302   6.257   2.390  0.4947 -0.6971  2.0022
13487TIP3    H261877   4.261   6.402   2.397  1.3280 -0.3031 -0.2705
13488TIP3   OH261878   6.533   4.139   3.225  0.7800 -0.6317  0.0764
13488TIP3    H161879   6.478   4.216   3.211  1.4654  0.0222  0.9131
13488TIP3    H261880   6.576   4.125   3.141  0.7781  0.0007 -0.0322
13489TIP3   OH261881   2.202   1.156   2.888  0.9298 -0.0889  0.7024
13489TIP3    H161882   2.148   1.140   2.810  1.8958  0.8505 -0.1911
13489TIP3    H261883   2.153   1.116   2.959  0.4942 -1.8870 -0.5268
13490TIP3   OH261884   2.515   1.742  16.731 -0.2961 -0.2925  0.1349
13490TIP3    H161885   2.494   1.800  16.659 -0.8404 -1.7782 -0.9545
13490TIP3    H261886   2.591   1.782  16.773 -1.0654  1.5426 -0.1309
13491TIP3   OH261887   2.143   6.190  11.784 -0.5588  0.4929 -0.6455
13491TIP3    H161888   2.162   6.162  11.695 -1.9775 -0.1314 -0.7809
13491TIP3    H261889   2.083   6.264  11.774 -2.1161 -0.6587 -0.2315
13492TIP3   OH261890   5.739   4.946  16.067  0.0163  0.1267  0.0612
13492TIP3    H161891   5.753   4.896  15.987 -0.4877 -0.5820  0.4072
13492TIP3    H261892   5.820   4.935  16.117  0.6018  1.1318 -0.6323
13493TIP3   OH261893   0.809   5.760  14.730 -0.0720 -0.3708 -0.0586
13493TIP3    H161894   0.769   5.749  14.816  0.3553  1.4877  0.4287
13493TIP3    H261895   0.751   5.713  14.670 -1.8580  0.5121  0.8974
13494TIP3   OH261896   6.404   3.943   5.825  0.0669 -0.2808 -0.0898
13494TIP3    H161897   6.324   3.902   5.859  0.2233  0.2261  0.8871
13494TIP3    H261898   6.422   3.895   5.744 -0.1744 -1.6607  0.6473
13495TIP3   OH261899   1.864   6.107  12.868  0.1204  0.1734 -0.9716
13495TIP3    H161900   1.854   6.196  12.901 -0.9201 -0.7035  1.3039
13495TIP3    H261901   1.789   6.093  12.810 -2.1194 -0.4252  1.8196
13496TIP3   OH261902   2.625   2.588  15.486 -0.1034 -0.5315 -0.5628
13496TIP3    H161903   2.539   2.548  15.470 -0.5473 -0.3854  1.2329
13496TIP3    H261904   2.679   2.516  15.518  0.2391 -0.4736 -1.0060
13497TIP3   OH261905   3.466   1.244  14.286 -0.1460  0.7023 -0.4210
13497TIP3    H161906   3.453   1.266  14.194  2.2166 -1.7665 -1.4462
13497TIP3    H261907   3.545   1.190  14.288 -1.3460 -1.2299  2.7736
13498TIP3   OH261908   5.791   5.910   5.312  0.2342 -0.0001  0.0918
13498TIP3    H161909   5.824   5.860   5.238 -0.4115  0.0331 -0.2255
13498TIP3    H261910   5.707   5.944   5.283  1.2080  2.3679 -0.1632
13499TIP3   OH261911   2.704   5.166   3.823 -0.0966 -1.4504 -0.0437
13499TIP3    H161912   2.703   5.201   3.734  0.5736  0.3142  0.5881
13499TIP3    H261913   2.671   5.077   3.814 -3.8886 -0.1284 -1.5556
13500TIP3   OH261914   2.591   3.289  12.197  0.2834 -0.1149 -0.1297
13500TIP3    H161915   2.534   3.216  12.221 -1.5279  1.2789  0.0143
13500TIP3    H261916   2.629   3.319  12.280  2.0320 -1.6121 -0.3275
13501TIP3   OH261917   3.066   3.282   4.156 -0.1181 -0.2262 -0.8366
13501TIP3    H161918   3.055   3.374   4.129  3.0335  0.1330 -1.2441
13501TIP3    H261919   3.011   3.274   4.234  0.8266  2.5529  0.2522
13502TIP3   OH261920   1.377   3.727   2.169 -0.7786  0.1397 -0.9247
13502TIP3    H161921   1.321   3.772   2.232 -0.4776 -0.2221 -0.3964
13502TIP3    H261922   1.342   3.754   2.084 -0.5195  1.4914 -0.6333
13503TIP3   OH261923   4.922   1.220  15.662 -0.5245  0.0676  0.0663
13503TIP3    H161924   4.913   1.303  15.708  1.1972 -0.4650  1.4933
13503TIP3    H261925   4.917   1.243  15.569  0.2103  1.8139  0.4236
13504TIP3   OH261926   6.550   0.629  16.426  0.1642  0.1936 -0.6735
13504TIP3    H161927   6.627   0.686  16.426  1.5011 -1.5272 -0.5696
13504TIP3    H261928   6.534   0.610  16.518  0.2883 -0.3068 -0.7529
13505TIP3   OH261929   3.649   3.028   4.760 -0.5196 -0.0589  0.6040
13505TIP3    H161930   3.636   3.087   4.685 -0.5483 -0.4643  0.2871
13505TIP3    H261931   3.572   3.041   4.814 -1.0590 -0.6089 -0.0174
13506TIP3   OH261932   2.021   4.057   3.028 -0.5920  0.0967  0.2749
13506TIP3    H161933   1.971   4.136   3.050 -1.4127 -0.4951  0.5993
13506TIP3    H261934   1.976   3.987   3.076 -0.3102 -0.6746 -0.5763
13507TIP3   OH261935   6.662   6.545   2.270  0.3696  0.3663  0.5196
13507TIP3    H161936   6.718   6.611   2.311 -0.1943  1.3262 -0.2070
13507TIP3    H261937   6.690   6.462   2.309  0.7516  1.0857  1.8266
13508TIP3   OH261938   3.140   1.379  16.425  0.0572 -0.1490  0.4227
13508TIP3    H161939   3.235   1.389  16.422 -0.0402  0.9193 -2.1665
13508TIP3    H261940   3.120   1.316  16.355 -1.1088 -1.0411  1.4989
13509TIP3   OH261941   0.157   3.345   2.839  0.4507  0.1785  0.4895
13509TIP3    H161942   0.154   3.252   2.858  0.3929 -0.1797 -1.1266
13509TIP3    H261943   0.093   3.384   2.899 -0.1018 -0.9196  0.6379
13510TIP3   OH261944   5.652   6.288  14.243  0.5219  0.6335  0.6442
13510TIP3    H161945   5.677   6.347  14.172 -0.8912  1.4625  0.8057
13510TIP3    H261946   5.700   6.207  14.224  2.0477  1.6106  0.0922
13511TIP3   OH261947   3.717   4.033  17.223 -0.4095 -0.0389  0.4164
13511TIP3    H161948   3.703   3.988  17.307 -1.0942  1.0565  0.9191
13511TIP3    H261949   3.679   3.974  17.158  0.2120 -0.9465  0.8540
13512TIP3   OH261950   1.503   0.590  12.138  0.1548  0.6270 -0.2198
13512TIP3    H161951   1.554   0.583  12.220 -0.9264  0.8404  0.4905
13512TIP3    H261952   1.517   0.680  12.109  1.5296  0.2118 -0.9621
13513TIP3   OH261953   5.129   3.930   2.793  0.6575 -0.0511 -0.2248
13513TIP3    H161954   5.040   3.964   2.802  1.2017  1.4227 -0.0942
13513TIP3    H261955   5.150   3.896   2.880  1.3005  2.4573  0.6905
13514TIP3   OH261956   3.757   4.318   5.347 -0.7269 -0.5451 -0.3333
13514TIP3    H161957   3.673   4.303   5.303 -1.9043  0.8055  1.3037
13514TIP3    H261958   3.733   4.357   5.431  1.5295 -0.9112  0.5403
13515TIP3   OH261959   0.227   3.265  16.380  0.5884  0.0849 -0.3164
13515TIP3    H161960   0.293   3.321  16.339 -0.8770  1.9243 -0.3177
13515TIP3    H261961   0.185   3.321  16.445  0.0724 -1.5161  0.7938
13516TIP3   OH261962   2.963   1.045   3.243  0.5670  0.5758 -0.3352
13516TIP3    H161963   2.965   1.011   3.153 -0.2853  1.2600 -0.6268
13516TIP3    H261964   2.880   1.014   3.279  0.2186  1.5289 -0.2904
13517TIP3   OH261965   0.001   5.745   2.820  0.2455  0.1986  0.5343
13517TIP3    H161966   0.040   5.793   2.893 -0.7354 -0.1428  1.3110
13517TIP3    H261967   0.051   5.664   2.815  1.7261  1.1164 -0.6030
13518TIP3   OH261968   3.830   2.849  12.290  0.3675 -0.3965  0.3266
13518TIP3    H161969   3.773   2.827  12.364 -0.1876 -0.3839 -0.0968
13518TIP3    H261970   3.914   2.873  12.331 -0.7158  2.3582  1.1498
13519TIP3   OH261971   4.920   1.666  11.917  0.1171 -0.5091  0.1905
13519TIP3    H161972   4.965   1.629  11.993  0.7113 -1.9495 -0.8187
13519TIP3    H261973   4.981   1.732  11.882 -0.3102  0.4124  1.1354
13520TIP3   OH261974   3.386   2.847   6.077  0.4676 -0.2704 -0.0873
13520TIP3    H161975   3.374   2.885   6.164 -0.3493 -1.2512  0.2477
13520TIP3    H261976   3.467   2.797   6.083  1.1206  0.7443 -0.2954
13521TIP3   OH261977   5.488   6.726  13.746 -0.2727  0.1439  0.7448
13521TIP3    H161978   5.409   6.710  13.798 -0.0190 -0.1428  1.0427
13521TIP3    H261979   5.497   6.821  13.746 -0.0120  0.1278  1.6310
13522TIP3   OH261980   1.446   1.624  15.624 -0.2597 -0.0310  0.1875
13522TIP3    H161981   1.402   1.690  15.569  0.4643  1.1204  0.9613
13522TIP3    H261982   1.395   1.621  15.704 -0.3965 -0.5690  0.0877
13523TIP3   OH261983   5.907   0.245   3.579 -0.6704  0.2143 -0.2504
13523TIP3    H161984   5.871   0.232   3.667 -0.1115  1.5617  0.2095
13523TIP3    H261985   5.962   0.323   3.587  0.9497 -0.7374 -1.3398
13524TIP3   OH261986   5.413   5.054   1.621 -0.3328  0.0702 -0.0712
13524TIP3    H161987   5.497   5.012   1.600 -0.2769  0.3579 -0.4367
13524TIP3    H261988   5.350   5.009   1.566 -0.2331  0.6226 -0.6560
13525TIP3   OH261989   0.076   0.228  12.126  0.1976 -0.0115  0.1985
13525TIP3    H161990   0.095   0.156  12.065  2.2977  0.8134 -0.2008
13525TIP3    H261991   0.069   0.305  12.069 -1.1386  0.2751  0.7139
13526TIP3   OH261992   2.673   0.143  17.250  0.6146 -0.0336  0.2627
13526TIP3    H161993   2.716   0.086  17.314 -0.1827 -1.3797 -0.3497
13526TIP3    H261994   2.721   0.129  17.169  0.5297  0.3057  0.1530
13527TIP3   OH261995   6.474   1.437  15.983  0.1039  0.1895 -0.9932
13527TIP3    H161996   6.567   1.462  15.979  0.1054  0.3030 -0.3665
13527TIP3    H261997   6.465   1.392  16.067 -0.4717  0.4305 -0.9220
13528TIP3   OH261998   2.849   0.445   4.628  0.6503 -0.3043 -0.0946
13528TIP3    H161999   2.863   0.410   4.540  2.1380  2.0955 -0.9414
13528TIP3    H262000   2.902   0.390   4.685  3.4395  0.7483 -1.4496
13529TIP3   OH262001   4.792   3.580   3.966 -0.3183  0.6368 -0.1062
13529TIP3    H162002   4.765   3.646   4.030  0.0481 -0.1701  0.9239
13529TIP3    H262003   4.886   3.570   3.982 -0.4856 -0.5797  0.1938
13530TIP3   OH262004   5.874   4.709  14.831  0.0425 -0.1751  0.0181
13530TIP3    H162005   5.785   4.715  14.795 -1.1474  1.6162  2.8593
13530TIP3    H262006   5.931   4.707  14.754 -2.3926 -0.3556 -1.9195
13531TIP3   OH262007   1.399   0.839   3.277 -0.0103  0.0188 -0.6704
13531TIP3    H162008   1.305   0.834   3.296 -0.2551  1.0220 -1.5219
13531TIP3    H262009   1.429   0.916   3.326  0.9795 -1.8410  1.8409
13532TIP3   OH262010   0.676   1.686  11.375  0.0737  0.0918  0.1899
13532TIP3    H162011   0.670   1.626  11.300  0.1319 -0.9168  0.9720
13532TIP3    H262012   0.622   1.760  11.350  1.7799  0.7706 -1.7456
13533TIP3   OH262013   1.207   5.327  12.407 -0.3942 -0.2147  0.3687
13533TIP3    H162014   1.258   5.312  12.327 -0.1208  1.5972  0.1763
13533TIP3    H262015   1.238   5.260  12.468  0.1152 -0.9777 -0.6901
13534TIP3   OH262016   0.594   3.519   0.563  0.1305 -0.2362  0.3632
13534TIP3    H162017   0.506   3.539   0.532 -0.0561 -1.5030  0.0319
13534TIP3    H262018   0.583   3.441   0.618  0.8545  0.3702  1.3949
13535TIP3   OH262019   0.935   3.213   6.305  0.0362 -0.0961  0.1952
13535TIP3    H162020   0.927   3.196   6.211  0.9066 -1.4099  0.3428
13535TIP3    H262021   1.006   3.276   6.312  0.4322 -0.5125  0.0074
13536TIP3   OH262022   0.529   6.440  13.142  0.1461 -0.1400 -0.2465
13536TIP3    H162023   0.623   6.428  13.136  0.8291  3.4955  1.1204
13536TIP3    H262024   0.499   6.369  13.199  2.2011 -0.6773  0.2238
13537TIP3   OH262025   1.917   4.621  12.324  0.4132 -0.0688 -0.0787
13537TIP3    H162026   1.878   4.620  12.237  0.8955 -1.8736 -0.3244
13537TIP3    H262027   1.873   4.550  12.371  1.1498 -0.0449  0.6826
13538TIP3   OH262028   2.764   5.335   5.776 -0.1541 -0.8491 -0.2299
13538TIP3    H162029   2.767   5.295   5.689 -0.7249 -1.2681 -0.0655
13538TIP3    H262030   2.856   5.349   5.799 -0.0089 -0.3853 -1.0521
13539TIP3   OH262031   2.462   1.498  13.309 -0.7018 -0.2040 -0.0465
13539TIP3    H162032   2.433   1.441  13.379 -1.1911 -0.2578 -0.2852
13539TIP3    H262033   2.526   1.556  13.349 -1.8769  0.5856  0.7522
13540TIP3   OH262034   2.425   2.858   4.719 -0.2778  0.2858  0.3523
13540TIP3    H162035   2.506   2.807   4.727 -1.1236 -1.3105 -0.6426
13540TIP3    H262036   2.425   2.889   4.628 -0.7954  0.2209  0.3262
13541TIP3   OH262037   6.640   5.077   2.895  0.0328 -0.0985  0.0364
13541TIP3    H162038   6.638   5.159   2.847 -0.5937  0.6113  1.2300
13541TIP3    H262039   6.677   5.014   2.834 -2.2746  0.3777 -1.9886
13542TIP3   OH262040   0.531   0.576   6.111  0.0435  0.3058 -0.1075
13542TIP3    H162041   0.604   0.574   6.173  1.0510  1.9490 -1.1723
13542TIP3    H262042   0.511   0.484   6.095  2.2861 -0.2192 -0.2204
13543TIP3   OH262043   5.876   6.230  17.240  0.1207 -0.0225  1.0370
13543TIP3    H162044   5.858   6.150  17.289  2.2036 -0.9721  0.3920
13543TIP3    H262045   5.802   6.287  17.258 -1.9916 -2.4636  0.6856
13544TIP3   OH262046   1.724   0.685   1.978  0.4504  0.4177 -0.2161
13544TIP3    H162047   1.733   0.590   1.988 -0.7081  0.2905 -0.2535
13544TIP3    H262048   1.740   0.700   1.885 -0.7347  0.0593 -0.5034
13545TIP3   OH262049   3.515   2.688  15.845 -0.1935 -0.0110 -0.0367
13545TIP3    H162050   3.571   2.618  15.812 -0.1082 -0.3511  0.8164
13545TIP3    H262051   3.531   2.690  15.939  0.5917  1.8725 -0.1832
13546TIP3   OH262052   2.997   4.274  15.301  0.1948  0.2318  0.0818
13546TIP3    H162053   3.010   4.185  15.333 -0.5068  0.3679  0.7801
13546TIP3    H262054   3.070   4.289  15.241  1.0527 -0.3529  0.9506
13547TIP3   OH262055   1.013   6.612  16.767 -0.8300  0.2008  0.0445
13547TIP3    H162056   0.980   6.545  16.827 -0.5493 -1.4143 -1.5193
13547TIP3    H262057   1.066   6.563  16.703  2.4055  2.2901  0.8582
13548TIP3   OH262058   3.006   5.008  12.399  0.3096  0.8721 -0.4807
13548TIP3    H162059   2.960   4.935  12.359 -0.5399  0.8783  0.4232
13548TIP3    H262060   3.085   4.970  12.437 -1.4821 -0.2228  2.4902
13549TIP3   OH262061   5.855   4.095  13.746 -0.4142 -0.1819 -0.4775
13549TIP3    H162062   5.828   4.040  13.673 -1.9729 -0.3019  0.1449
13549TIP3    H262063   5.855   4.184  13.711 -0.1241 -0.3466 -0.8957
13550TIP3   OH262064   5.230   0.388  14.848  0.2759 -0.4609  0.1023
13550TIP3    H162065   5.176   0.330  14.902 -1.0802 -0.1904 -0.9079
13550TIP3    H262066   5.184   0.392  14.764  2.0068 -0.3807 -0.8745
13551TIP3   OH262067   4.351   1.928   4.168 -0.1685 -0.0275 -0.1319
13551TIP3    H162068   4.422   1.992   4.163 -0.5167  0.3336 -0.5643
13551TIP3    H262069   4.382   1.862   4.230  0.8689 -0.2705 -0.8762
13552TIP3   OH262070   5.420   6.660   0.274 -0.2502  0.1449  0.2943
13552TIP3    H162071   5.358   6.733   0.269 -1.1370 -0.6493 -0.7433
13552TIP3    H262072   5.365   6.585   0.297  0.8866  0.0620  3.1610
13553TIP3   OH262073   4.968   3.529   1.756 -0.3140  0.4157 -0.0584
13553TIP3    H162074   4.916   3.468   1.703  0.7597 -0.7961  0.2049
13553TIP3    H262075   5.031   3.566   1.695 -0.6095  0.8595 -0.1015
13554TIP3   OH262076   6.481   5.205  11.386  0.3164 -1.0811  0.1180
13554TIP3    H162077   6.564   5.254  11.386  0.6528 -1.5433  1.9144
13554TIP3    H262078   6.416   5.269  11.414  0.0963 -0.7923 -1.0107
13555TIP3   OH262079   3.518   3.802  15.771 -0.4416 -0.2298 -0.4069
13555TIP3    H162080   3.512   3.709  15.749  2.1806 -0.0953 -2.1127
13555TIP3    H262081   3.490   3.847  15.692  2.4742  0.3320 -1.2211
13556TIP3   OH262082   3.862   3.588  13.060 -0.6497  0.4953 -0.4123
13556TIP3    H162083   3.779   3.541  13.075  0.5573 -1.2772  1.1539
13556TIP3    H262084   3.864   3.654  13.128 -0.6531  0.3543 -0.2739
13557TIP3   OH262085   1.609   5.212   0.975 -0.0123 -0.2059  0.3609
13557TIP3    H162086   1.527   5.221   1.025  0.8510 -2.7695  2.5047
13557TIP3    H262087   1.585   5.158   0.900 -0.4682 -0.2415  0.5284
13558TIP3   OH262088   1.573   0.586  16.816  0.5252 -0.3466  0.5904
13558TIP3    H162089   1.635   0.517  16.838 -0.3830 -1.3152  0.1894
13558TIP3    H262090   1.616   0.638  16.748  0.5385 -1.5633 -0.3543
13559TIP3   OH262091   2.721   3.320   2.861  0.5263  0.1901  0.3700
13559TIP3    H162092   2.794   3.348   2.915  1.3477 -0.0986 -0.5545
13559TIP3    H262093   2.731   3.369   2.779  1.2021 -1.6705 -0.7521
13560TIP3   OH262094   2.434   4.308  11.609  0.4369  0.8331  0.1660
13560TIP3    H162095   2.396   4.284  11.693 -0.2111  3.0176  0.5515
13560TIP3    H262096   2.378   4.378  11.576  1.8091  1.3628 -1.1795
13561TIP3   OH262097   0.161   2.503  13.275 -0.3676  0.2945 -0.1910
13561TIP3    H162098   0.216   2.519  13.351 -1.8285  2.3307  0.5320
13561TIP3    H262099   0.112   2.584  13.263 -1.0623 -0.3896 -2.5911
13562TIP3   OH262100   5.568   1.593   0.427  0.5136 -0.1068 -0.1697
13562TIP3    H162101   5.565   1.499   0.445 -1.7754 -0.3565 -1.4407
13562TIP3    H262102   5.496   1.608   0.366  1.0601  2.4332 -0.3096
13563TIP3   OH262103   3.388   5.297  17.208 -0.3405  0.1850  0.1146
13563TIP3    H162104   3.399   5.214  17.161  1.1771  0.2512  0.2935
13563TIP3    H262105   3.373   5.271  17.299 -1.6791  0.0948 -0.1068
13564TIP3   OH262106   2.974   1.522  12.917  0.4315  0.1302  0.1569
13564TIP3    H162107   3.068   1.511  12.932  0.5629  1.5604  0.6096
13564TIP3    H262108   2.941   1.555  13.000 -0.5202 -0.5797  0.0676
13565TIP3   OH262109   6.278   2.689  14.105 -0.9694 -0.3171  0.2298
13565TIP3    H162110   6.311   2.629  14.172 -0.2429 -0.9775 -0.6907
13565TIP3    H262111   6.313   2.655  14.023 -1.0971  0.9957 -0.3976
13566TIP3   OH262112   5.821   6.526   3.489 -0.1402 -0.1100  0.1302
13566TIP3    H162113   5.852   6.491   3.572  0.4574  2.3435  1.0547
13566TIP3    H262114   5.851   6.464   3.423  0.3555 -1.5386  1.6495
13567TIP3   OH262115   1.188   5.697  16.860  0.0274  0.1615  1.0782
13567TIP3    H162116   1.207   5.729  16.772 -1.9407 -0.6749  0.2923
13567TIP3    H262117   1.118   5.754  16.892 -1.6753 -1.5631  0.6828
13568TIP3   OH262118   3.252   0.144  12.182  0.5206 -1.1134 -0.2809
13568TIP3    H162119   3.188   0.107  12.122 -0.3158  0.6802 -0.5735
13568TIP3    H262120   3.337   0.127  12.141  0.0808 -1.5183 -1.0346
13569TIP3   OH262121   1.960   2.339  14.095  0.1612  0.0039  0.2155
13569TIP3    H162122   1.925   2.369  14.179  0.5278  0.5537  0.1800
13569TIP3    H262123   1.882   2.323  14.041 -0.0648  1.9240 -0.1078
13570TIP3   OH262124   5.009   0.419  15.606  0.3709 -0.0460 -0.0113
13570TIP3    H162125   4.931   0.437  15.657  0.0933 -3.1947  0.9202
13570TIP3    H262126   4.990   0.336  15.562  3.1033 -0.9077  0.2248
13571TIP3   OH262127   4.180   4.095   5.682 -0.7547 -0.4491  0.2070
13571TIP3    H162128   4.251   4.113   5.619  0.4392 -0.1362  1.5934
13571TIP3    H262129   4.106   4.147   5.650  0.5343  1.5753  0.3352
13572TIP3   OH262130   5.306   4.872  12.740  0.2195 -0.3061 -0.0845
13572TIP3    H162131   5.313   4.813  12.665 -2.6278 -0.2186 -0.5304
13572TIP3    H262132   5.308   4.814  12.816  2.7578 -0.4253 -0.1638
13573TIP3   OH262133   0.758   6.416   1.746  0.3661  0.0570  0.2892
13573TIP3    H162134   0.709   6.442   1.668 -1.4265 -0.1874  1.2789
13573TIP3    H262135   0.808   6.339   1.718 -0.7828 -0.4507 -0.4450
13574TIP3   OH262136   3.852   1.122   2.374  0.3678 -0.1067  0.5205
13574TIP3    H162137   3.857   1.188   2.305  0.2494 -0.7929 -0.1657
13574TIP3    H262138   3.900   1.160   2.448 -1.0085  1.3767  0.6958
13575TIP3   OH262139   5.562   0.186   5.614 -0.1709 -0.2647 -0.0724
13575TIP3    H162140   5.512   0.124   5.666  0.5363 -1.3307 -0.6258
13575TIP3    H262141   5.585   0.256   5.675  1.1181 -1.7395  1.2364
13576TIP3   OH262142   1.405   5.044  13.881 -0.3352  0.5530 -0.2010
13576TIP3    H162143   1.336   5.017  13.821 -0.9078  1.4550  0.0390
13576TIP3    H262144   1.482   5.056  13.826 -0.6388  0.5683 -0.6249
13577TIP3   OH262145   6.624   4.394  15.431  0.2437  0.0421 -0.2074
13577TIP3    H162146   6.635   4.403  15.337 -1.4153  1.4784 -0.3212
13577TIP3    H262147   6.706   4.425  15.469  0.2268  1.3049 -1.1490
13578TIP3   OH262148   2.199   3.807   2.551 -0.1290 -0.6059  0.2013
13578TIP3    H162149   2.148   3.807   2.470  0.0299 -0.6837  0.1000
13578TIP3    H262150   2.290   3.807   2.521 -0.0404  1.3082  0.3464
13579TIP3   OH262151   0.466   0.798  10.783  0.3623  0.8685 -0.0891
13579TIP3    H162152   0.455   0.887  10.817  0.5530  0.9903 -0.3455
13579TIP3    H262153   0.441   0.742  10.856  0.9935  1.1251  0.3313
13580TIP3   OH262154   4.580   4.861   5.685  0.2533  0.0654  0.0518
13580TIP3    H162155   4.642   4.789   5.701 -0.5309 -0.3669  1.2806
13580TIP3    H262156   4.614   4.905   5.607  0.9497 -1.4260 -0.5229
13581TIP3   OH262157   5.963   3.966  16.995 -0.0581  0.5617  0.1414
13581TIP3    H162158   5.896   3.991  16.931  1.2917 -0.3660 -1.7366
13581TIP3    H262159   5.975   4.044  17.049 -0.8607  1.5801 -1.0937
13582TIP3   OH262160   4.235   2.578  16.118  0.0577 -0.4617  0.1017
13582TIP3    H162161   4.306   2.621  16.071 -1.0371  2.0660  0.5867
13582TIP3    H262162   4.237   2.617  16.206 -2.1843  0.0756 -0.0265
13583TIP3   OH262163   5.686   6.531  14.675  0.6590  0.1102  0.0852
13583TIP3    H162164   5.699   6.609  14.620 -1.5622  0.6999  0.3035
13583TIP3    H262165   5.642   6.469  14.617  0.0633  0.0089  0.6395
13584TIP3   OH262166   3.329   6.262  11.386 -0.4442  0.5180 -0.2176
13584TIP3    H162167   3.376   6.205  11.325  2.1821  1.4352  0.8017
13584TIP3    H262168   3.364   6.349  11.369 -0.5611  0.9924  1.7165
13585TIP3   OH262169   1.039   4.247   4.788  0.0741 -0.4416  0.1234
13585TIP3    H162170   1.003   4.268   4.702  0.8014 -0.3015 -0.1535
13585TIP3    H262171   1.016   4.322   4.843  1.6378  0.5910 -0.5582
13586TIP3   OH262172   5.589   6.559   2.988  0.0952 -0.2135  0.1306
13586TIP3    H162173   5.524   6.599   2.931  0.1552 -1.3144 -0.7459
13586TIP3    H262174   5.561   6.581   3.077 -0.6661  0.5137 -0.2800
13587TIP3   OH262175   6.695   1.907   5.213  0.3033 -0.1303 -0.7017
13587TIP3    H162176   6.677   1.813   5.212  1.2626 -0.3264 -0.6350
13587TIP3    H262177   6.614   1.948   5.181 -0.8458 -0.8533  1.0829
13588TIP3   OH262178   4.325   5.584  13.981  0.0113 -0.5341 -0.1054
13588TIP3    H162179   4.316   5.651  13.913  1.8934  0.4104  0.4820
13588TIP3    H262180   4.420   5.575  13.992 -0.2415 -1.8014  1.3006
13589TIP3   OH262181   4.445   0.548   2.671  0.2197 -0.0677  0.1963
13589TIP3    H162182   4.425   0.631   2.626  0.0762 -0.9866 -1.5044
13589TIP3    H262183   4.471   0.575   2.760  1.4098  1.9096 -0.6654
13590TIP3   OH262184   1.854   0.253   2.949  0.0469 -0.3223  0.1897
13590TIP3    H162185   1.859   0.242   3.044  1.3156  0.3527  0.2138
13590TIP3    H262186   1.761   0.270   2.932 -0.0812  0.3053  1.3952
13591TIP3   OH262187   0.586   1.330   0.045 -0.0441  0.6936 -0.4704
13591TIP3    H162188   0.590   1.234   0.042 -2.2418  0.5346  0.1929
13591TIP3    H262189   0.600   1.352   0.137  2.8782  1.2389 -0.9518
13592TIP3   OH262190   6.443   6.362  12.112  0.2353  0.1032 -0.3361
13592TIP3    H162191   6.493   6.302  12.166  0.7509  1.3980  0.6867
13592TIP3    H262192   6.399   6.420  12.175 -2.9508 -1.1964 -1.1312
13593TIP3   OH262193   2.863   2.137   4.699 -0.2197 -0.0891 -0.1901
13593TIP3    H162194   2.861   2.042   4.690 -1.2532 -0.2179  1.1026
13593TIP3    H262195   2.787   2.167   4.650 -0.6498 -0.0512  0.4898
13594TIP3   OH262196   2.589   0.049   6.539 -0.4556 -0.3324  0.6063
13594TIP3    H162197   2.570   0.030   6.631 -2.6196 -0.0422  0.2698
13594TIP3    H262198   2.683   0.037   6.531 -0.2369 -0.4972  2.8298
13595TIP3   OH262199   0.893   5.914   3.090  0.1738 -0.1403 -0.9160
13595TIP3    H162200   0.835   5.953   3.156  2.9676  1.7265  0.6746
13595TIP3    H262201   0.966   5.878   3.142  1.0325 -1.3018 -2.8412
13596TIP3   OH262202   6.304   4.182   5.428  0.5765 -0.3539  0.2920
13596TIP3    H162203   6.294   4.270   5.391  2.1754 -1.2769 -2.6587
13596TIP3    H262204   6.215   4.155   5.449 -0.3526  0.7929 -1.8397
13597TIP3   OH262205   6.372   0.915  11.493 -0.5449  0.1381 -0.0341
13597TIP3    H162206   6.345   0.839  11.546 -1.7858  1.7302  1.7652
13597TIP3    H262207   6.291   0.965  11.481  0.3683  1.5621 -0.5041
13598TIP3   OH262208   2.253   6.476   3.683 -0.4200  0.2669  0.0677
13598TIP3    H162209   2.328   6.420   3.667  0.2803  0.8647  1.1686
13598TIP3    H262210   2.199   6.427   3.745 -1.0995 -0.2809 -0.9292
13599TIP3   OH262211   4.333   3.709   5.342  0.5395  0.0695 -0.0164
13599TIP3    H162212   4.289   3.670   5.266 -0.8444  1.2675  0.1496
13599TIP3    H262213   4.346   3.801   5.319  0.8872  0.2545  0.8618
13600TIP3   OH262214   0.739   4.903  15.403 -0.3377  0.3362  0.3329
13600TIP3    H162215   0.772   4.813  15.404  1.3333  0.8348 -1.8948
13600TIP3    H262216   0.777   4.943  15.481  1.0476 -0.2443  0.0003
13601TIP3   OH262217   0.565   2.531   2.999 -0.3880  0.0707  0.5334
13601TIP3    H162218   0.525   2.598   2.943  0.4109  0.9504  0.9883
13601TIP3    H262219   0.517   2.451   2.978 -1.3578  0.7760 -0.0405
13602TIP3   OH262220   4.408   1.376  16.481  0.1500  0.1356  0.2218
13602TIP3    H162221   4.384   1.301  16.535  0.5017  0.0541  0.2647
13602TIP3    H262222   4.422   1.447  16.544  2.5779 -0.4700  0.4326
13603TIP3   OH262223   5.628   3.852  15.118 -0.0171  0.5044  0.0940
13603TIP3    H162224   5.564   3.864  15.048  2.0360  0.4709 -1.9213
13603TIP3    H262225   5.687   3.784  15.084  0.2884 -0.5058  2.4750
13604TIP3   OH262226   1.040   1.788   5.784 -0.4425 -0.4538 -0.2440
13604TIP3    H162227   1.134   1.789   5.768 -0.5802 -0.8654 -1.1551
13604TIP3    H262228   1.004   1.741   5.709 -1.3615 -0.4219  0.1673
13605TIP3   OH262229   0.552   6.439   3.796 -0.1030  0.3061  0.2079
13605TIP3    H162230   0.559   6.398   3.710  2.0825  1.2742 -0.1470
13605TIP3    H262231   0.494   6.514   3.783  1.0207  1.0439 -0.6973
13606TIP3   OH262232   0.741   2.464   0.605 -0.5202  0.2045  0.2803
13606TIP3    H162233   0.707   2.509   0.528  0.8882 -1.4043 -1.3837
13606TIP3    H262234   0.811   2.520   0.637 -1.5368  1.1984  0.8114
13607TIP3   OH262235   1.292   3.884   0.043 -0.3814  0.2121 -0.0382
13607TIP3    H162236   1.297   3.834  -0.038  0.8883  0.6803 -0.2729
13607TIP3    H262237   1.280   3.818   0.111 -0.6958 -0.2487 -0.5288
13608TIP3   OH262238   3.110   3.615   4.662 -0.6218 -0.4407 -0.1746
13608TIP3    H162239   3.084   3.706   4.644 -0.5528 -0.7649 -2.1323
13608TIP3    H262240   3.185   3.623   4.721 -0.1328  0.8241 -0.9233
13609TIP3   OH262241   5.108   3.129  16.234 -0.1079 -1.0478 -0.9155
13609TIP3    H162242   5.159   3.099  16.309 -0.3590  3.7489  1.5919
13609TIP3    H262243   5.018   3.101  16.254 -0.2072  0.3159  0.8721
13610TIP3   OH262244   6.190   4.016  16.621 -0.0744 -0.5084 -0.3497
13610TIP3    H162245   6.157   4.024  16.531 -0.8098  0.4934 -0.0068
13610TIP3    H262246   6.221   4.104  16.643  1.0310 -0.9818  0.0325
13611TIP3   OH262247   3.659   2.631   3.127 -0.0307 -0.7055  0.0265
13611TIP3    H162248   3.605   2.626   3.048  0.2961 -1.3363 -0.1691
13611TIP3    H262249   3.659   2.541   3.161 -0.0633 -0.4633  0.6687
13612TIP3   OH262250   3.781   2.590  17.319 -0.2099  0.3950  0.0216
13612TIP3    H162251   3.828   2.523  17.368  0.6883  0.2296 -1.0071
13612TIP3    H262252   3.846   2.622  17.255 -1.3193  0.5849 -1.0391
13613TIP3   OH262253   4.980   4.070   2.455 -0.0006 -0.1323  0.8522
13613TIP3    H162254   5.015   3.981   2.456  0.5333  0.0601  0.0355
13613TIP3    H262255   4.994   4.101   2.366 -1.5108  0.2657  0.7342
13614TIP3   OH262256   4.591   4.117  17.147 -0.1160 -0.2249  0.2199
13614TIP3    H162257   4.606   4.028  17.178 -1.7691 -0.2239  1.1577
13614TIP3    H262258   4.502   4.115  17.110  0.6479  0.5296 -1.7853
13615TIP3   OH262259   0.368   4.373   2.181 -0.0920  0.5027 -0.2817
13615TIP3    H162260   0.293   4.347   2.127  0.3524 -0.0300 -0.6474
13615TIP3    H262261   0.354   4.329   2.265 -1.6275  2.5842  0.6631
13616TIP3   OH262262   1.352   3.062  12.879  0.0888  0.2153 -0.1388
13616TIP3    H162263   1.333   2.998  12.947 -0.9393 -0.7462 -1.2910
13616TIP3    H262264   1.275   3.061  12.823  0.7991  1.1871 -1.1665
13617TIP3   OH262265   4.426   2.410   1.070 -0.0658  0.5834  0.3788
13617TIP3    H162266   4.492   2.341   1.061 -1.5045 -0.8363  0.0906
13617TIP3    H262267   4.448   2.474   1.003 -0.3331 -1.0556 -1.3610
13618TIP3   OH262268   2.319   3.915   4.755  0.1888  0.0531  0.2572
13618TIP3    H162269   2.226   3.929   4.740 -0.0860 -0.7927  1.0427
13618TIP3    H262270   2.349   3.994   4.799  0.2235  1.0184 -1.4020
13619TIP3   OH262271   3.393   5.941  10.545  0.4865  0.3897  0.0463
13619TIP3    H162272   3.480   5.918  10.512  1.0605  1.0219  1.0641
13619TIP3    H262273   3.333   5.896  10.487  1.5076 -2.5624  1.0855
13620TIP3   OH262274   4.397   0.859  13.111  0.1568  0.0200 -0.1393
13620TIP3    H162275   4.476   0.810  13.087 -0.1300 -0.9188  0.7685
13620TIP3    H262276   4.412   0.946  13.076  3.8822  1.4945  4.1482
13621TIP3   OH262277   1.721   2.954  14.434 -0.0297  0.2130  0.4241
13621TIP3    H162278   1.680   2.974  14.350  0.7306 -0.5949 -0.1566
13621TIP3    H262279   1.653   2.910  14.485 -0.2703  0.0521 -0.0361
13622TIP3   OH262280   6.286   1.503   2.961  0.2036  0.4900 -0.0169
13622TIP3    H162281   6.231   1.446   2.907  0.8844  1.4643 -1.7980
13622TIP3    H262282   6.368   1.454   2.970  0.0375  0.2608  0.2967
13623TIP3   OH262283   0.559   4.346   2.711  0.2284 -0.6224 -0.0478
13623TIP3    H162284   0.643   4.320   2.749 -1.3212 -1.3679  3.1899
13623TIP3    H262285   0.515   4.264   2.690 -1.4191 -0.5217  2.5876
13624TIP3   OH262286   6.165   1.952  16.041  0.1167  0.6678  0.4028
13624TIP3    H162287   6.083   1.920  16.079 -0.4348  1.3952 -0.1373
13624TIP3    H262288   6.175   2.041  16.075  0.3309  0.8262 -0.0536
13625TIP3   OH262289   5.040   1.743  16.972 -0.1119 -0.0527 -0.0256
13625TIP3    H162290   5.023   1.806  17.042  1.0852 -0.5967  0.7955
13625TIP3    H262291   5.135   1.742  16.964 -0.1802 -0.8832 -0.8381
13626TIP3   OH262292   4.272   0.844   5.875  0.7232 -0.3866 -0.2267
13626TIP3    H162293   4.361   0.866   5.848  1.0742 -2.0575 -0.5775
13626TIP3    H262294   4.284   0.779   5.945 -0.2183 -0.2762  0.0421
13627TIP3   OH262295   5.808   1.687  12.642 -0.5147 -0.9252 -0.3578
13627TIP3    H162296   5.726   1.662  12.601 -0.6340 -2.8699  0.9095
13627TIP3    H262297   5.830   1.613  12.699  0.9226  0.5212  1.1014
13628TIP3   OH262298   1.402   3.539  12.256  0.2089 -0.1984  0.0659
13628TIP3    H162299   1.439   3.455  12.283  1.3197  0.2417 -0.0346
13628TIP3    H262300   1.307   3.526  12.259  0.3640 -1.2764  0.6001
13629TIP3   OH262301   1.352   2.021   3.835 -0.1034 -0.8957  0.6940
13629TIP3    H162302   1.268   1.987   3.805 -0.1217 -0.0320 -0.2995
13629TIP3    H262303   1.344   2.024   3.931 -0.8908 -1.5896  0.6612
13630TIP3   OH262304   2.518   3.879   4.568  0.8421 -0.1538  0.3714
13630TIP3    H162305   2.530   3.786   4.553  0.4097 -0.2701  0.6954
13630TIP3    H262306   2.453   3.883   4.639  0.4069  0.3933 -0.0477
13631TIP3   OH262307   3.853   4.693   0.916  0.4819 -0.2822  0.1805
13631TIP3    H162308   3.862   4.618   0.856  0.8871 -0.7007  0.7566
13631TIP3    H262309   3.806   4.658   0.992 -2.0209  0.7681 -0.7719
13632TIP3   OH262310   2.307   0.583   5.410 -0.4521  0.4824  0.2605
13632TIP3    H162311   2.386   0.636   5.409 -1.0159  1.3682  0.7420
13632TIP3    H262312   2.275   0.589   5.501 -0.4209 -0.8574  0.3738
13633TIP3   OH262313   6.485   4.169   3.502  0.0090 -0.2268  0.4064
13633TIP3    H162314   6.411   4.109   3.515 -0.2397 -0.1179 -0.4587
13633TIP3    H262315   6.499   4.171   3.407  2.4408 -1.7957  0.6580
13634TIP3   OH262316   4.865   0.714   6.167 -0.2618  0.6897 -0.3739
13634TIP3    H162317   4.866   0.753   6.255  0.7358 -1.2376  0.5228
13634TIP3    H262318   4.793   0.759   6.123 -0.7920  1.7318  1.4157
13635TIP3   OH262319   6.099   6.549   5.269  0.1258  0.5838 -0.6428
13635TIP3    H162320   6.111   6.644   5.274  0.5962  0.5501 -0.9988
13635TIP3    H262321   6.185   6.513   5.290 -0.2361  0.2062  0.2409
13636TIP3   OH262322   2.609   6.393  17.303  0.3983  0.2226  0.6680
13636TIP3    H162323   2.625   6.483  17.334  0.2319  0.4430  0.1219
13636TIP3    H262324   2.574   6.348  17.380 -0.3281  0.8562  0.7231
13637TIP3   OH262325   1.868   6.505   3.734  0.0290  0.5998 -0.5699
13637TIP3    H162326   1.784   6.551   3.725  0.7797  1.8673 -1.4335
13637TIP3    H262327   1.901   6.499   3.644  0.3716 -0.8687 -0.3592
13638TIP3   OH262328   6.033   3.711  13.906 -0.1692 -0.2373 -0.5215
13638TIP3    H162329   6.082   3.788  13.934  1.5448 -1.4959  0.0997
13638TIP3    H262330   5.973   3.693  13.979 -0.2520  0.2244 -0.4723
13639TIP3   OH262331   5.538   6.726   0.587 -0.1201  0.3764  0.0319
13639TIP3    H162332   5.604   6.666   0.621  1.5155  1.6993 -0.6868
13639TIP3    H262333   5.573   6.756   0.503 -1.6017  1.1949 -0.3410
13640TIP3   OH262334   2.795   2.949  16.379  0.4628  0.3415  0.5761
13640TIP3    H162335   2.808   2.915  16.290  0.7313  0.9226  0.3851
13640TIP3    H262336   2.702   2.972  16.383  0.3159 -0.2581  0.6530
13641TIP3   OH262337   3.780   0.737   5.557  0.1770 -0.1670  0.1594
13641TIP3    H162338   3.717   0.694   5.614 -0.0811 -0.3666 -0.2741
13641TIP3    H262339   3.850   0.766   5.616  0.6998 -1.7698  0.3803
13642TIP3   OH262340   3.693   5.252  15.589  0.7948 -0.5919 -0.2012
13642TIP3    H162341   3.716   5.292  15.505 -1.3285  2.4824  0.5217
13642TIP3    H262342   3.766   5.274  15.647 -0.3902  2.8128  0.2354
13643TIP3   OH262343   4.415   4.074   1.898  0.0310 -0.0110 -0.3391
13643TIP3    H162344   4.472   4.022   1.842 -0.0782  0.5155 -0.9533
13643TIP3    H262345   4.335   4.021   1.907  0.5439 -0.6821  0.4033
13644TIP3   OH262346   0.861   3.131  16.065  0.4483 -0.1165 -0.1722
13644TIP3    H162347   0.766   3.123  16.062  0.4077  0.4979 -0.9050
13644TIP3    H262348   0.877   3.226  16.066  1.0555 -0.2105 -0.3270
13645TIP3   OH262349   4.265   1.001  16.615 -0.2834 -0.1557  0.5185
13645TIP3    H162350   4.250   1.011  16.709 -0.2382 -1.2809  0.6607
13645TIP3    H262351   4.206   1.065  16.575  1.0100  1.6468  1.3415
13646TIP3   OH262352   0.875   3.925   3.596  0.3015 -0.7143  0.2743
13646TIP3    H162353   0.943   3.940   3.661  0.6464 -4.0952  0.9028
13646TIP3    H262354   0.923   3.903   3.516 -0.0161 -1.6289  0.3187
13647TIP3   OH262355   6.608   1.693  16.858  0.0395  0.2918 -0.1435
13647TIP3    H162356   6.692   1.709  16.901 -0.4487  0.3653  0.7954
13647TIP3    H262357   6.579   1.608  16.892 -0.0522  0.0303 -0.8358
13648TIP3   OH262358   4.118   1.232   5.376 -0.5916  0.0148  0.3696
13648TIP3    H162359   4.192   1.178   5.346 -0.5268  0.6127 -0.6130
13648TIP3    H262360   4.041   1.188   5.341 -0.6027  0.0784  0.3134
13649TIP3   OH262361   1.167   1.574  14.380  0.2261 -0.0275 -0.0852
13649TIP3    H162362   1.227   1.622  14.438 -0.8835  0.2946  0.8464
13649TIP3    H262363   1.168   1.485  14.414  0.1512 -0.0115 -0.0404
13650TIP3   OH262364   2.427   1.200  15.614  0.0892  0.4723 -0.4079
13650TIP3    H162365   2.394   1.140  15.681  0.7538  0.1776 -0.3481
13650TIP3    H262366   2.375   1.179  15.536 -0.0043  0.1458 -0.2601
13651TIP3   OH262367   0.528   6.680   1.755 -0.4180  0.9354 -0.1146
13651TIP3    H162368   0.482   6.599   1.737 -1.4511  1.5517 -0.2947
13651TIP3    H262369   0.482   6.747   1.705 -1.5186  2.1731  2.3565
13652TIP3   OH262370   3.371   4.047   0.634 -0.1135  0.1447 -0.1407
13652TIP3    H162371   3.433   3.996   0.687 -2.4705 -2.4720  0.3282
13652TIP3    H262372   3.289   4.041   0.682 -1.2463  1.7199 -1.7866
13653TIP3   OH262373   4.064   1.777  16.304 -0.2555 -0.6446  0.1950
13653TIP3    H162374   4.093   1.772  16.395 -0.3650  0.2788  0.2896
13653TIP3    H262375   4.057   1.871  16.286 -1.6962 -0.8208 -0.3041
13654TIP3   OH262376   5.847   0.150   6.413  0.5776  0.1113 -0.7246
13654TIP3    H162377   5.778   0.163   6.478  0.0369 -0.6109 -1.1421
13654TIP3    H262378   5.820   0.204   6.339  1.8379  1.9556  0.0750
13655TIP3   OH262379   1.132   4.919   0.840  0.1343  0.2880  0.2379
13655TIP3    H162380   1.176   5.004   0.831 -0.8652  0.9182  1.1132
13655TIP3    H262381   1.039   4.939   0.834 -0.0942 -0.8475 -0.2309
13656TIP3   OH262382   3.882   5.892  11.128  0.7046  0.5790 -0.0594
13656TIP3    H162383   3.876   5.828  11.057  1.9574  1.4307 -0.9746
13656TIP3    H262384   3.818   5.960  11.105 -0.7775 -0.3872  1.0199
13657TIP3   OH262385   3.264   1.891   1.572  0.3609 -0.6083 -0.1021
13657TIP3    H162386   3.327   1.952   1.535  0.4798 -0.5997  0.1099
13657TIP3    H262387   3.318   1.830   1.623  0.2326 -0.8174 -0.2158
13658TIP3   OH262388   3.529   6.230  11.696 -0.0350  0.1998  0.1669
13658TIP3    H162389   3.612   6.223  11.648  0.1077  0.2481  0.4048
13658TIP3    H262390   3.551   6.281  11.773  0.2258 -1.5995  1.3460
13659TIP3   OH262391   6.009   3.257  12.247 -0.3158  0.2641  0.3909
13659TIP3    H162392   6.092   3.244  12.200 -0.5826 -1.3333  0.3119
13659TIP3    H262393   5.954   3.183  12.219 -0.7682 -0.2801  2.5699
13660TIP3   OH262394   2.599   5.441  11.767 -0.2710  0.3318 -0.8138
13660TIP3    H162395   2.632   5.480  11.686 -0.9596  0.9072 -0.8237
13660TIP3    H262396   2.504   5.443  11.758 -0.3495  0.1572 -0.1032
13661TIP3   OH262397   6.142   5.960   0.788  0.0784  0.6173  0.3967
13661TIP3    H162398   6.087   6.037   0.804  1.2700  1.5428  0.2571
13661TIP3    H262399   6.168   5.932   0.876 -1.0387 -0.1535  0.4871
13662TIP3   OH262400   1.062   1.156   5.189 -0.0811 -0.0408  0.3041
13662TIP3    H162401   1.155   1.134   5.191  0.4579  1.9326 -0.2099
13662TIP3    H262402   1.019   1.078   5.156  1.6742 -0.2581 -1.6781
13663TIP3   OH262403   3.553   5.866   3.335  0.5970 -0.2180 -0.1104
13663TIP3    H162404   3.631   5.919   3.351  0.5054  0.0058 -0.3969
13663TIP3    H262405   3.538   5.821   3.418 -0.4716  1.6920  0.7949
13664TIP3   OH262406   3.567   3.035   3.963  0.3278  0.2739 -0.6357
13664TIP3    H162407   3.481   3.007   3.994  1.0559 -3.5017 -1.5731
13664TIP3    H262408   3.550   3.070   3.876 -0.3849  0.6605 -0.3526
13665TIP3   OH262409   2.401   6.555   0.270  0.2374  0.0117  0.3185
13665TIP3    H162410   2.489   6.589   0.285  0.2637  0.9890 -1.7330
13665TIP3    H262411   2.358   6.622   0.216 -0.7756 -1.7639 -1.1906
13666TIP3   OH262412   5.215   1.045  12.388  0.4106  0.1820 -0.2116
13666TIP3    H162413   5.250   1.023  12.475 -0.8693 -1.5801 -0.0675
13666TIP3    H262414   5.126   1.076  12.406  0.8878  1.9199 -0.7609
13667TIP3   OH262415   1.761   5.733  11.515 -0.0348 -0.5151  0.6615
13667TIP3    H162416   1.718   5.647  11.522  0.1581 -0.5543  1.4843
13667TIP3    H262417   1.811   5.741  11.596  0.3627  0.1580  0.3564
13668TIP3   OH262418   6.517   1.483   5.973 -0.3936 -0.0039  0.4136
13668TIP3    H162419   6.587   1.547   5.982 -0.5422  0.1365  0.5934
13668TIP3    H262420   6.561   1.401   5.951 -0.1478  0.0195  0.8021
13669TIP3   OH262421   3.457   5.304   5.854  0.3794  0.5977  0.1014
13669TIP3    H162422   3.531   5.251   5.884  1.5365  1.3310 -1.3550
13669TIP3    H262423   3.480   5.329   5.765 -2.8975 -1.5623 -1.5675
13670TIP3   OH262424   5.462   2.052   5.539  0.0033  0.3885  0.0240
13670TIP3    H162425   5.551   2.068   5.569  0.2626 -1.4012  0.3121
13670TIP3    H262426   5.471   2.039   5.444  0.2828 -1.2092  0.2535
13671TIP3   OH262427   0.823   1.187   4.939  0.3300  0.0784 -0.1425
13671TIP3    H162428   0.842   1.094   4.946 -1.7358 -0.4440 -0.6755
13671TIP3    H262429   0.813   1.202   4.844  0.0175  0.6821 -0.0191
13672TIP3   OH262430   5.802   0.215   4.983 -0.3392 -0.1471 -0.3709
13672TIP3    H162431   5.815   0.127   4.948 -0.5978 -0.5476  0.5207
13672TIP3    H262432   5.710   0.218   5.009 -0.0828  0.0343  0.5452
13673TIP3   OH262433   5.774   3.440  16.515 -0.4424  0.3454 -0.0505
13673TIP3    H162434   5.702   3.439  16.452 -0.3607 -0.3019 -0.1385
13673TIP3    H262435   5.816   3.354  16.506  0.4401  0.7708 -0.1125
13674TIP3   OH262436   1.433   2.690  14.100  0.1840 -0.8838 -0.1496
13674TIP3    H162437   1.398   2.777  14.115  2.5120  0.3556 -1.2643
13674TIP3    H262438   1.426   2.677  14.005  0.0896 -1.7908 -0.0244
13675TIP3   OH262439   1.377   3.778   6.440 -0.5750  0.1814  0.2457
13675TIP3    H162440   1.308   3.819   6.492  0.3136  0.3651  1.3156
13675TIP3    H262441   1.339   3.696   6.409 -1.3333  0.3751  0.6398
13676TIP3   OH262442   0.917   2.821   5.153  0.0488 -0.6489 -0.3657
13676TIP3    H162443   0.873   2.741   5.182  0.0937 -0.0542  1.4483
13676TIP3    H262444   1.010   2.799   5.153  0.0361 -0.7082 -0.1964
13677TIP3   OH262445   1.615   2.539  13.131  0.6462  0.0552  0.1943
13677TIP3    H162446   1.634   2.610  13.070 -0.2221  0.8461  0.8088
13677TIP3    H262447   1.558   2.479  13.083  0.7665  0.1678 -0.0862
13678TIP3   OH262448   3.912   0.870   4.857  0.5428  0.6833 -0.1402
13678TIP3    H162449   3.987   0.838   4.806  0.1875  1.1187 -0.9619
13678TIP3    H262450   3.944   0.873   4.947  1.9231  1.9821 -0.6203
13679TIP3   OH262451   0.106   1.486   1.105 -0.1871 -0.0611  0.3733
13679TIP3    H162452   0.095   1.510   1.013 -2.3315  0.3757  0.6968
13679TIP3    H262453   0.088   1.392   1.107  1.3306 -0.3782  0.1541
13680TIP3   OH262454   2.913   1.480   2.101 -0.3724 -0.6100  0.2263
13680TIP3    H162455   2.893   1.400   2.148  0.2709 -0.2398  1.1423
13680TIP3    H262456   2.905   1.550   2.166 -0.2978  0.0095 -0.4043
13681TIP3   OH262457   5.390   2.393   2.510  0.3640 -0.0870 -0.0102
13681TIP3    H162458   5.320   2.455   2.529 -0.2980 -0.6914 -0.4509
13681TIP3    H262459   5.427   2.424   2.427  1.1723  0.7038  0.6230
13682TIP3   OH262460   0.814   3.784   0.735 -0.3013 -0.0792  0.2578
13682TIP3    H162461   0.750   3.852   0.754  0.6965  1.0719 -0.3521
13682TIP3    H262462   0.774   3.703   0.768 -1.4533  0.8096  1.1273
13683TIP3   OH262463   1.399   5.546  15.073  0.0316 -0.8634 -0.1197
13683TIP3    H162464   1.491   5.529  15.095 -0.2504 -0.8975  1.1004
13683TIP3    H262465   1.375   5.474  15.016  1.0700 -0.2523 -1.3820
13684TIP3   OH262466   6.605   1.946   1.078  0.1962  0.2322 -0.2196
13684TIP3    H162467   6.524   1.969   1.035  0.6288  0.4046 -0.9551
13684TIP3    H262468   6.668   2.012   1.049  0.5408  0.2631  0.5463
13685TIP3   OH262469   1.574   0.588   2.919  0.6735 -0.7091 -0.2905
13685TIP3    H162470   1.529   0.633   2.848  0.2023  0.7980  0.8926
13685TIP3    H262471   1.531   0.504   2.927 -1.2395  0.2475  0.0621
13686TIP3   OH262472   5.266   2.500  13.405  0.2665  0.2235  0.0410
13686TIP3    H162473   5.348   2.516  13.358  0.1728  0.4312 -0.0540
13686TIP3    H262474   5.202   2.557  13.361  0.4135  1.2633  1.1343
13687TIP3   OH262475   2.590   5.940  16.808  0.5588  0.4000  0.1074
13687TIP3    H162476   2.650   6.005  16.844  0.5314  0.1077  0.6867
13687TIP3    H262477   2.591   5.957  16.714  0.8655  0.9724  0.2054
13688TIP3   OH262478   4.083   4.606   1.187 -0.5275 -0.0235 -0.2948
13688TIP3    H162479   3.999   4.560   1.187 -0.6355  0.1515 -1.2211
13688TIP3    H262480   4.147   4.539   1.208 -0.7854 -0.3905 -0.6709
13689TIP3   OH262481   5.806   4.460  10.676  0.1009 -0.4176 -0.6466
13689TIP3    H162482   5.743   4.457  10.747  0.6647 -2.0468 -0.1678
13689TIP3    H262483   5.770   4.402  10.609  0.2492  0.0144 -1.1107
13690TIP3   OH262484   2.234   3.376   2.241  0.0387 -0.4421 -0.1730
13690TIP3    H162485   2.177   3.314   2.194 -0.8998 -0.9832  1.5772
13690TIP3    H262486   2.256   3.331   2.322  1.3295  0.5967  0.0818
13691TIP3   OH262487   2.885   2.830  11.144 -0.5015  0.3984  0.4392
13691TIP3    H162488   2.960   2.848  11.088 -1.3755  2.4199 -0.1747
13691TIP3    H262489   2.822   2.787  11.086  0.2137 -1.5930  1.0302
13692TIP3   OH262490   6.618   5.694  14.627  0.4004 -0.4535 -0.0640
13692TIP3    H162491   6.600   5.617  14.681  0.1146  0.3626  1.0516
13692TIP3    H262492   6.532   5.719  14.592  0.2668  0.1210  0.6538
13693TIP3   OH262493   5.072   6.677  15.786  0.9507 -0.0580  0.4021
13693TIP3    H162494   4.981   6.695  15.761  1.2544 -0.5522 -1.2277
13693TIP3    H262495   5.123   6.708  15.711  1.8741 -2.6277 -0.1273
13694TIP3   OH262496   4.550   3.109  12.288  0.5662 -0.0836 -0.6412
13694TIP3    H162497   4.581   3.048  12.221  1.8467  0.9649 -1.0325
13694TIP3    H262498   4.455   3.095  12.290  0.6962 -1.2560 -1.5364
13695TIP3   OH262499   2.232   6.374   4.415 -0.2006  0.2524 -0.4627
13695TIP3    H162500   2.162   6.309   4.412 -1.5825  1.6075  0.8086
13695TIP3    H262501   2.187   6.458   4.404  0.8798  1.3515  2.5430
13696TIP3   OH262502   0.983   1.517   4.407 -0.4227 -0.0101  0.3659
13696TIP3    H162503   1.013   1.561   4.486 -0.6197 -0.2198  0.5588
13696TIP3    H262504   0.933   1.583   4.360  1.2728  0.7015 -0.5237
13697TIP3   OH262505   5.806   0.681   4.043 -0.0336 -0.5182  0.3966
13697TIP3    H162506   5.887   0.671   3.993 -1.0061 -2.8606 -0.8609
13697TIP3    H262507   5.738   0.645   3.987 -1.5479 -1.0826  2.4660
13698TIP3   OH262508   4.398   6.672   0.402  0.1855 -0.3429  0.6560
13698TIP3    H162509   4.447   6.637   0.327 -0.8206 -1.5311  0.5160
13698TIP3    H262510   4.423   6.615   0.475 -0.8792 -0.8860  0.6073
13699TIP3   OH262511   2.117   4.648   5.939  0.0271  0.2189  0.0402
13699TIP3    H162512   2.084   4.598   5.864 -0.7469  0.6304  0.0937
13699TIP3    H262513   2.085   4.600   6.016 -2.1682  1.6388  0.1105
13700TIP3   OH262514   2.796   1.748   1.360 -0.1177 -0.3758  0.1084
13700TIP3    H162515   2.878   1.779   1.397 -1.4572  0.6132  2.4056
13700TIP3    H262516   2.806   1.652   1.357  1.3849 -0.2239 -0.4101
13701TIP3   OH262517   6.080   1.311   0.189 -0.8775  0.1111 -0.1412
13701TIP3    H162518   6.152   1.293   0.250 -2.0309  2.3681  2.0477
13701TIP3    H262519   6.118   1.368   0.123 -0.0751 -0.8283 -0.5223
13702TIP3   OH262520   0.637   0.392   1.577 -0.0237 -0.1744  0.5019
13702TIP3    H162521   0.558   0.380   1.629 -0.9686 -1.4620 -1.1297
13702TIP3    H262522   0.698   0.325   1.609 -1.0795 -1.8603 -0.8280
13703TIP3   OH262523   2.005   1.034   5.750  0.0756  0.1889  0.7435
13703TIP3    H162524   2.049   1.038   5.835  1.4153  2.7033  0.0482
13703TIP3    H262525   2.011   0.943   5.724 -2.5226 -1.2630  4.3083
13704TIP3   OH262526   6.560   2.687  16.292  0.5593  0.4117  0.8768
13704TIP3    H162527   6.567   2.779  16.317 -1.3302  1.3259 -1.5666
13704TIP3    H262528   6.524   2.644  16.370  1.1731  1.7731  1.9549
13705TIP3   OH262529   3.275   4.341  13.492 -0.2194  0.9205 -0.3566
13705TIP3    H162530   3.201   4.284  13.510  0.7156  0.1305  1.2101
13705TIP3    H262531   3.345   4.281  13.465  0.1955  1.5378 -0.6708
13706TIP3   OH262532   2.267   4.629  17.173  0.5269 -0.3979 -0.5767
13706TIP3    H162533   2.223   4.564  17.228 -1.0805  1.4218  0.4208
13706TIP3    H262534   2.219   4.626  17.090 -0.1960  0.1515 -0.1934
13707TIP3   OH262535   2.021   4.745  16.120  0.6165  0.1388  0.5150
13707TIP3    H162536   1.994   4.685  16.189 -1.1912  0.9911  0.5939
13707TIP3    H262537   2.006   4.832  16.156 -1.0105  0.6083 -1.1421
13708TIP3   OH262538   4.839   2.587   4.077  0.1164 -0.2734 -0.4447
13708TIP3    H162539   4.857   2.678   4.052 -0.1506 -0.3078 -0.7710
13708TIP3    H262540   4.777   2.593   4.149 -0.4234 -0.2097 -0.9102
13709TIP3   OH262541   2.313   4.807  12.714 -0.1939  0.8452 -0.2933
13709TIP3    H162542   2.405   4.825  12.736  0.2655  0.4360 -1.7599
13709TIP3    H262543   2.294   4.869  12.643 -0.6916  0.1411 -0.7780
13710TIP3   OH262544   6.246   3.485  17.239  0.6367  0.3933  0.0319
13710TIP3    H162545   6.234   3.511  17.148  1.0666 -1.0167 -0.4556
13710TIP3    H262546   6.181   3.537  17.288  1.0676  1.8768 -0.9287
13711TIP3   OH262547   6.235   0.210  16.571 -0.1772  0.0302  0.1605
13711TIP3    H162548   6.202   0.269  16.503 -0.0193 -0.2715 -0.1846
13711TIP3    H262549   6.204   0.248  16.653 -0.4443  0.3527 -0.0845
13712TIP3   OH262550   5.579   4.846   4.147 -0.1860  0.0571  0.2705
13712TIP3    H162551   5.588   4.770   4.090  0.5735 -1.6221  2.5042
13712TIP3    H262552   5.668   4.880   4.156 -0.2814  0.2290  0.5740
13713TIP3   OH262553   1.944   2.933   4.326 -0.0467 -0.3460 -0.2840
13713TIP3    H162554   2.020   2.956   4.273  0.9838 -2.1072  0.3345
13713TIP3    H262555   1.880   3.002   4.308  1.6972  1.2020 -0.7916
13714TIP3   OH262556   1.081   5.557   2.931 -0.1176 -0.0623 -0.2866
13714TIP3    H162557   0.985   5.566   2.934  0.0605  2.0686  1.9535
13714TIP3    H262558   1.096   5.484   2.872 -3.1732 -1.1389  0.0929
13715TIP3   OH262559   0.917   4.833   6.591 -0.0922  0.2895 -1.3033
13715TIP3    H162560   0.935   4.919   6.555 -0.5553  1.0073  0.1263
13715TIP3    H262561   0.821   4.826   6.588 -0.2481  0.9177  0.9425
13716TIP3   OH262562   0.726   0.708  10.727 -0.3818 -0.0700  0.2480
13716TIP3    H162563   0.640   0.745  10.747 -0.0066  0.3811  1.0395
13716TIP3    H262564   0.713   0.613  10.730 -1.3424 -0.0674 -1.7626
13717TIP3   OH262565   2.094   3.867  16.475 -0.1140  0.0271 -0.3013
13717TIP3    H162566   2.185   3.870  16.503 -0.1535 -1.2924  0.0322
13717TIP3    H262567   2.095   3.812  16.396 -0.4346  1.1702 -1.1238
13718TIP3   OH262568   0.625   4.548  15.698  0.2746  0.7495  0.4578
13718TIP3    H162569   0.694   4.570  15.636  1.2581 -1.1613  0.8079
13718TIP3    H262570   0.671   4.507  15.772 -1.2236 -0.7466  0.6127
13719TIP3   OH262571   3.812   2.508  13.167  0.3045 -0.0006 -0.4714
13719TIP3    H162572   3.901   2.530  13.140  0.0001  0.6553 -0.9621
13719TIP3    H262573   3.762   2.509  13.086 -0.4473  1.1108 -0.0200
13720TIP3   OH262574   2.727   4.428  11.664  0.4103  0.6529  0.7736
13720TIP3    H162575   2.782   4.432  11.585 -0.8122 -3.8330 -0.6061
13720TIP3    H262576   2.639   4.446  11.632 -0.3129 -2.5403  0.5992
13721TIP3   OH262577   4.934   0.713  15.425  0.1717 -0.0018  0.1003
13721TIP3    H162578   4.998   0.669  15.368  0.7778 -0.1708  0.8885
13721TIP3    H262579   4.849   0.681  15.394  0.6161 -2.5735  1.2520
13722TIP3   OH262580   1.729   1.720   5.530 -0.1895  0.4596  0.3091
13722TIP3    H162581   1.732   1.786   5.599 -1.3365  0.9216 -0.0502
13722TIP3    H262582   1.649   1.670   5.549 -1.1324  1.2846 -1.2562
13723TIP3   OH262583   6.228   1.069   5.124  0.1011  0.2910  0.8042
13723TIP3    H162584   6.273   1.023   5.194  1.8306  0.0840 -0.3918
13723TIP3    H262585   6.205   1.001   5.061  2.2608  0.8855 -0.7542
13724TIP3   OH262586   3.096   0.964  13.037 -0.0235  0.4232 -0.2296
13724TIP3    H162587   3.032   0.911  13.085  0.6979  0.0092  0.2929
13724TIP3    H262588   3.178   0.916  13.047  0.2004  0.4795 -1.6542
13725TIP3   OH262589   5.649   4.248   4.536  0.0345  0.5781  0.6498
13725TIP3    H162590   5.626   4.182   4.601  2.5928 -1.3751 -0.2548
13725TIP3    H262591   5.732   4.285   4.566 -0.5599  2.2874  0.3072
13726TIP3   OH262592   6.255   0.800  11.724 -0.0941 -0.1345 -0.4760
13726TIP3    H162593   6.247   0.853  11.803 -1.4600  1.6720 -1.7378
13726TIP3    H262594   6.169   0.760  11.713 -0.2559  0.5011 -1.6169
13727TIP3   OH262595   4.789   2.121  14.768 -0.3135  0.0640 -0.2527
13727TIP3    H162596   4.844   2.188  14.728  1.4056  0.3151  2.3401
13727TIP3    H262597   4.792   2.139  14.862 -1.0310 -2.7323  0.4122
13728TIP3   OH262598   1.698   6.012  15.554  0.1723  0.2213 -0.1431
13728TIP3    H162599   1.605   6.032  15.564  0.0832  0.2827 -0.9633
13728TIP3    H262600   1.721   5.961  15.631 -0.4665  0.4765  0.2196
13729TIP3   OH262601   5.650   0.099   2.882  0.4168 -0.6743 -0.7982
13729TIP3    H162602   5.644   0.157   2.805  0.1031 -0.1553 -0.3916
13729TIP3    H262603   5.742   0.074   2.886  0.5430 -0.2576 -1.0222
13730TIP3   OH262604   6.091   1.985   0.866 -0.6265  0.2420 -0.4632
13730TIP3    H162605   5.995   1.989   0.866 -0.5934  2.2635 -0.3650
13730TIP3    H262606   6.113   1.953   0.953 -1.2129  1.0958  0.0185
13731TIP3   OH262607   1.247   6.225   1.930 -0.6528  0.5268  0.1307
13731TIP3    H162608   1.161   6.184   1.937 -0.5386  0.0117 -1.0907
13731TIP3    H262609   1.249   6.290   1.999 -1.6512 -0.1151  0.7901
13732TIP3   OH262610   3.247   5.453  13.138  0.2517 -0.2429  0.7332
13732TIP3    H162611   3.289   5.483  13.218  1.1321  1.4137 -0.3070
13732TIP3    H262612   3.286   5.367  13.121  3.3522  1.2258 -0.2087
13733TIP3   OH262613   3.012   1.242  13.335 -0.3685 -0.1851  0.2782
13733TIP3    H162614   2.925   1.280  13.321 -0.0779 -0.5631 -3.4450
13733TIP3    H262615   2.996   1.148  13.347 -0.4656 -0.3342 -0.9536
13734TIP3   OH262616   5.651   5.080   2.176  0.6660  0.2873 -0.5136
13734TIP3    H162617   5.590   5.015   2.142  0.7835  0.2162 -0.5905
13734TIP3    H262618   5.623   5.095   2.266  0.5091  0.2874 -0.5636
13735TIP3   OH262619   2.285   6.048  16.146  0.3100  0.5322  0.9461
13735TIP3    H162620   2.313   6.139  16.141 -1.0831  0.9474  0.1896
13735TIP3    H262621   2.302   6.013  16.059 -2.5541  1.1578  0.0366
13736TIP3   OH262622   1.193   2.970  11.608 -0.1711  0.3991 -0.1611
13736TIP3    H162623   1.217   3.053  11.568  3.2020  0.2547  1.2913
13736TIP3    H262624   1.252   2.906  11.568 -1.2322 -0.9324  0.3241
13737TIP3   OH262625   1.236   0.534   3.439  0.2226 -0.4676  0.1044
13737TIP3    H162626   1.314   0.583   3.465 -0.2381 -0.3628  1.3923
13737TIP3    H262627   1.270   0.451   3.407  0.9374  0.1706 -0.8403
13738TIP3   OH262628   2.226   4.231  15.440  0.1859 -0.3005 -0.2550
13738TIP3    H162629   2.147   4.208  15.390  0.0654  0.0246 -0.2182
13738TIP3    H262630   2.292   4.250  15.373 -0.2142  0.9770 -0.3242
13739TIP3   OH262631   5.811   0.127  16.062  0.5402  0.0930 -0.3341
13739TIP3    H162632   5.878   0.177  16.016 -0.5250  1.9277 -0.0029
13739TIP3    H262633   5.731   0.178  16.050 -0.2410 -0.5892  1.5789
13740TIP3   OH262634   0.789   3.949   2.181 -0.3407 -0.8732 -0.0710
13740TIP3    H162635   0.742   3.891   2.242 -0.2457  1.4172  2.3432
13740TIP3    H262636   0.720   3.984   2.124 -0.7095 -1.6496 -0.1233
13741TIP3   OH262637   0.285   0.516   0.247  0.1499  0.3380  0.2842
13741TIP3    H162638   0.266   0.569   0.170 -5.6545  0.2757  1.1945
13741TIP3    H262639   0.289   0.579   0.319 -2.5639  0.0754  0.7929
13742TIP3   OH262640   5.127   5.485  11.638  0.6082  0.2166  0.6864
13742TIP3    H162641   5.053   5.542  11.656  0.0165 -0.6967  1.2431
13742TIP3    H262642   5.175   5.480  11.721 -0.3907 -1.5425  1.2048
13743TIP3   OH262643   2.445   5.695  13.993  0.1061 -0.2852  0.1444
13743TIP3    H162644   2.360   5.686  13.949 -1.8316  0.3164  3.3432
13743TIP3    H262645   2.481   5.607  13.994  0.3441 -0.2898 -2.6326
13744TIP3   OH262646   1.094   5.734  11.191  0.3412 -0.0629  0.2905
13744TIP3    H162647   1.151   5.787  11.136 -1.1410 -0.1767 -1.4658
13744TIP3    H262648   1.023   5.794  11.216  0.3251 -0.3747  1.0175
13745TIP3   OH262649   3.696   5.859  12.307 -0.3829  0.4088  0.4158
13745TIP3    H162650   3.761   5.928  12.322 -0.5989  1.1289 -1.6508
13745TIP3    H262651   3.738   5.779  12.339 -0.1017  1.4369  2.8124
13746TIP3   OH262652   0.425   1.218  15.268  0.3887 -0.0843  0.0002
13746TIP3    H162653   0.378   1.285  15.218 -0.5031  0.3862  1.4203
13746TIP3    H262654   0.471   1.267  15.337  2.3224 -0.6293 -0.8201
13747TIP3   OH262655   1.166   0.360  16.173  0.6521 -0.1805 -0.5330
13747TIP3    H162656   1.220   0.355  16.094 -0.7347  2.4333 -1.7903
13747TIP3    H262657   1.229   0.363  16.245  2.0300 -0.7717 -1.6692
13748TIP3   OH262658   3.058   6.417   3.526  0.0761 -0.5864 -0.1576
13748TIP3    H162659   3.083   6.466   3.448  0.4091  0.0788  0.3625
13748TIP3    H262660   3.137   6.368   3.549 -0.0371 -0.8202 -0.2644
13749TIP3   OH262661   4.666   0.683   6.359  0.3384 -0.2327 -0.1315
13749TIP3    H162662   4.719   0.702   6.281  0.2392  0.9383  0.0748
13749TIP3    H262663   4.644   0.769   6.395  1.8718 -0.6979  2.2058
13750TIP3   OH262664   4.721   2.547  14.114 -0.3061 -0.0476 -0.2163
13750TIP3    H162665   4.782   2.540  14.040 -0.8833  0.3695 -0.7458
13750TIP3    H262666   4.686   2.459  14.125 -0.1532 -0.1307 -0.3820
13751TIP3   OH262667   2.431   6.409  13.641  0.0796 -0.7491  0.6556
13751TIP3    H162668   2.446   6.315  13.656  1.3850 -0.2711  2.7390
13751TIP3    H262669   2.478   6.428  13.561  0.6544 -1.6894  0.7508
13752TIP3   OH262670   1.922   4.647  12.034  0.5061 -0.1706  0.0831
13752TIP3    H162671   1.955   4.559  12.051  0.4926  0.1806  2.3004
13752TIP3    H262672   1.985   4.705  12.077 -0.6886  0.7423  0.6673
13753TIP3   OH262673   4.111   0.225  14.240  0.1973 -0.6989  0.4340
13753TIP3    H162674   4.153   0.139  14.230 -0.7292 -0.9776 -1.5914
13753TIP3    H262675   4.140   0.274  14.163 -0.3956  0.3107  0.8457
13754TIP3   OH262676   5.023   5.733   5.680  0.1744  0.1926  0.2269
13754TIP3    H162677   4.987   5.657   5.725  1.1383  0.2820  1.1664
13754TIP3    H262678   5.030   5.705   5.588  1.6835 -1.3134  0.7546
13755TIP3   OH262679   0.205   0.944  12.777 -0.1177  0.1846 -0.2334
13755TIP3    H162680   0.224   1.033  12.807  2.6219 -0.4269  0.1349
13755TIP3    H262681   0.175   0.898  12.856  3.9697 -0.5816  1.1003
13756TIP3   OH262682   2.787   1.087   2.056 -0.0412 -0.4620  0.0083
13756TIP3    H162683   2.838   1.048   2.127 -1.0492 -1.0378  0.4436
13756TIP3    H262684   2.825   1.174   2.044  0.1774 -0.3652  1.2383
13757TIP3   OH262685   6.522   1.460  14.903 -0.2931 -0.3815  0.1234
13757TIP3    H162686   6.465   1.532  14.877  1.0761  1.8252  2.7512
13757TIP3    H262687   6.592   1.460  14.838 -1.5465 -1.0242 -1.2831
13758TIP3   OH262688   6.096   1.660   5.508  0.0617 -0.4751 -0.4037
13758TIP3    H162689   6.153   1.616   5.572 -0.1411  1.1972  1.0186
13758TIP3    H262690   6.141   1.743   5.490 -1.6398  0.6635  0.3840
13759TIP3   OH262691   2.170   2.358   2.967 -0.5355 -0.0014  0.1436
13759TIP3    H162692   2.220   2.290   2.922  2.0390  1.1214  1.0967
13759TIP3    H262693   2.131   2.314   3.043 -1.8825 -1.0946 -1.1182
13760TIP3   OH262694   4.192   1.305   6.676  0.3351 -0.5476  0.4846
13760TIP3    H162695   4.201   1.401   6.678 -0.2399 -0.4784  2.8311
13760TIP3    H262696   4.281   1.272   6.689  0.7422 -0.4070 -1.6196
13761TIP3   OH262697   5.966   1.333  14.753  0.1501 -0.0178 -0.0144
13761TIP3    H162698   5.973   1.256  14.697  0.5206 -0.9876  1.3259
13761TIP3    H262699   6.022   1.314  14.829 -0.0523  1.4010  0.5298
13762TIP3   OH262700   3.886   3.879   1.969  0.7714  0.1561 -0.2921
13762TIP3    H162701   3.920   3.790   1.962  3.0017  0.7664  1.5785
13762TIP3    H262702   3.827   3.888   1.894  0.1107 -3.0046 -0.2912
13763TIP3   OH262703   2.892   4.653  14.627 -0.0762  0.0135  0.0524
13763TIP3    H162704   2.869   4.564  14.599  0.0267  0.1125 -0.3496
13763TIP3    H262705   2.824   4.677  14.689 -0.2372 -0.2572 -0.0169
13764TIP3   OH262706   1.938   2.267  11.768  0.6645  0.0201 -0.0032
13764TIP3    H162707   2.008   2.257  11.833 -0.7617  0.2703  1.6382
13764TIP3    H262708   1.972   2.330  11.705  1.5089  0.9594  1.3560
13765TIP3   OH262709   6.105   3.848  10.618 -0.0039 -0.7650  0.1394
13765TIP3    H162710   6.022   3.870  10.661  0.2810  0.9978 -0.1645
13765TIP3    H262711   6.088   3.862  10.525  0.8303  0.2914  0.1330
13766TIP3   OH262712   4.055   6.135   4.826 -0.6109  0.0813 -0.2426
13766TIP3    H162713   3.972   6.109   4.785 -0.4552 -0.8753  0.0133
13766TIP3    H262714   4.031   6.199   4.892 -0.9216  1.2929 -1.4868
13767TIP3   OH262715   1.522   4.963  14.112  0.4936  0.9488  0.9773
13767TIP3    H162716   1.480   4.979  14.028 -1.2094 -2.8381  0.8891
13767TIP3    H262717   1.610   4.934  14.091  0.4362  1.0866  0.5521
13768TIP3   OH262718   1.024   5.570  12.450 -0.4608  0.2488  0.2559
13768TIP3    H162719   1.005   5.576  12.544 -1.0429 -0.7546  0.2119
13768TIP3    H262720   1.087   5.498  12.443 -1.9495 -1.0664 -0.3036
13769TIP3   OH262721   5.837   1.765   1.724  0.0903  0.3561  1.2646
13769TIP3    H162722   5.748   1.793   1.702  0.1881  0.1135  0.5368
13769TIP3    H262723   5.892   1.840   1.705 -0.0251  0.7541  2.3866
13770TIP3   OH262724   2.434   5.341   0.003 -0.0848 -0.7068 -0.1672
13770TIP3    H162725   2.377   5.263   0.003 -1.7082  0.4312 -0.0478
13770TIP3    H262726   2.373   5.415  -0.003  1.0567  0.7901  3.7724
13771TIP3   OH262727   5.536   3.517   5.305 -0.4248  0.5982  0.1171
13771TIP3    H162728   5.584   3.526   5.223 -1.2105  0.8596 -0.3282
13771TIP3    H262729   5.451   3.481   5.279  0.4869 -2.6358  1.1960
13772TIP3   OH262730   6.354   0.672  15.474  0.4236 -0.4564  0.2233
13772TIP3    H162731   6.357   0.741  15.540 -0.7646  0.3710 -0.5446
13772TIP3    H262732   6.389   0.713  15.395 -0.6796 -0.5843 -0.3444
13773TIP3   OH262733   5.850   5.893  11.677 -0.1011  0.4932 -0.6628
13773TIP3    H162734   5.831   5.879  11.584 -0.5742  0.2962 -0.5379
13773TIP3    H262735   5.768   5.925  11.714 -0.2243 -0.4382 -0.1065
13774TIP3   OH262736   2.007   0.501   2.829 -0.7851  0.5205  0.3387
13774TIP3    H162737   1.940   0.521   2.763 -0.8227 -3.4603 -1.1207
13774TIP3    H262738   1.961   0.448   2.894  0.6484 -1.8437 -0.4180
13775TIP3   OH262739   4.936   3.054  12.324  0.4882  0.2659  0.0751
13775TIP3    H162740   4.942   3.149  12.321  0.3331  0.2555 -1.8335
13775TIP3    H262741   5.025   3.025  12.340  1.0184  0.7214 -1.7541
13776TIP3   OH262742   3.844   2.367  15.369 -0.3962 -0.0528  0.0011
13776TIP3    H162743   3.757   2.350  15.405  0.5129  0.0100  2.4239
13776TIP3    H262744   3.846   2.319  15.286 -2.2672 -1.1241  0.5323
13777TIP3   OH262745   2.482   4.429  17.351  0.4900 -0.7983  0.2885
13777TIP3    H162746   2.496   4.469  17.265 -0.4053  1.3072  1.0718
13777TIP3    H262747   2.390   4.404  17.352  0.6758 -1.5138  0.3844
13778TIP3   OH262748   1.445   0.054  17.009  0.7160  0.2869  0.7199
13778TIP3    H162749   1.531   0.019  17.034  1.0945  1.6440  1.3914
13778TIP3    H262750   1.465   0.128  16.952 -0.1072 -1.4662 -2.0540
13779TIP3   OH262751   2.098   4.746  13.612 -0.7717  0.0324 -0.0772
13779TIP3    H162752   2.028   4.732  13.675 -0.2868  2.1310  1.0277
13779TIP3    H262753   2.055   4.784  13.536 -0.9214  0.7798  0.3750
13780TIP3   OH262754   0.271   4.105   3.360  0.2690 -0.3502 -0.1569
13780TIP3    H162755   0.236   4.071   3.442 -2.6451 -2.2771 -2.0428
13780TIP3    H262756   0.343   4.046   3.338  1.4351  0.4940  1.1440
13781TIP3   OH262757   2.481   6.643  15.747 -0.1007 -0.1537 -0.2779
13781TIP3    H162758   2.474   6.675  15.837  1.8368  0.0484 -0.1655
13781TIP3    H262759   2.556   6.689  15.710  0.2272 -1.5364 -1.4476
13782TIP3   OH262760   4.352   3.747  13.420 -0.4153 -0.1005 -0.7556
13782TIP3    H162761   4.328   3.744  13.327 -0.6906  0.8307 -0.7212
13782TIP3    H262762   4.299   3.678  13.460 -2.2493  1.1798 -0.8732
13783TIP3   OH262763   0.759   3.167   5.767 -0.1769  0.3350 -0.5732
13783TIP3    H162764   0.713   3.199   5.844 -1.7709 -3.4631  0.2597
13783TIP3    H262765   0.695   3.177   5.696 -0.4237 -0.3294 -0.4487
13784TIP3   OH262766   2.849   1.284  16.912  0.1059  0.2690  0.1725
13784TIP3    H162767   2.902   1.352  16.952 -0.3098 -1.0542  3.2916
13784TIP3    H262768   2.759   1.316  16.919  0.1553  1.5507 -3.1390
13785TIP3   OH262769   2.796   6.678   0.910 -0.0693  0.0774  0.1268
13785TIP3    H162770   2.859   6.745   0.939  1.0149 -0.8680  0.0109
13785TIP3    H262771   2.843   6.595   0.919 -1.3125 -0.6609  0.0361
13786TIP3   OH262772   5.997   4.837   3.007 -0.3538 -0.2535 -0.0276
13786TIP3    H162773   6.046   4.765   3.048 -0.1147 -0.7373 -1.1273
13786TIP3    H262774   6.064   4.902   2.987 -0.6900  0.7431  1.8303
13787TIP3   OH262775   0.271   2.791   1.009  1.0013  0.2824 -0.2622
13787TIP3    H162776   0.242   2.742   0.933  0.6914  0.0179  0.0236
13787TIP3    H262777   0.286   2.880   0.977  1.0411  0.1305 -0.6635
13788TIP3   OH262778   3.884   3.548   6.106  0.4325 -0.5910  0.4288
13788TIP3    H162779   3.815   3.610   6.080 -0.2708 -1.3792  0.3632
13788TIP3    H262780   3.856   3.517   6.192  2.9416  2.3188  2.5263
13789TIP3   OH262781   5.041   1.642  15.679  0.2507  0.2525  0.3003
13789TIP3    H162782   5.026   1.712  15.742 -0.7254  0.4000 -0.0762
13789TIP3    H262783   4.988   1.569  15.712 -1.0594  0.6450 -0.8507
13790TIP3   OH262784   3.400   3.305  16.747  0.0516  0.4303 -0.2232
13790TIP3    H162785   3.357   3.254  16.679 -1.3073 -0.4069  1.1868
13790TIP3    H262786   3.371   3.264  16.829 -1.2248  3.4902  1.0118
13791TIP3   OH262787   2.913   3.277   5.391  0.0893 -0.2270 -0.5913
13791TIP3    H162788   2.909   3.349   5.328 -2.9564  0.9830  0.7607
13791TIP3    H262789   2.872   3.203   5.346 -0.9775  0.2871 -0.5129
13792TIP3   OH262790   1.873   5.085  13.127  0.3907  0.5169 -0.3412
13792TIP3    H162791   1.789   5.126  13.104 -1.0489 -0.9931  1.7828
13792TIP3    H262792   1.864   4.995  13.096  1.5049  0.5081 -0.6509
13793TIP3   OH262793   3.615   4.509  13.024 -0.0902 -0.3717 -0.2397
13793TIP3    H162794   3.559   4.563  12.969  0.8061  1.0260  0.1901
13793TIP3    H262795   3.575   4.513  13.111 -0.1769 -0.6500 -0.2643
13794TIP3   OH262796   4.564   0.720  14.456  0.1778 -0.2413  0.3253
13794TIP3    H162797   4.617   0.760  14.525 -0.3385  1.2382 -0.0832
13794TIP3    H262798   4.495   0.673  14.502 -0.6311  1.3842  0.8521
13795TIP3   OH262799   3.040   0.694  13.507  0.0075  0.1942  0.0141
13795TIP3    H162800   3.080   0.708  13.592  0.8640 -1.7716 -0.0214
13795TIP3    H262801   3.115   0.681  13.447 -0.6044 -1.5744 -0.4212
13796TIP3   OH262802   2.484   3.610  14.470 -0.0498 -0.4940 -0.0897
13796TIP3    H162803   2.419   3.541  14.485  0.9249 -1.9329 -1.9918
13796TIP3    H262804   2.439   3.672  14.412 -0.1410 -0.8563 -0.4164
13797TIP3   OH262805   4.182   5.137  15.141  0.1082  0.1884 -0.2630
13797TIP3    H162806   4.168   5.208  15.204  1.7903  0.8515 -0.5800
13797TIP3    H262807   4.189   5.058  15.194 -0.5530  0.4353  0.2020
13798TIP3   OH262808   4.207   6.201  16.921 -0.5968  0.2350  0.0452
13798TIP3    H162809   4.215   6.157  16.837 -0.3509  1.0652 -0.3793
13798TIP3    H262810   4.115   6.188  16.946 -0.4958 -0.5990 -0.0168
13799TIP3   OH262811   5.900   2.275   1.043 -0.3892  0.0423 -0.2076
13799TIP3    H162812   5.937   2.331   0.975 -1.3262  1.7750  0.6317
13799TIP3    H262813   5.805   2.292   1.039 -0.4362  0.4596  1.7195
13800TIP3   OH262814   2.943   2.179   3.764  0.4074  0.3193  0.1167
13800TIP3    H162815   2.951   2.093   3.722 -1.0041 -0.1388  0.7390
13800TIP3    H262816   3.022   2.226   3.736  0.7168 -0.8171 -1.0484
13801TIP3   OH262817   4.218   6.383   6.471  0.2676  0.2468  0.2912
13801TIP3    H162818   4.131   6.414   6.494  0.7747  0.3380  2.2764
13801TIP3    H262819   4.276   6.455   6.494  0.9092  0.0926 -0.7767
13802TIP3   OH262820   2.449   5.782  12.449 -0.4658 -0.2467 -0.4904
13802TIP3    H162821   2.391   5.781  12.373 -1.4167  0.7918  0.2010
13802TIP3    H262822   2.460   5.874  12.470  0.8570 -0.4607 -0.1422
13803TIP3   OH262823   6.708   2.064  15.083  0.3379 -0.0240  0.6677
13803TIP3    H162824   6.768   2.013  15.029 -0.7219  0.4776 -1.0710
13803TIP3    H262825   6.764   2.128  15.127  1.2498 -0.4657  0.1763
13804TIP3   OH262826   1.568   0.230  14.593 -0.0124 -0.8855 -0.5019
13804TIP3    H162827   1.473   0.224  14.583 -0.2950 -1.3597  1.9166
13804TIP3    H262828   1.603   0.193  14.512 -1.8639  0.0043 -1.7834
13805TIP3   OH262829   2.212   4.562  13.014  0.6526  0.4015 -0.2756
13805TIP3    H162830   2.302   4.587  13.037  0.5640 -0.6996  1.5172
13805TIP3    H262831   2.222   4.485  12.958  0.8246  1.5984 -1.9709
13806TIP3   OH262832   0.408   0.625  11.773 -0.3432 -0.3353 -0.0773
13806TIP3    H162833   0.395   0.540  11.732 -0.1277  0.6170 -2.2772
13806TIP3    H262834   0.419   0.606  11.866  0.2461 -2.7512 -0.5779
13807TIP3   OH262835   2.962   0.771  16.330  0.7082  0.0076  0.2373
13807TIP3    H162836   2.911   0.693  16.308 -2.1687  1.7982  0.0526
13807TIP3    H262837   2.954   0.827  16.252  2.7679  0.5055  0.3374
13808TIP3   OH262838   1.850   3.436   5.425 -0.1739  0.6910 -0.4669
13808TIP3    H162839   1.811   3.518   5.393 -3.2328 -0.9141 -1.1821
13808TIP3    H262840   1.809   3.422   5.510  0.6362  0.0729 -0.1691
13809TIP3   OH262841   1.057   0.288   1.880 -0.4509 -0.0664  0.4817
13809TIP3    H162842   1.081   0.245   1.962  0.5169  0.8210  0.6857
13809TIP3    H262843   1.141   0.311   1.840 -0.9116 -0.4356 -0.7448
13810TIP3   OH262844   6.292   4.260   4.752 -0.1834  0.1713 -0.1439
13810TIP3    H162845   6.359   4.211   4.799 -0.0371 -0.2678 -0.8038
13810TIP3    H262846   6.277   4.210   4.672 -3.0082 -1.0767  1.0316
13811TIP3   OH262847   2.486   5.919  14.988 -0.2276 -0.2482 -0.6935
13811TIP3    H162848   2.391   5.925  15.002 -0.0516 -2.0017  1.7871
13811TIP3    H262849   2.521   6.001  15.024 -0.5375 -1.2415  2.0642
13812TIP3   OH262850   0.880   0.706  17.172  0.1293 -0.1541 -0.4646
13812TIP3    H162851   0.919   0.628  17.210  0.9500 -0.4999 -1.9489
13812TIP3    H262852   0.821   0.739  17.240 -0.6120 -2.3121  0.0109
13813TIP3   OH262853   4.493   1.116  14.357 -0.7080  0.2589  0.0097
13813TIP3    H162854   4.470   1.168  14.434  1.4839  0.1255  0.8394
13813TIP3    H262855   4.493   1.026  14.388  0.2103  0.2066 -0.1063
13814TIP3   OH262856   6.555   3.478  11.863 -0.5362  0.2779 -0.2733
13814TIP3    H162857   6.641   3.514  11.843  0.2076 -1.3232 -0.1569
13814TIP3    H262858   6.546   3.404  11.802 -0.2138 -1.8304  2.0801
13815TIP3   OH262859   0.970   6.635   1.141  0.3256 -0.3165  0.3833
13815TIP3    H162860   0.910   6.708   1.156 -1.8793 -1.6530 -1.2188
13815TIP3    H262861   0.955   6.576   1.215  0.7873  0.0299  0.7563
13816TIP3   OH262862   0.932   3.885   6.705 -0.3929 -0.3632  0.0223
13816TIP3    H162863   0.926   3.892   6.610  1.5678 -0.0272 -0.1345
13816TIP3    H262864   0.842   3.891   6.736 -1.0119  0.2271 -1.7688
13817TIP3   OH262865   3.733   4.408  16.668 -0.2837  0.0053  0.2596
13817TIP3    H162866   3.643   4.437  16.682 -1.1967 -1.8589 -1.1888
13817TIP3    H262867   3.732   4.369  16.580  1.8577 -0.4150  0.3571
13818TIP3   OH262868   3.476   3.828  13.254 -0.1769  0.7864 -0.1244
13818TIP3    H162869   3.526   3.765  13.201 -0.6221 -0.1229  0.5057
13818TIP3    H262870   3.495   3.913  13.214  2.6995  0.6465  0.7202
13819TIP3   OH262871   1.188   5.810  11.608 -0.0613 -0.4104 -0.4682
13819TIP3    H162872   1.104   5.855  11.610  0.1056 -0.1054  0.2836
13819TIP3    H262873   1.168   5.720  11.635 -0.0320 -0.1056  0.6403
13820TIP3   OH262874   5.810   6.040   4.332  0.2821 -0.3454 -0.3754
13820TIP3    H162875   5.793   6.076   4.420  0.8183  0.3894 -0.5664
13820TIP3    H262876   5.747   6.084   4.276  0.7877  0.1267 -0.5727
13821TIP3   OH262877   2.836   4.012  15.459 -0.0603  0.4145 -0.4675
13821TIP3    H162878   2.819   4.035  15.368 -0.9230  0.4065 -0.3212
13821TIP3    H262879   2.814   4.090  15.508 -1.2291 -0.1020 -0.1311
13822TIP3   OH262880   5.020   4.721   0.198 -0.0988 -0.0673 -0.4393
13822TIP3    H162881   5.108   4.751   0.175 -0.2334  0.1845 -0.6197
13822TIP3    H262882   4.964   4.752   0.127  0.1125 -2.7907 -1.9212
13823TIP3   OH262883   2.445   0.732  13.666  0.0767 -0.3036 -1.0666
13823TIP3    H162884   2.470   0.641  13.682  1.3604  0.1033 -0.6411
13823TIP3    H262885   2.514   0.784  13.707 -1.1982  0.8953 -0.3428
13824TIP3   OH262886   1.073   0.268   0.871 -0.5559 -0.2637  0.0082
13824TIP3    H162887   1.049   0.287   0.781 -2.1086 -0.9035  0.2499
13824TIP3    H262888   0.990   0.274   0.919  0.1000 -0.7627  1.2449
13825TIP3   OH262889   3.292   0.982  13.881  0.1220 -0.0634 -0.3343
13825TIP3    H162890   3.331   1.064  13.853  0.5058 -0.0185  0.3079
13825TIP3    H262891   3.339   0.959  13.961  1.7171 -2.1721 -1.7641
13826TIP3   OH262892   2.747   1.843  16.838  0.5836 -0.2677 -0.8157
13826TIP3    H162893   2.745   1.938  16.823 -0.0859 -0.2702 -0.7807
13826TIP3    H262894   2.769   1.834  16.931 -5.1130  0.1213  1.0221
13827TIP3   OH262895   1.399   5.028   1.450  0.2376  0.0651  0.2121
13827TIP3    H162896   1.364   4.968   1.516  0.8177 -1.0428 -0.4639
13827TIP3    H262897   1.322   5.073   1.416 -0.3689 -1.1690 -0.1150
13828TIP3   OH262898   3.113   3.175  15.714 -0.3967 -0.3721 -0.1317
13828TIP3    H162899   3.032   3.203  15.671 -0.4501  2.1046  1.3651
13828TIP3    H262900   3.154   3.257  15.743  1.9619 -1.6391  0.3907
13829TIP3   OH262901   0.916   2.379   1.812 -0.7100  0.5634  0.3012
13829TIP3    H162902   0.869   2.357   1.892 -1.0272  2.4911  0.6966
13829TIP3    H262903   0.893   2.470   1.795  2.7962  1.6047  0.4776
13830TIP3   OH262904   3.593   1.324   6.034 -0.4062 -0.0828  0.0406
13830TIP3    H162905   3.659   1.290   5.974 -1.6698 -0.1538 -1.3657
13830TIP3    H262906   3.555   1.399   5.989  0.9988  2.1063  2.2777
13831TIP3   OH262907   5.611   1.826  14.595 -0.1727  0.1238  0.5301
13831TIP3    H162908   5.520   1.812  14.567 -1.2138  0.1647  3.5072
13831TIP3    H262909   5.611   1.801  14.687  3.1822 -1.0179  0.3329
13832TIP3   OH262910   5.438   6.622   3.497 -0.7772 -0.4505  0.4019
13832TIP3    H162911   5.467   6.584   3.580 -1.2149 -1.0584  0.2765
13832TIP3    H262912   5.344   6.608   3.495 -0.9210  0.4683  0.2578
13833TIP3   OH262913   4.308   5.057  12.271 -0.0615 -0.4079  0.2095
13833TIP3    H162914   4.253   4.981  12.291 -0.8808  0.4129  1.2443
13833TIP3    H262915   4.396   5.030  12.296 -0.5076 -0.6777  1.5874
13834TIP3   OH262916   2.782   6.113  13.266 -0.4169 -0.2110  0.5664
13834TIP3    H162917   2.779   6.146  13.176 -1.8132 -1.9362 -0.0852
13834TIP3    H262918   2.820   6.025  13.258 -1.3170 -0.7073  1.5212
13835TIP3   OH262919   3.827   1.172  13.500 -0.5354 -0.7150  1.1873
13835TIP3    H162920   3.877   1.111  13.555 -0.8558 -2.0977  0.0089
13835TIP3    H262921   3.779   1.116  13.439  0.2739  0.7334 -0.9277
13836TIP3   OH262922   6.536   2.242   1.841  0.3095 -0.2501  0.1463
13836TIP3    H162923   6.629   2.251   1.863  0.5070 -1.2056 -0.2608
13836TIP3    H262924   6.493   2.311   1.892  1.1694 -0.1904  0.8199
13837TIP3   OH262925   2.398   5.461  14.820 -0.0704  0.7005  0.5382
13837TIP3    H162926   2.338   5.387  14.819 -0.5653  1.0992  0.0108
13837TIP3    H262927   2.373   5.512  14.743  0.7167  1.0530  0.5168
13838TIP3   OH262928   2.739   1.662   2.280 -0.4494 -0.1219  0.0650
13838TIP3    H162929   2.676   1.733   2.268 -0.2941  0.1582  0.8881
13838TIP3    H262930   2.686   1.582   2.273 -0.9670  0.1175  1.0540
13839TIP3   OH262931   2.554   6.384   0.938 -0.2386 -0.2557  0.5901
13839TIP3    H162932   2.523   6.293   0.942 -1.1129  0.0590  2.9840
13839TIP3    H262933   2.538   6.411   0.848  0.5600 -2.6176 -0.3473
13840TIP3   OH262934   2.508   6.502  15.507 -0.4565 -0.6454 -0.3175
13840TIP3    H162935   2.433   6.457  15.469 -0.0807 -1.2136 -0.3979
13840TIP3    H262936   2.496   6.492  15.602 -0.0733 -1.4255 -0.3459
13841TIP3   OH262937   2.765   6.045  14.775  0.1407 -0.1835 -0.1493
13841TIP3    H162938   2.773   6.023  14.682  1.4966  1.9928 -0.6318
13841TIP3    H262939   2.855   6.042  14.808  0.0470  1.6130  0.3948
13842TIP3   OH262940   0.797   0.008   0.222  0.0310  0.3679 -0.7213
13842TIP3    H162941   0.789  -0.082   0.190  0.2672  0.5414 -1.2912
13842TIP3    H262942   0.715   0.049   0.196  0.6008  0.7634 -1.9751
13843TIP3   OH262943   4.890   6.020  12.036  0.0538  0.2648  0.2180
13843TIP3    H162944   4.965   5.970  12.067 -0.7916 -0.7693  0.6807
13843TIP3    H262945   4.914   6.046  11.947  1.9394  2.1010  1.1866
13844TIP3   OH262946   5.193   4.290  14.343  0.1465  0.1489 -0.3196
13844TIP3    H162947   5.277   4.286  14.297 -0.5976 -0.7984 -1.6652
13844TIP3    H262948   5.149   4.366  14.305 -0.7480 -1.0272 -1.7655
13845TIP3   OH262949   2.043   2.774   1.443  0.4290  1.0028 -0.4048
13845TIP3    H162950   2.127   2.783   1.397  0.8745  0.7435  0.3400
13845TIP3    H262951   2.035   2.856   1.491 -0.0687  1.3002 -0.9770
13846TIP3   OH262952   5.863   5.109   4.979 -0.0655 -0.1051  0.1208
13846TIP3    H162953   5.918   5.079   4.906  1.0751  0.6559  0.6472
13846TIP3    H262954   5.920   5.107   5.055 -1.0678 -0.2712  0.8850
13847TIP3   OH262955   1.655   5.362   5.217  0.2273  0.2824  0.4747
13847TIP3    H162956   1.575   5.344   5.266  0.0723  0.5078  0.3051
13847TIP3    H262957   1.673   5.282   5.169 -1.1711  0.9601 -1.2974
13848TIP3   OH262958   2.252   3.676   3.465 -0.0263  0.5182  0.2778
13848TIP3    H162959   2.317   3.672   3.394  0.7303  0.7381  0.9412
13848TIP3    H262960   2.175   3.633   3.429  1.3253 -2.2109  0.3792
13849TIP3   OH262961   2.962   3.591   3.256  0.2082  0.3965 -0.1644
13849TIP3    H162962   3.029   3.524   3.265  1.4465  1.6669  0.3660
13849TIP3    H262963   2.973   3.647   3.333 -0.7083  1.3025 -0.6629
13850TIP3   OH262964   3.393   6.457   0.516  0.4050  0.4049 -0.2534
13850TIP3    H162965   3.300   6.434   0.519  0.5802 -0.2589  0.8394
13850TIP3    H262966   3.398   6.540   0.564  0.4143  0.2797 -0.0355
13851TIP3   OH262967   5.294   1.801   5.930  0.3085  0.5166 -0.2377
13851TIP3    H162968   5.202   1.791   5.903 -0.2370  0.6805  1.4468
13851TIP3    H262969   5.295   1.883   5.980  0.1704 -1.9461  4.2949
13852TIP3   OH262970   0.040   0.096  14.589  0.5305  0.0972  0.0945
13852TIP3    H162971  -0.047   0.064  14.613  1.8260 -1.6125  3.1355
13852TIP3    H262972   0.053   0.067  14.499 -1.6417 -0.4096 -0.1065
13853TIP3   OH262973   0.118   1.769  14.560 -0.2269 -0.0967 -0.0297
13853TIP3    H162974   0.032   1.788  14.523  0.1407 -1.3276 -1.6647
13853TIP3    H262975   0.169   1.737  14.486  1.4425 -0.0433  1.0401
13854TIP3   OH262976   5.459   1.038  16.120 -0.1864 -0.6331  0.0403
13854TIP3    H162977   5.408   1.118  16.106  0.0666 -0.8006 -2.0173
13854TIP3    H262978   5.398   0.978  16.164  0.0255  1.0842  2.9685
13855TIP3   OH262979   1.624   5.313  15.813  0.3420 -0.2477 -0.3545
13855TIP3    H162980   1.553   5.308  15.748 -0.2126 -0.4797  0.2547
13855TIP3    H262981   1.618   5.231  15.861  1.4072 -0.5259 -0.6688
13856TIP3   OH262982   1.635   0.243   2.790  0.1041 -0.0253  0.3083
13856TIP3    H162983   1.555   0.278   2.828  1.1302  2.0550  0.7320
13856TIP3    H262984   1.609   0.209   2.704 -1.1295  1.3230  0.1065
13857TIP3   OH262985   0.958   0.481   6.153 -0.4029  0.1590 -0.1011
13857TIP3    H162986   0.976   0.449   6.241 -0.1956 -0.5894 -0.4041
13857TIP3    H262987   0.865   0.502   6.153 -0.4172  0.0998  0.2720
13858TIP3   OH262988   3.834   1.061  16.991  0.7093  0.5386  0.0924
13858TIP3    H162989   3.847   0.969  17.011 -0.3591  0.2367 -0.5167
13858TIP3    H262990   3.744   1.067  16.960  1.0514  1.6293 -0.7925
13859TIP3   OH262991   3.696   4.834   3.193  0.3423 -0.1797 -0.2255
13859TIP3    H162992   3.608   4.799   3.209  1.0708 -1.6730  0.6422
13859TIP3    H262993   3.755   4.773   3.236  1.8571  0.5814 -1.1410
13860TIP3   OH262994   6.615   1.123  16.004 -0.2531 -0.2201 -0.3547
13860TIP3    H162995   6.696   1.077  16.024 -0.9821 -1.7169 -0.6813
13860TIP3    H262996   6.588   1.163  16.086  0.2525 -0.6235  0.0102
13861TIP3   OH262997   6.236   6.004   3.297 -0.1808 -0.3133  0.1948
13861TIP3    H162998   6.268   5.971   3.213 -0.1595 -0.1693  0.1451
13861TIP3    H262999   6.315   6.039   3.339  0.2811 -2.5375  1.3187
13862TIP3   OH263000   5.496   0.847  14.870 -0.1162  0.2562  0.1012
13862TIP3    H163001   5.568   0.819  14.814  0.2629  0.5504  0.4340
13862TIP3    H263002   5.534   0.914  14.927 -0.3340 -0.4923  1.1508
13863TIP3   OH263003   2.582   2.788  12.270 -0.2421 -0.3011 -0.9875
13863TIP3    H163004   2.529   2.790  12.190  0.5650 -1.3815 -1.5857
13863TIP3    H263005   2.657   2.732  12.247  0.8933  0.7694 -0.0174
13864TIP3   OH263006   5.197   1.228   1.118 -0.1692  0.2176  0.0505
13864TIP3    H163007   5.210   1.151   1.063 -1.1518  1.6455 -2.3267
13864TIP3    H263008   5.110   1.217   1.155 -0.8889  0.7714 -1.3960
13865TIP3   OH263009   3.631   3.288  13.757 -0.3674  0.4975  0.0076
13865TIP3    H163010   3.605   3.256  13.670 -1.2833  0.7370  0.1787
13865TIP3    H263011   3.720   3.255  13.769 -0.4014  0.0639 -0.8265
13866TIP3   OH263012   2.812   2.108  11.130  0.6255  0.2527 -0.3576
13866TIP3    H163013   2.743   2.145  11.076 -2.1501  0.4040  2.9758
13866TIP3    H263014   2.799   2.013  11.123  0.7749  0.2412 -0.5035
13867TIP3   OH263015   4.357   6.471   4.146 -0.1384  0.3756  0.0960
13867TIP3    H163016   4.302   6.408   4.099  2.5626 -1.5922 -0.6121
13867TIP3    H263017   4.369   6.543   4.083  1.1713 -0.9603 -1.2606
13868TIP3   OH263018   4.406   3.837   3.253 -0.7837  0.7985 -0.1265
13868TIP3    H163019   4.365   3.837   3.339  0.2966  0.0530  0.4066
13868TIP3    H263020   4.494   3.871   3.267 -0.4616  0.3105 -0.8634
13869TIP3   OH263021   2.229   3.814   3.902 -0.2185 -0.7299 -0.5060
13869TIP3    H163022   2.282   3.824   3.981  0.2648 -0.5989 -0.8390
13869TIP3    H263023   2.139   3.825   3.931  0.0276  0.5439 -0.1698
13870TIP3   OH263024   4.894   5.440   6.643 -0.1198  0.2780  0.5060
13870TIP3    H163025   4.808   5.414   6.674  0.1140  0.0426  0.9800
13870TIP3    H263026   4.894   5.535   6.646 -0.4358  0.2853  0.2923
13871TIP3   OH263027   0.210   5.762   2.434  0.1599  0.0497  0.2261
13871TIP3    H163028   0.143   5.698   2.461  0.8151 -0.6491  0.2326
13871TIP3    H263029   0.166   5.846   2.439 -1.0414 -0.4904 -0.7658
13872TIP3   OH263030   3.277   1.233   4.717 -0.1954  0.3743 -0.0209
13872TIP3    H163031   3.360   1.188   4.734  0.2838  1.9314  2.3326
13872TIP3    H263032   3.297   1.295   4.648  0.9065  1.3444  1.1152
13873TIP3   OH263033   4.227   4.642   6.251  0.4201  0.0892  0.2954
13873TIP3    H163034   4.194   4.565   6.298  0.7394 -0.0253  0.3297
13873TIP3    H263035   4.200   4.716   6.305 -1.5020  0.1361 -0.6470
13874TIP3   OH263036   0.622   3.044  15.946 -0.2729  0.2243 -0.3872
13874TIP3    H163037   0.634   3.125  15.896 -2.8614  1.0670  0.1904
13874TIP3    H263038   0.527   3.033  15.951 -0.0524 -1.3219  1.9775
13875TIP3   OH263039   5.547   1.717   6.516 -0.1094 -0.0233  0.3292
13875TIP3    H163040   5.536   1.627   6.549  1.4153 -1.4756 -2.7825
13875TIP3    H263041   5.631   1.745   6.551 -0.4747  0.1603  1.1027
13876TIP3   OH263042   0.287   0.112   1.743 -0.1043  0.1087  0.3466
13876TIP3    H163043   0.316   0.090   1.654 -0.7760 -0.0146  0.1484
13876TIP3    H263044   0.196   0.082   1.746 -0.9165  2.3735  0.2420
13877TIP3   OH263045   0.668   0.704   3.667  0.6170  0.2822  0.1642
13877TIP3    H163046   0.601   0.691   3.601  1.1666  2.2305 -0.8341
13877TIP3    H263047   0.749   0.715   3.618  1.4604 -0.5719  1.2872
13878TIP3   OH263048   1.456   2.993   3.980 -0.6573 -0.5688 -0.6522
13878TIP3    H163049   1.449   3.060   4.047  1.8999 -1.4609  0.6034
13878TIP3    H263050   1.481   3.041   3.901 -0.0496  0.1006 -0.0667
13879TIP3   OH263051   0.951   4.019   4.500  0.7244 -0.0404  0.3503
13879TIP3    H163052   0.997   3.937   4.519  0.4832 -0.2225  0.1631
13879TIP3    H263053   0.883   3.994   4.438  1.8768  0.6393 -1.2575
13880TIP3   OH263054   1.068   0.891  13.908  0.4137  0.2757  0.0675
13880TIP3    H163055   1.109   0.815  13.865 -0.1958  0.0735 -0.1613
13880TIP3    H263056   1.139   0.930  13.958  0.4791 -1.1704  1.1921
13881TIP3   OH263057   3.819   3.427  14.371 -0.1926 -0.0768  0.3520
13881TIP3    H163058   3.791   3.465  14.288  0.1609 -3.0613 -1.2649
13881TIP3    H263059   3.899   3.473  14.393 -0.8364  1.4704 -0.3773
13882TIP3   OH263060   5.255   1.893   0.124  0.4117  0.7409 -0.8712
13882TIP3    H163061   5.262   1.959   0.194  1.0353 -0.5932  0.3941
13882TIP3    H263062   5.345   1.880   0.095  0.3168  0.3558 -0.9984
13883TIP3   OH263063   2.121   2.283   5.359 -0.4413  0.2313 -0.2370
13883TIP3    H163064   2.057   2.334   5.310 -1.6195 -1.0229 -0.0567
13883TIP3    H263065   2.118   2.196   5.319  1.1621  0.1255 -0.2157
13884TIP3   OH263066   3.721   2.143  12.131 -0.1747  0.1726 -0.1891
13884TIP3    H163067   3.765   2.067  12.090  0.7391  0.4927  0.1619
13884TIP3    H263068   3.793   2.195  12.167 -0.9033  0.3614  1.0366
13885TIP3   OH263069   3.743   4.954  12.114  0.4142  0.0243 -0.0541
13885TIP3    H163070   3.786   5.038  12.126 -2.1919  1.4375  0.0793
13885TIP3    H263071   3.725   4.923  12.203  1.3287 -0.6794 -0.1028
13886TIP3   OH263072   0.482   4.417  11.601 -0.2385 -0.1714  0.1826
13886TIP3    H163073   0.520   4.441  11.685 -2.3406  2.2078  0.5769
13886TIP3    H263074   0.550   4.437  11.536  1.0426 -1.1121  1.1878
13887TIP3   OH263075   4.639   4.191   2.016  0.3839  0.6066 -0.0281
13887TIP3    H163076   4.546   4.172   1.999 -0.0438  0.9162  1.7962
13887TIP3    H263077   4.666   4.244   1.941 -0.9854  0.7713 -0.4408
13888TIP3   OH263078   2.350   1.808  14.506 -0.2880 -0.6180  0.2475
13888TIP3    H163079   2.298   1.732  14.532 -2.0268  0.1386 -0.8304
13888TIP3    H263080   2.360   1.798  14.411  0.4553 -0.0779  0.2626
13889TIP3   OH263081   4.855   4.327  12.758  0.3165 -0.3012  0.2994
13889TIP3    H163082   4.877   4.359  12.670 -1.1349 -0.0162  0.0144
13889TIP3    H263083   4.789   4.259  12.742  0.1007 -0.3011  1.1627
13890TIP3   OH263084   5.027   4.446   5.871  0.0363 -0.6053 -0.0809
13890TIP3    H163085   5.088   4.506   5.914 -0.2609 -0.3262 -0.0475
13890TIP3    H263086   5.053   4.447   5.779 -2.0149  2.1473 -0.7380
13891TIP3   OH263087   2.504   5.469  12.526 -0.5286  0.0676  0.0472
13891TIP3    H163088   2.540   5.380  12.534  0.0848  0.1991 -1.1063
13891TIP3    H263089   2.560   5.512  12.461 -1.8713  0.7455 -0.6917
13892TIP3   OH263090   4.279   5.802  16.697  0.0769 -0.1274 -0.6684
13892TIP3    H163091   4.259   5.895  16.706 -0.3689 -0.2603 -0.2951
13892TIP3    H263092   4.240   5.760  16.774  2.6001 -0.2716  0.6432
13893TIP3   OH263093   4.404   6.163   0.894 -0.4887 -0.4855  0.0327
13893TIP3    H163094   4.469   6.095   0.882  0.6062  0.4438  0.5309
13893TIP3    H263095   4.336   6.143   0.829 -0.3057 -2.1366  0.3069
13894TIP3   OH263096   0.210   4.980  11.948  0.2834 -0.0027  0.7017
13894TIP3    H163097   0.118   4.956  11.954  0.0398 -0.4506 -2.7342
13894TIP3    H263098   0.209   5.073  11.924  0.5268 -0.6059 -1.8950
13895TIP3   OH263099   1.378   2.404  11.776 -0.0127  0.8033 -0.4293
13895TIP3    H163100   1.391   2.339  11.707  1.0051  0.4338  0.0897
13895TIP3    H263101   1.466   2.423  11.808 -0.5652 -1.3413  2.8611
13896TIP3   OH263102   4.346   4.004  16.850 -0.0467  0.6326 -0.2287
13896TIP3    H163103   4.356   4.048  16.935  1.8174 -0.1209 -0.0010
13896TIP3    H263104   4.316   4.072  16.791 -0.2183  1.4616  0.7865
13897TIP3   OH263105   6.189   0.009  11.519 -0.2259 -0.1322 -0.4902
13897TIP3    H163106   6.094   0.002  11.519 -0.2091 -0.5345  0.3602
13897TIP3    H263107   6.207   0.100  11.493 -0.9591  0.8717  2.1825
13898TIP3   OH263108   1.935   3.862  13.299  0.1309 -0.1860  0.2101
13898TIP3    H163109   1.863   3.863  13.235 -0.3229 -1.0800  0.6944
13898TIP3    H263110   1.923   3.780  13.347  0.5354  0.4251  1.3764
13899TIP3   OH263111   1.199   4.125  12.086  0.2180  0.1021 -0.1683
13899TIP3    H163112   1.147   4.114  12.165 -1.3092  0.0709 -1.1309
13899TIP3    H263113   1.171   4.054  12.028 -0.2391  1.3223 -1.5098
13900TIP3   OH263114   2.867   3.480   1.249 -0.4712  0.3546 -0.6519
13900TIP3    H163115   2.809   3.407   1.272 -0.7916  0.6340 -0.5717
13900TIP3    H263116   2.865   3.483   1.153  0.4312 -0.4593 -0.7098
13901TIP3   OH263117   4.583   6.544   5.763 -0.0066  0.4396  0.2409
13901TIP3    H163118   4.520   6.613   5.743 -0.5405 -0.3410 -0.9617
13901TIP3    H263119   4.665   6.574   5.725 -0.1981  0.4890 -0.1403
13902TIP3   OH263120   0.232   2.044  17.301 -0.2161 -0.0695  0.0034
13902TIP3    H163121   0.306   2.037  17.362  1.5844 -1.3299 -2.1694
13902TIP3    H263122   0.234   1.962  17.253 -2.6132  0.2052 -0.6599
13903TIP3   OH263123   2.413   6.658  13.069 -0.1996 -1.1025 -0.4540
13903TIP3    H163124   2.417   6.596  13.142 -1.1834 -2.1648 -1.2748
13903TIP3    H263125   2.490   6.637  13.017  1.0010  0.2489  0.6951
13904TIP3   OH263126   1.398   5.052   2.340  0.2135 -0.2224  0.2747
13904TIP3    H163127   1.324   4.991   2.339  1.4477 -1.9003 -2.3445
13904TIP3    H263128   1.404   5.082   2.430 -3.4446 -0.2143  0.6392
13905TIP3   OH263129   2.020   0.770   3.028  0.0587  0.4221  0.3422
13905TIP3    H163130   2.080   0.746   2.957 -1.4741 -0.2839 -0.7635
13905TIP3    H263131   2.053   0.723   3.104  0.0422 -1.2284 -0.6163
13906TIP3   OH263132   1.971   5.955   0.362 -0.1187  0.0658  0.5650
13906TIP3    H163133   1.894   5.939   0.307 -0.3636 -0.1045  0.9534
13906TIP3    H263134   2.018   6.025   0.317 -0.5525  0.2398  0.3744
13907TIP3   OH263135   0.605   3.078  15.526  0.1448  0.2356  0.0254
13907TIP3    H163136   0.597   3.116  15.438 -1.0905 -0.6156 -0.2554
13907TIP3    H263137   0.696   3.048  15.530  0.1063 -0.0851 -1.1249
13908TIP3   OH263138   3.484   0.802  16.511  0.0470  0.7202 -0.5627
13908TIP3    H163139   3.422   0.874  16.495 -2.1838 -1.1458 -0.9907
13908TIP3    H263140   3.570   0.843  16.508 -0.9909  3.0422 -2.7756
13909TIP3   OH263141   1.146   2.001  14.624 -0.1347 -0.8567 -0.7159
13909TIP3    H163142   1.100   2.021  14.542 -2.2787 -2.2989  0.0610
13909TIP3    H263143   1.098   2.049  14.691  2.5373  1.5981 -0.3578
13910TIP3   OH263144   5.600   4.854   0.654  0.3072 -0.2042 -0.1192
13910TIP3    H163145   5.694   4.844   0.640  0.3089 -1.6730  0.7575
13910TIP3    H263146   5.581   4.800   0.731 -0.8735  1.8661  1.1551
13911TIP3   OH263147   5.773   4.137   1.690  0.4666 -0.0659 -0.8570
13911TIP3    H163148   5.733   4.093   1.615  0.9370 -1.0657 -0.5301
13911TIP3    H263149   5.788   4.227   1.660 -1.1372  0.0900 -1.3101
13912TIP3   OH263150   3.942   3.086   5.786  0.0141  0.1115 -0.4569
13912TIP3    H163151   3.922   3.012   5.728  0.5519  0.4534 -1.0789
13912TIP3    H263152   4.036   3.097   5.779  0.2271 -0.3895  1.1478
13913TIP3   OH263153   2.099   6.633   5.201 -0.0074 -0.5386 -0.3026
13913TIP3    H163154   2.165   6.700   5.221 -0.4418  0.3694 -1.7239
13913TIP3    H263155   2.102   6.624   5.106 -2.2086 -0.1130 -0.4821
13914TIP3   OH263156   5.923   1.305   1.003 -0.2709  0.4081 -0.6340
13914TIP3    H163157   5.892   1.332   0.916 -1.1731  1.5659  0.0268
13914TIP3    H263158   5.994   1.367   1.022 -0.2243  0.2932 -0.4395
13915TIP3   OH263159   4.463   6.155   1.554 -0.1898  0.2783  0.2475
13915TIP3    H163160   4.476   6.164   1.649  0.1906  0.5879  0.1680
13915TIP3    H263161   4.387   6.210   1.535 -1.4213 -1.2101  0.6500
13916TIP3   OH263162   4.921   2.281   4.144  0.0659 -0.1411 -0.6865
13916TIP3    H163163   4.926   2.190   4.115 -0.4579 -0.7645  1.0919
13916TIP3    H263164   4.873   2.278   4.226  2.2230  1.4197  0.7469
13917TIP3   OH263165   2.927   2.481  14.275  0.4829  0.6228  0.1420
13917TIP3    H163166   2.908   2.530  14.355  0.0876  1.2951 -0.3568
13917TIP3    H263167   2.999   2.530  14.234  0.6155  0.3361  0.0331
13918TIP3   OH263168   1.256   4.831  14.130 -0.1476 -0.4938 -0.7542
13918TIP3    H163169   1.316   4.901  14.107  1.1267 -1.1582  0.4016
13918TIP3    H263170   1.181   4.875  14.170  1.6726  0.1497  2.2053
13919TIP3   OH263171   0.366   4.589   0.525 -0.2205  0.0187  0.0622
13919TIP3    H163172   0.395   4.573   0.615 -0.1192 -0.7954 -0.1026
13919TIP3    H263173   0.338   4.503   0.494 -1.2208  0.4749 -0.3494
13920TIP3   OH263174   2.732   0.825  15.351  0.1968 -1.1773  0.4598
13920TIP3    H163175   2.689   0.911  15.340  1.2343 -0.7912 -0.8118
13920TIP3    H263176   2.661   0.767  15.377 -0.6656 -0.0717  0.6880
13921TIP3   OH263177   2.926   5.035  15.504  0.1947  0.0056  0.7889
13921TIP3    H163178   2.843   4.989  15.510 -0.6548  1.1495 -1.2490
13921TIP3    H263179   2.903   5.125  15.479  2.0218  0.0427 -1.1118
13922TIP3   OH263180   1.547   0.060   3.054 -0.1438 -0.2776 -0.5378
13922TIP3    H163181   1.614  -0.007   3.070 -0.8295 -0.8956 -0.1533
13922TIP3    H263182   1.591   0.143   3.070  0.2491 -0.7101  0.7945
13923TIP3   OH263183   5.765   1.228  17.042  0.3058  0.2161  0.3630
13923TIP3    H163184   5.838   1.198  17.095  0.6056 -2.3476 -1.3395
13923TIP3    H263185   5.803   1.243  16.955 -0.2945  3.6877  0.5584
13924TIP3   OH263186   5.537   0.843   2.090 -0.2535  0.1189 -0.1944
13924TIP3    H163187   5.596   0.858   2.016 -0.5625 -0.2407 -0.5139
13924TIP3    H263188   5.500   0.756   2.075 -0.5911  0.1909  0.1967
13925TIP3   OH263189   5.460   2.440   3.911  0.5792 -0.4894 -0.1916
13925TIP3    H163190   5.462   2.512   3.973  0.2691 -0.8557  0.2501
13925TIP3    H263191   5.451   2.482   3.825  0.3251 -0.0096  0.0661
13926TIP3   OH263192   5.143   2.600   4.671  0.2596  0.3429  0.2222
13926TIP3    H163193   5.096   2.638   4.597  0.6236  0.0959 -0.1326
13926TIP3    H263194   5.223   2.564   4.634 -1.4986 -3.7885 -0.1063
13927TIP3   OH263195   2.036   0.532  12.543 -0.0599 -0.4328  0.0281
13927TIP3    H163196   2.021   0.623  12.518 -1.1248 -0.2178  1.2801
13927TIP3    H263197   1.972   0.516  12.613  0.1822 -2.1114 -0.0892
13928TIP3   OH263198   0.096   3.909  14.845 -0.2401 -0.3647 -0.1026
13928TIP3    H163199   0.040   3.876  14.775  0.1122  1.4065 -1.2826
13928TIP3    H263200   0.061   3.996  14.866  1.6732  0.5436 -0.4717
13929TIP3   OH263201   0.342   0.625   5.728 -0.2652 -0.9154 -0.2725
13929TIP3    H163202   0.331   0.667   5.814  1.5681 -1.2661  0.1797
13929TIP3    H263203   0.401   0.552   5.745  1.1416 -0.2565 -2.0487
13930TIP3   OH263204   5.065   6.347  13.350  0.3509  0.0684 -0.3060
13930TIP3    H163205   5.033   6.414  13.290  0.3407  0.6197  0.3038
13930TIP3    H263206   4.990   6.290  13.366  0.7342 -0.9687 -1.9622
13931TIP3   OH263207   1.071   6.237  13.925  0.7998  0.3806 -0.2867
13931TIP3    H163208   1.100   6.183  13.998  0.0102 -1.3711 -1.2001
13931TIP3    H263209   0.985   6.270  13.952  2.1329  3.0618  1.1469
13932TIP3   OH263210   5.907   6.034  14.305  0.5574  0.1926 -0.1453
13932TIP3    H163211   5.947   5.964  14.355  1.3319  0.9986  0.3798
13932TIP3    H263212   5.965   6.046  14.230 -0.3638 -0.7102 -1.0360
13933TIP3   OH263213   1.485   6.000  15.069 -1.0447  0.2080 -0.0580
13933TIP3    H163214   1.436   6.021  15.149  1.0924  1.2138  1.0823
13933TIP3    H263215   1.557   6.063  15.068  0.4428 -1.4126 -1.4422
13934TIP3   OH263216   2.393   4.201  11.877  0.5207  0.0208  0.3485
13934TIP3    H163217   2.317   4.181  11.931  2.1144 -2.5244  1.8109
13934TIP3    H263218   2.458   4.235  11.938  0.5091  2.6450 -0.9528
13935TIP3   OH263219   0.039   3.993  15.629  0.5905 -0.0702 -0.9430
13935TIP3    H163220   0.090   3.925  15.584  0.7990 -1.9976  1.9837
13935TIP3    H263221  -0.036   3.947  15.665 -1.2152  2.0075 -1.8094
13936TIP3   OH263222   2.673   6.476   4.989 -0.1045 -0.6936 -1.1393
13936TIP3    H163223   2.633   6.562   4.979  2.3478  0.7271  0.0676
13936TIP3    H263224   2.603   6.420   5.021 -1.7071  0.9292 -1.6376
13937TIP3   OH263225   1.510   2.077  13.951 -0.0399 -0.1667  0.0413
13937TIP3    H163226   1.503   2.093  13.856 -2.5135 -1.3269 -0.0552
13937TIP3    H263227   1.604   2.083  13.969  0.5582 -0.3154 -2.5486
13938TIP3   OH263228   5.864   5.490   1.474  0.6068  0.4260 -0.8975
13938TIP3    H163229   5.835   5.509   1.385  0.0517  0.3821 -0.7358
13938TIP3    H263230   5.900   5.573   1.506 -0.4008  0.8128 -0.7219
13939TIP3   OH263231   5.114   2.131  14.623 -0.2349  0.3938  0.1219
13939TIP3    H163232   5.041   2.187  14.650  0.3469  0.9602  0.5382
13939TIP3    H263233   5.075   2.044  14.614 -0.7025  0.4228  1.6216
13940TIP3   OH263234   0.625   1.517  11.173 -0.3631  0.6995  0.4673
13940TIP3    H163235   0.666   1.431  11.181  0.9809  1.2675  0.0691
13940TIP3    H263236   0.577   1.514  11.091  0.2914  0.5503  0.0781
13941TIP3   OH263237   0.366   6.243  12.864  1.0648 -0.5407  0.3907
13941TIP3    H163238   0.299   6.216  12.801  1.2225  1.0677 -0.5094
13941TIP3    H263239   0.321   6.303  12.923  2.0985  2.2064 -1.4608
13942TIP3   OH263240   5.153   3.105  11.366  0.2088 -0.3458  0.3677
13942TIP3    H163241   5.157   3.027  11.312  4.4091  0.4940 -0.9347
13942TIP3    H263242   5.180   3.076  11.454 -0.1335 -0.6492  0.3738
13943TIP3   OH263243   3.350   4.115  12.022 -0.1127  0.2192  0.4021
13943TIP3    H163244   3.358   4.208  12.046  2.2409 -0.0376  0.9043
13943TIP3    H263245   3.317   4.073  12.102 -0.3406  0.4915  0.4545
13944TIP3   OH263246   0.126   1.556  12.981  0.3245  0.1106  0.0728
13944TIP3    H163247   0.170   1.543  13.065 -1.3267 -0.2042  0.9413
13944TIP3    H263248   0.113   1.651  12.976  0.6758  0.1582  0.0372
13945TIP3   OH263249   2.465   2.115   4.777  0.1487 -0.7317 -0.9179
13945TIP3    H163250   2.426   2.125   4.690 -0.4215  1.1831 -0.5023
13945TIP3    H263251   2.410   2.169   4.833  0.4928 -1.9523  0.6613
13946TIP3   OH263252   6.697   0.872  14.503  0.1038 -0.3902  0.3900
13946TIP3    H163253   6.759   0.919  14.447  1.1865 -0.0544  1.8135
13946TIP3    H263254   6.611   0.896  14.470  0.6875  1.0680 -0.1187
13947TIP3   OH263255   5.427   0.858  14.475 -0.1724 -0.4231  0.0419
13947TIP3    H163256   5.414   0.930  14.536 -1.0807 -0.7644  0.2745
13947TIP3    H263257   5.518   0.831  14.488 -0.5949 -1.0714  1.9062
13948TIP3   OH263258   6.636   1.274  15.756 -0.4536 -0.5870 -0.4894
13948TIP3    H163259   6.692   1.352  15.761 -1.2044 -0.0937  0.5694
13948TIP3    H263260   6.642   1.235  15.843 -0.1863 -1.6592 -0.9730
13949TIP3   OH263261   0.437   1.969  16.317 -0.0643  0.7335 -0.0576
13949TIP3    H163262   0.496   2.043  16.325  1.7882 -0.7183  0.4131
13949TIP3    H263263   0.471   1.904  16.379 -1.3448 -0.6765 -0.7657
13950TIP3   OH263264   3.448   3.843  11.427  0.1519 -0.4253 -0.0866
13950TIP3    H163265   3.479   3.903  11.359  1.0070 -1.0296 -0.2514
13950TIP3    H263266   3.527   3.799  11.458 -0.4631 -1.5878 -0.0944
13951TIP3   OH263267   3.458   0.177   1.891 -0.7488  0.5720 -0.1149
13951TIP3    H163268   3.430   0.147   1.978  0.7236  1.8854  0.8826
13951TIP3    H263269   3.549   0.205   1.904  0.2282 -1.1443 -2.5925
13952TIP3   OH263270   6.720   4.446  14.401 -0.0390 -0.0494  0.2313
13952TIP3    H163271   6.783   4.455  14.473  0.7751 -2.4471 -0.0976
13952TIP3    H263272   6.656   4.516  14.417  1.6034  1.2365  1.6918
13953TIP3   OH263273   6.380   5.808   1.898 -0.6848  0.0210 -0.1627
13953TIP3    H163274   6.444   5.744   1.930  1.7118  1.6174 -1.4945
13953TIP3    H263275   6.367   5.868   1.971  1.1831  0.9932 -0.5695
13954TIP3   OH263276   4.180   5.633  15.715 -0.3524  0.1649 -0.1429
13954TIP3    H163277   4.256   5.629  15.658 -1.0392  1.3409 -1.1918
13954TIP3    H263278   4.161   5.542  15.736  0.0288 -0.2965 -1.6589
13955TIP3   OH263279   0.726   1.409  10.803 -0.2756  0.0924 -0.7440
13955TIP3    H163280   0.638   1.377  10.823  0.2000 -1.0257 -0.4048
13955TIP3    H263281   0.761   1.346  10.740  0.2178  0.6342 -1.0195
13956TIP3   OH263282   0.862   6.264  11.394 -0.0299  0.4707 -0.4782
13956TIP3    H163283   0.950   6.271  11.358 -0.2177  0.1978 -0.9914
13956TIP3    H263284   0.863   6.181  11.442  0.0528  0.5711 -0.3028
13957TIP3   OH263285   5.424   3.874  11.738 -0.0652 -0.6998  0.2809
13957TIP3    H163286   5.331   3.854  11.723 -0.7956  2.3069  0.1092
13957TIP3    H263287   5.439   3.849  11.829 -1.2563 -0.5507  0.5311
13958TIP3   OH263288   6.089   1.736   4.489 -0.0823  0.6041  0.1467
13958TIP3    H163289   6.137   1.657   4.511  0.2504  0.7172 -0.1698
13958TIP3    H263290   6.128   1.767   4.407  1.3104  2.2998  1.3630
13959TIP3   OH263291   2.637   0.180   4.294  0.2013  0.0848  0.3347
13959TIP3    H163292   2.633   0.088   4.319 -0.2439 -0.2540 -0.9093
13959TIP3    H263293   2.727   0.207   4.315  0.3878 -0.6797  0.5348
13960TIP3   OH263294   0.062   2.891  12.440  0.2287  0.0269  0.0915
13960TIP3    H163295   0.028   2.903  12.351  1.3959 -3.1981 -0.9254
13960TIP3    H263296  -0.009   2.920  12.497  0.1202  3.9908 -1.7409
13961TIP3   OH263297   3.233   5.987   6.521 -0.1624  0.1365 -0.0996
13961TIP3    H163298   3.274   6.024   6.599  1.9791  0.4567 -1.2884
13961TIP3    H263299   3.233   6.059   6.458  1.1524 -0.9545 -1.4157
13962TIP3   OH263300   2.977   6.565  14.389  0.4692 -0.1076 -0.2959
13962TIP3    H163301   3.023   6.567  14.306  0.2158 -1.5958 -0.4874
13962TIP3    H263302   2.937   6.478  14.394 -1.2351  0.6591  0.4529
13963TIP3   OH263303   1.432   2.831   4.802 -0.9179  0.3196  0.4779
13963TIP3    H163304   1.431   2.888   4.879 -0.1294 -0.8119  1.3424
13963TIP3    H263305   1.429   2.892   4.728 -0.1143  1.4939  1.3754
13964TIP3   OH263306   1.419   4.788  15.049 -0.1377  0.3905 -0.3018
13964TIP3    H163307   1.415   4.769  14.955 -1.7195  0.9759 -0.3740
13964TIP3    H263308   1.354   4.857  15.062  1.5426  1.8421  0.8778
13965TIP3   OH263309   0.463   3.779  11.938  0.5664  0.5742  0.3377
13965TIP3    H163310   0.519   3.775  11.860 -1.4769  1.9480 -1.2847
13965TIP3    H263311   0.493   3.856  11.986 -0.9007  2.3621 -1.4280
13966TIP3   OH263312   1.826   0.547   3.066 -0.2219 -1.0285  0.2539
13966TIP3    H163313   1.737   0.551   3.030  0.5355 -0.5883 -1.6660
13966TIP3    H263314   1.856   0.638   3.066  0.8566 -1.3677 -0.8204
13967TIP3   OH263315   1.447   1.875  17.382 -0.4663 -0.2151 -0.1872
13967TIP3    H163316   1.451   1.904  17.291  0.1558  0.9141  0.1668
13967TIP3    H263317   1.491   1.946  17.431 -1.0696 -0.6468  1.0169
13968TIP3   OH263318   6.693   2.510   2.643  0.0947  0.6770 -0.2292
13968TIP3    H163319   6.693   2.605   2.656  2.4790  0.6355  0.6556
13968TIP3    H263320   6.656   2.497   2.556 -0.4078  2.3838 -0.3050
13969TIP3   OH263321   6.334   6.531  15.194 -0.2206 -0.0638 -0.9374
13969TIP3    H163322   6.335   6.595  15.265  1.9868 -0.8000 -0.2331
13969TIP3    H263323   6.260   6.557  15.139 -0.4303  2.0420  0.2505
13970TIP3   OH263324   5.698   0.294  12.869  0.0298  0.0988  0.4899
13970TIP3    H163325   5.722   0.238  12.796 -1.4115 -1.1246  0.9097
13970TIP3    H263326   5.723   0.382  12.841  2.8932 -0.7546  0.0340
13971TIP3   OH263327   6.465   5.729   3.274  0.1081 -0.3254 -0.1242
13971TIP3    H163328   6.524   5.658   3.249  0.4314 -0.6974  1.5429
13971TIP3    H263329   6.377   5.690   3.272  0.2027 -0.5443 -0.0243
13972TIP3   OH263330   3.609   5.795  12.057  0.1875  0.0357 -0.0593
13972TIP3    H163331   3.629   5.864  11.995 -1.1661  0.4055 -0.1113
13972TIP3    H263332   3.617   5.837  12.143 -0.2302  0.1543 -0.0761
13973TIP3   OH263333   4.912   3.830   1.049  0.0557  0.5321 -0.0851
13973TIP3    H163334   4.875   3.788   1.127  0.4502  1.0022  0.3683
13973TIP3    H263335   4.837   3.850   0.994  0.0066 -3.2705 -1.6460
13974TIP3   OH263336   4.557   6.666  13.396 -0.9093 -0.0329  0.2071
13974TIP3    H163337   4.559   6.742  13.453 -1.0328 -1.1158  1.7192
13974TIP3    H263338   4.463   6.646  13.386 -0.8749 -0.0298 -0.1318
13975TIP3   OH263339   2.651   2.064  12.278 -0.3098  0.9501 -0.1343
13975TIP3    H163340   2.723   2.115  12.241  0.7027  1.4023  2.3039
13975TIP3    H263341   2.616   2.118  12.348 -4.4558  1.6474 -2.3923
13976TIP3   OH263342   2.056   3.432  16.347  0.5215  0.1324 -0.5277
13976TIP3    H163343   1.969   3.397  16.367  0.9383 -1.0198 -0.6467
13976TIP3    H263344   2.045   3.479  16.264 -0.0082  0.1212 -0.4681
13977TIP3   OH263345   0.284   0.672   6.374  0.7118  0.1406  0.3684
13977TIP3    H163346   0.316   0.618   6.447  2.3544  0.1707 -0.2754
13977TIP3    H263347   0.347   0.744   6.369 -0.3773  1.1000  0.0078
13978TIP3   OH263348   6.421   6.641  13.647  0.5900  0.1909 -0.8504
13978TIP3    H163349   6.483   6.685  13.589 -0.2243  2.7664  0.0671
13978TIP3    H263350   6.446   6.671  13.735 -1.1152  0.2623 -0.3508
13979TIP3   OH263351   1.149   5.194  14.499  0.8149  0.0522 -0.0114
13979TIP3    H163352   1.212   5.124  14.513 -0.4267 -1.6950 -2.3658
13979TIP3    H263353   1.190   5.250  14.433  0.7722  0.1334  0.0305
13980TIP3   OH263354   2.029   0.694  13.915 -0.5166  0.1178 -0.1641
13980TIP3    H163355   2.072   0.617  13.877  1.6271  1.1619  0.0142
13980TIP3    H263356   2.098   0.760  13.921 -2.1057  1.8155  0.4351
13981TIP3   OH263357   0.303   3.812   0.653  0.4098 -0.1818  0.8991
13981TIP3    H163358   0.373   3.831   0.591  0.0984 -0.3951  0.4709
13981TIP3    H263359   0.309   3.718   0.668  0.0542 -0.2502  0.6489
13982TIP3   OH263360   5.367   3.090  12.429  0.3021 -0.1741 -0.0461
13982TIP3    H163361   5.415   3.127  12.355 -2.6879 -0.5000 -2.4108
13982TIP3    H263362   5.292   3.149  12.440  0.2798 -0.5670  2.2896
13983TIP3   OH263363   2.641   4.837   3.076  0.2394  0.0419  0.1447
13983TIP3    H163364   2.577   4.852   3.146 -0.3948 -0.3038 -0.3556
13983TIP3    H263365   2.614   4.896   3.005  1.3111  0.9443  0.4359
13984TIP3   OH263366   5.015   0.623  13.739  0.5507 -0.4311 -0.1286
13984TIP3    H163367   4.979   0.704  13.777  0.7943 -0.3947  0.0263
13984TIP3    H263368   5.059   0.580  13.812 -2.2177 -2.2860  0.5985
13985TIP3   OH263369   4.111   0.006  14.987  0.4014 -0.3100  0.3187
13985TIP3    H163370   4.110   0.021  15.081  0.4682  2.5985 -0.0525
13985TIP3    H263371   4.204   0.005  14.964  0.3793 -0.6172  0.2464
13986TIP3   OH263372   6.645   3.723  13.693 -0.1589  0.5453 -0.2367
13986TIP3    H163373   6.646   3.657  13.624  1.5157  0.8523 -0.5445
13986TIP3    H263374   6.726   3.772  13.681 -0.4385  1.4175  1.1812
13987TIP3   OH263375   4.282   5.399  14.996  0.4664  0.0356  0.0739
13987TIP3    H163376   4.308   5.404  14.904  1.1447  0.0744  0.2606
13987TIP3    H263377   4.235   5.316  15.004  0.0410  0.2263 -0.3939
13988TIP3   OH263378   6.727   2.493  16.932  0.1484 -0.6784 -0.2203
13988TIP3    H163379   6.642   2.535  16.922  0.3807  0.0285  0.6278
13988TIP3    H263380   6.771   2.544  17.000  0.4840 -2.2372  0.7893
13989TIP3   OH263381   1.410   4.300  14.409 -0.0415 -0.1142  0.6903
13989TIP3    H163382   1.349   4.330  14.342 -0.5715  1.2742  1.7422
13989TIP3    H263383   1.485   4.360  14.401 -1.4477  2.2750  3.3427
13990TIP3   OH263384   5.419   5.322   2.626 -0.0929  0.3175  0.3230
13990TIP3    H163385   5.408   5.412   2.596 -2.0549 -0.4157 -1.4602
13990TIP3    H263386   5.331   5.294   2.651  0.2804 -1.4103 -0.1684
13991TIP3   OH263387   1.179   6.265  11.244  0.3082  0.4727  0.3512
13991TIP3    H163388   1.219   6.262  11.157 -0.1333 -1.3573  0.1567
13991TIP3    H263389   1.207   6.182  11.285 -0.3748  0.8092  1.5377
13992TIP3   OH263390   1.827   1.577   3.213 -0.3486 -0.5071 -0.1130
13992TIP3    H163391   1.812   1.652   3.155 -0.8113 -0.6895 -0.2371
13992TIP3    H263392   1.918   1.553   3.198 -0.6525 -1.0075 -1.3133
13993TIP3   OH263393   5.050   4.525  14.365 -0.0506  0.2432  0.3252
13993TIP3    H163394   5.051   4.616  14.337 -0.5373 -0.1829 -1.1797
13993TIP3    H263395   5.010   4.527  14.452  1.2117  1.5845  0.9187
13994TIP3   OH263396   1.678   4.190   2.845 -0.2466  0.1474  0.5411
13994TIP3    H163397   1.649   4.119   2.903 -0.8255 -0.7469 -0.7798
13994TIP3    H263398   1.598   4.240   2.828 -0.2695 -0.1115 -0.1498
13995TIP3   OH263399   0.695   5.795   4.879  0.3035 -0.4026  0.2227
13995TIP3    H163400   0.740   5.841   4.809  0.5519  1.8009  1.7445
13995TIP3    H263401   0.608   5.834   4.882  1.0046  1.2228  2.5279
13996TIP3   OH263402   2.506   2.882   0.649 -0.1996 -0.3988  0.0568
13996TIP3    H163403   2.461   2.798   0.644 -0.2971 -0.3824  0.6198
13996TIP3    H263404   2.478   2.928   0.570 -1.9299 -0.0298  0.8284
13997TIP3   OH263405   1.723   1.783  15.092  0.2259 -0.4306  0.5254
13997TIP3    H163406   1.629   1.791  15.105  0.4336  1.8595  1.1359
13997TIP3    H263407   1.733   1.755  15.001 -1.0258 -0.7457  0.4726
13998TIP3   OH263408   4.983   6.267  12.507  0.1403 -0.2736  0.1222
13998TIP3    H163409   4.908   6.231  12.554  1.0931 -0.3250  1.6896
13998TIP3    H263410   4.986   6.217  12.425 -1.5178 -0.2506  0.0125
13999TIP3   OH263411   3.863   6.009  13.807  0.3342 -0.3322  0.6492
13999TIP3    H163412   3.879   5.941  13.741  0.1507 -0.8188  1.1033
13999TIP3    H263413   3.927   5.990  13.876  1.4268  0.9512  0.0510
14000TIP3   OH263414   2.294   0.226   3.991  0.2878 -0.5793  0.2076
14000TIP3    H163415   2.365   0.178   3.948  0.4462 -0.2361  0.0850
14000TIP3    H263416   2.265   0.168   4.061 -0.2112 -1.3023 -0.5828
14001TIP3   OH263417   6.596   2.070   1.635 -0.7251 -0.0843  0.3790
14001TIP3    H163418   6.622   1.997   1.690  3.6299 -0.4633 -1.7467
14001TIP3    H263419   6.579   2.142   1.696  1.8650 -1.0087  2.3648
14002TIP3   OH263420   6.233   4.466   0.296 -0.1201 -0.1467  0.2111
14002TIP3    H163421   6.214   4.469   0.390 -0.9955  0.5799  0.0185
14002TIP3    H263422   6.219   4.374   0.272  2.3443 -0.8701  1.2153
14003TIP3   OH263423   2.560   4.583  15.585  0.0797 -0.5126  0.4272
14003TIP3    H163424   2.483   4.527  15.575 -1.4423  1.3821  0.9448
14003TIP3    H263425   2.587   4.604  15.496  1.7268 -3.3204  0.1614
14004TIP3   OH263426   3.848   3.383   1.771 -0.7777  0.2924 -0.1140
14004TIP3    H163427   3.809   3.444   1.708 -0.3552 -0.2198 -0.8868
14004TIP3    H263428   3.831   3.296   1.735  0.8335  0.0370 -0.3564
14005TIP3   OH263429   4.083   3.873  13.906 -0.0074 -0.2847 -0.1688
14005TIP3    H163430   4.117   3.923  13.980 -0.0881  1.7653 -1.4527
14005TIP3    H263431   4.151   3.808  13.888  0.5852  0.0165  0.8853
14006TIP3   OH263432   6.013   2.505  12.436 -0.2361  0.0526  0.0063
14006TIP3    H163433   6.060   2.448  12.496 -0.8764 -1.4825 -0.9016
14006TIP3    H263434   6.078   2.530  12.370 -0.3113 -0.9117 -0.4530
14007TIP3   OH263435   2.410   5.040   3.820  0.0934 -0.1457  0.2488
14007TIP3    H163436   2.493   5.025   3.866  0.0982 -0.2549  0.2058
14007TIP3    H263437   2.359   5.095   3.879  0.3391  0.2322  0.1164
14008TIP3   OH263438   0.315   2.749   4.715  0.2315 -0.6424  0.6837
14008TIP3    H163439   0.342   2.665   4.678  0.8626 -0.1829  0.0914
14008TIP3    H263440   0.393   2.803   4.711 -0.0418 -0.1712  1.5151
14009TIP3   OH263441   2.145   6.210   5.788  0.2193  0.0729  0.0019
14009TIP3    H163442   2.240   6.213   5.797  0.0680  2.5731  1.7777
14009TIP3    H263443   2.127   6.264   5.711  0.1814  1.3031  0.8464
14010TIP3   OH263444   0.792   3.931  12.590  0.6136 -0.4858 -0.1692
14010TIP3    H163445   0.819   3.898  12.504  0.6331 -1.0140  0.0330
14010TIP3    H263446   0.825   4.020  12.594  4.0143 -1.6469  0.8165
14011TIP3   OH263447   2.072   1.437  14.274 -0.1863  0.3799  0.5213
14011TIP3    H163448   2.028   1.513  14.311 -2.5315 -0.2589 -0.7323
14011TIP3    H263449   2.145   1.419  14.333  0.2735  3.3958  0.9955
14012TIP3   OH263450   5.980   6.542  15.542 -0.2027  0.0087 -0.7240
14012TIP3    H163451   5.972   6.626  15.588 -0.7551  0.2829 -1.3008
14012TIP3    H263452   5.900   6.495  15.565 -0.3762  0.0577 -1.2112
14013TIP3   OH263453   5.405   2.976   3.644 -0.5855 -0.2411  0.3200
14013TIP3    H163454   5.461   2.980   3.721 -0.0776 -2.3555  0.1395
14013TIP3    H263455   5.316   2.985   3.678 -0.5069 -2.8426  1.4708
14014TIP3   OH263456   0.139   4.285   2.848 -0.1030 -0.3058 -0.0935
14014TIP3    H163457   0.195   4.209   2.863 -2.0058 -1.7743  0.0290
14014TIP3    H263458   0.063   4.250   2.801 -1.0334  1.5179 -0.0364
14015TIP3   OH263459   1.628   0.303   3.129 -0.9061  0.5742 -0.0396
14015TIP3    H163460   1.554   0.322   3.186 -0.9725  0.3211 -0.0377
14015TIP3    H263461   1.697   0.363   3.158 -0.4102 -0.5930  1.3836
14016TIP3   OH263462   3.484   6.499   1.110 -0.1211  0.0048  0.1598
14016TIP3    H163463   3.524   6.431   1.164 -0.7065 -0.1110  0.4536
14016TIP3    H263464   3.556   6.557   1.086  0.1988 -0.1431  0.7707
14017TIP3   OH263465   5.533   0.190   0.375  0.1038 -0.1497 -0.6398
14017TIP3    H163466   5.628   0.200   0.388 -0.1502  2.5646 -0.3763
14017TIP3    H263467   5.493   0.253   0.434 -1.8908 -1.0236 -0.9721
14018TIP3   OH263468   3.805   3.563  13.611  0.3043  0.2213  0.5911
14018TIP3    H163469   3.893   3.598  13.622 -0.4032  2.5293 -0.2919
14018TIP3    H263470   3.773   3.550  13.700  1.1491  0.4097  0.9317
14019TIP3   OH263471   1.200   2.546  15.726  0.2886  0.0490 -0.5948
14019TIP3    H163472   1.111   2.579  15.712  0.3934  0.6921  0.1697
14019TIP3    H263473   1.254   2.598  15.667  0.3355  0.6504 -0.0335
14020TIP3   OH263474   6.723   5.931  17.091 -0.5950  0.3173  0.2897
14020TIP3    H163475   6.743   5.889  17.175  0.6295  0.3918  0.0451
14020TIP3    H263476   6.785   6.003  17.084  0.1289 -0.4068 -1.2137
14021TIP3   OH263477   1.848   6.759  15.220 -0.1955  0.0670  0.2353
14021TIP3    H163478   1.928   6.735  15.266  0.2043  0.5416 -0.2040
14021TIP3    H263479   1.822   6.843  15.258 -0.1707  0.1890 -0.0151
14022TIP3   OH263480   4.763   2.137   2.786 -0.5311 -0.3765 -0.5010
14022TIP3    H163481   4.796   2.076   2.851 -0.9164 -0.1322 -0.0677
14022TIP3    H263482   4.717   2.204   2.837  1.1616  1.1292 -0.8340
14023TIP3   OH263483   2.028   0.285  14.354  0.0976  0.0711  1.1753
14023TIP3    H163484   2.090   0.215  14.334  1.3364  0.9888  1.6541
14023TIP3    H263485   1.955   0.271  14.293  0.7669 -1.0424  0.5967
14024TIP3   OH263486   5.762   3.869   3.553  0.4761 -0.0406  0.3959
14024TIP3    H163487   5.685   3.864   3.610 -0.7602  0.0933 -1.1985
14024TIP3    H263488   5.799   3.781   3.555 -1.2702 -0.8658 -0.8265
14025TIP3   OH263489   3.897   2.040   3.649  0.3348 -0.6143 -0.0249
14025TIP3    H163490   3.866   2.125   3.617 -1.8764 -1.9377 -1.6832
14025TIP3    H263491   3.849   1.976   3.597  0.9943 -2.9241  2.0417
14026TIP3   OH263492   1.994   3.886   5.180 -0.4888 -1.0644 -0.2555
14026TIP3    H163493   1.991   3.865   5.274  0.3850  0.2806  0.1068
14026TIP3    H263494   1.927   3.953   5.168  1.2265  0.7938  0.0181
14027TIP3   OH263495   0.239   6.509   4.563  0.6613  0.0293  1.0949
14027TIP3    H163496   0.333   6.495   4.549  0.9304  0.9016  1.9041
14027TIP3    H263497   0.213   6.568   4.491  0.6044 -0.6305  0.5632
14028TIP3   OH263498   4.177   1.813  14.979  0.1142  0.6985 -0.5617
14028TIP3    H163499   4.271   1.829  14.971  0.4002 -0.2056  0.6645
14028TIP3    H263500   4.158   1.829  15.072 -0.4476 -1.4776 -0.2495
14029TIP3   OH263501   1.150   0.725  16.644  0.1269 -0.0684  0.1506
14029TIP3    H163502   1.103   0.782  16.706 -0.1160 -1.1149  0.9542
14029TIP3    H263503   1.242   0.741  16.663  0.0717 -1.7800  2.1668
14030TIP3   OH263504   2.641   4.370   0.207  0.7416  0.3444  0.9054
14030TIP3    H163505   2.601   4.402   0.125 -0.4585 -1.6148  0.6416
14030TIP3    H263506   2.629   4.441   0.269 -1.2141  0.7026  0.1962
14031TIP3   OH263507   4.623   5.085   2.277 -0.7568 -0.0713  0.1096
14031TIP3    H163508   4.609   5.101   2.184 -2.8037  0.6972  0.5146
14031TIP3    H263509   4.542   5.112   2.320 -0.1047 -0.9748  2.0709
14032TIP3   OH263510   2.109   1.436  15.691 -0.5850  0.9411 -0.0644
14032TIP3    H163511   2.178   1.428  15.626  0.1147  2.6886  0.4064
14032TIP3    H263512   2.079   1.527  15.684 -1.7256  0.6695  0.8422
14033TIP3   OH263513   1.562   4.643   0.379  0.1008 -0.6725  0.4081
14033TIP3    H163514   1.576   4.589   0.456  1.2536 -0.7291  0.1771
14033TIP3    H263515   1.474   4.679   0.390 -0.2428 -1.6960  1.1113
14034TIP3   OH263516   4.563   5.199  15.014 -0.5163 -0.4044  0.0065
14034TIP3    H163517   4.481   5.219  14.970  0.5666  3.0024 -0.8041
14034TIP3    H263518   4.621   5.167  14.945 -0.9956 -2.4731  0.5127
14035TIP3   OH263519   3.938   2.462   5.503  0.0247 -0.2365  0.1607
14035TIP3    H163520   3.934   2.406   5.581 -1.2355 -0.0015  0.2834
14035TIP3    H263521   3.928   2.551   5.537 -0.2805 -0.1127 -0.2451
14036TIP3   OH263522   5.736   2.725   4.933 -0.2769 -0.2204  0.5073
14036TIP3    H163523   5.738   2.693   5.024 -0.0409 -0.5222  0.3963
14036TIP3    H263524   5.745   2.646   4.880 -1.1275 -0.1192  0.2044
14037TIP3   OH263525   5.438   0.442   3.724 -0.0416  0.2955 -0.4968
14037TIP3    H163526   5.475   0.367   3.677 -0.1291  1.0508 -1.8384
14037TIP3    H263527   5.398   0.404   3.802 -0.3573 -1.0922 -1.2900
14038TIP3   OH263528   1.993   0.213  16.859  0.1119 -0.4616 -0.2152
14038TIP3    H163529   2.005   0.267  16.937 -0.9520 -0.6963  0.1282
14038TIP3    H263530   1.958   0.130  16.892 -1.0076 -0.3219 -0.9842
14039TIP3   OH263531   0.157   4.541  14.598 -0.1629 -0.0341  0.0117
14039TIP3    H163532   0.200   4.624  14.620  1.2621 -0.7086 -0.0787
14039TIP3    H263533   0.110   4.516  14.678  1.2901 -0.2463  0.8376
14040TIP3   OH263534   5.067   4.135   0.239  0.0645  0.1791 -0.0924
14040TIP3    H163535   4.994   4.085   0.201  1.4267 -1.2369 -0.9318
14040TIP3    H263536   5.110   4.074   0.298  0.7332  0.9158  0.2046
14041TIP3   OH263537   0.874   3.412   1.067 -0.1011  0.6423  0.1156
14041TIP3    H163538   0.928   3.435   0.991  0.8586  0.8313  0.8376
14041TIP3    H263539   0.923   3.343   1.112  0.3565  1.8824  1.6327
14042TIP3   OH263540   6.330   0.768   1.096  0.7191 -0.0397 -0.2625
14042TIP3    H163541   6.234   0.768   1.096  0.6020 -0.7421  3.1149
14042TIP3    H263542   6.354   0.842   1.152  1.9911 -1.6108  1.3819
14043TIP3   OH263543   1.029   1.121   3.515  0.2286  0.1712  0.4265
14043TIP3    H163544   0.933   1.123   3.511  0.1171 -1.6612  1.2788
14043TIP3    H263545   1.050   1.156   3.602  0.3284  0.4851  0.2763
14044TIP3   OH263546   5.587   2.917  12.961 -0.0514 -0.3109  0.6341
14044TIP3    H163547   5.494   2.927  12.941  0.0363 -0.5113  0.1177
14044TIP3    H263548   5.602   2.823  12.959  0.4151 -0.2188 -0.4409
14045TIP3   OH263549   2.450   1.524   0.919  0.2029 -0.5968  0.2901
14045TIP3    H163550   2.516   1.484   0.864  1.9735  0.0482  1.8336
14045TIP3    H263551   2.391   1.452   0.943  0.5135 -1.2494 -0.8613
14046TIP3   OH263552   5.111   1.387  16.710 -0.0093  0.6941 -0.6571
14046TIP3    H163553   5.205   1.381  16.730 -0.4356 -1.1086  1.1674
14046TIP3    H263554   5.101   1.337  16.629  0.5438  0.4751 -0.5948
14047TIP3   OH263555   4.167   4.926   2.744 -0.0204  0.2338  0.6050
14047TIP3    H163556   4.195   4.913   2.834  0.4379 -1.4211  0.2603
14047TIP3    H263557   4.207   5.010   2.719  0.0749  0.5769  1.8335
14048TIP3   OH263558   3.259   2.449   4.892 -0.4813 -0.6071 -0.5844
14048TIP3    H163559   3.315   2.372   4.903 -0.4769 -0.2347  4.7734
14048TIP3    H263560   3.193   2.441   4.962 -1.6446  3.3072 -0.9783
14049TIP3   OH263561   6.289   6.366   3.933 -0.6184 -0.3017  0.2633
14049TIP3    H163562   6.382   6.369   3.910 -0.6209 -0.3009  0.2532
14049TIP3    H263563   6.273   6.447   3.981 -0.3353 -0.8514  1.3213
14050TIP3   OH263564   4.608   3.748   3.519  0.3120  0.3019  0.3417
14050TIP3    H163565   4.536   3.806   3.542 -2.4707 -3.1359  1.1741
14050TIP3    H263566   4.643   3.784   3.437 -1.3138  2.9308  0.6820
14051TIP3   OH263567   2.127   6.117  12.650 -0.2262  0.3963  0.2487
14051TIP3    H163568   2.115   6.212  12.651 -0.9630  0.3373 -1.1504
14051TIP3    H263569   2.166   6.098  12.735  2.1950  2.2256 -0.3079
14052TIP3   OH263570   6.507   5.020  12.188 -0.4406 -0.0677  0.6976
14052TIP3    H163571   6.415   4.995  12.200 -0.2950 -0.0676  1.9887
14052TIP3    H263572   6.555   4.937  12.190 -0.4506 -0.1063 -0.4606
14053TIP3   OH263573   6.066   0.988   3.350  0.1551  0.2565  0.4233
14053TIP3    H163574   5.976   1.014   3.329 -0.0554  0.4744  1.5515
14053TIP3    H263575   6.115   1.006   3.270 -1.0962 -1.4221 -0.7822
14054TIP3   OH263576   6.159   0.452  15.175 -0.1613 -0.3110 -0.1194
14054TIP3    H163577   6.153   0.521  15.110  1.0826 -1.7538 -1.8582
14054TIP3    H263578   6.070   0.415  15.179 -0.0853 -0.7044 -1.6039
14055TIP3   OH263579   3.148   0.395  12.161 -0.2655 -0.0933 -0.7924
14055TIP3    H163580   3.190   0.310  12.175  2.6755  1.2406 -0.9040
14055TIP3    H263581   3.090   0.380  12.086 -0.0153 -2.0455 -0.6571
14056TIP3   OH263582   3.331   5.930  17.022 -0.4755 -0.2080 -0.0997
14056TIP3    H163583   3.271   6.004  17.032 -2.2192 -1.4164 -0.9383
14056TIP3    H263584   3.274   5.853  17.028  1.2041 -1.4818  0.3086
14057TIP3   OH263585   5.300   3.599   0.083 -0.1075 -0.7692  0.4178
14057TIP3    H163586   5.205   3.599   0.095 -0.2821  1.2306 -0.4003
14057TIP3    H263587   5.313   3.652   0.003  1.6613 -1.4770  0.1977
14058TIP3   OH263588   5.302   2.826  16.219 -0.1347 -0.6532  0.2513
14058TIP3    H163589   5.369   2.871  16.169 -2.8298  0.4535 -2.6998
14058TIP3    H263590   5.288   2.881  16.297 -1.0211  1.9631 -1.6133
14059TIP3   OH263591   1.461   4.868  11.380 -0.4971 -0.2602 -0.0137
14059TIP3    H163592   1.526   4.848  11.447  0.1617  0.3981 -0.4454
14059TIP3    H263593   1.393   4.917  11.427  0.5459  1.2739 -0.0370
14060TIP3   OH263594   3.076   1.134   2.901 -0.0748  0.1379 -0.4409
14060TIP3    H163595   3.026   1.064   2.942 -0.0304 -1.0484 -2.2994
14060TIP3    H263596   3.148   1.152   2.962 -1.3952  0.2517  1.1646
14061TIP3   OH263597   5.104   0.085  16.371 -1.2268 -0.2569  0.2204
14061TIP3    H163598   5.179   0.026  16.378 -1.0351 -0.1225 -0.5757
14061TIP3    H263599   5.114   0.145  16.445 -1.7627 -1.5785  1.3926
14062TIP3   OH263600   5.191   1.399  11.841  0.2105  0.2173 -0.1633
14062TIP3    H163601   5.199   1.305  11.830  0.8826  0.4412 -1.8524
14062TIP3    H263602   5.278   1.428  11.868  0.2822  0.4730 -0.6569
14063TIP3   OH263603   3.108   4.053   6.364 -0.0922  0.0710 -0.8700
14063TIP3    H163604   3.167   4.120   6.396  0.5782 -0.2466 -1.4099
14063TIP3    H263605   3.027   4.100   6.342  0.4429  0.7408 -1.4496
14064TIP3   OH263606   3.136   2.847   0.304 -0.2570 -0.5246  0.3195
14064TIP3    H163607   3.068   2.803   0.252  0.2787  1.2649 -2.0770
14064TIP3    H263608   3.103   2.844   0.393 -2.6847 -1.1966 -0.5096
14065TIP3   OH263609   4.282   3.871  16.078  0.2981  0.2193  0.3203
14065TIP3    H163610   4.349   3.828  16.026 -1.9275 -0.3232 -2.3480
14065TIP3    H263611   4.279   3.960  16.045 -0.3517  0.2129  0.3417
14066TIP3   OH263612   2.913   2.385   2.726 -0.0444  0.1146 -0.1074
14066TIP3    H163613   2.969   2.463   2.727 -1.0162  1.1156  4.9523
14066TIP3    H263614   2.951   2.327   2.791 -2.0716 -1.4551 -0.2058
14067TIP3   OH263615   3.839   1.053  12.174  0.0559 -0.7928  0.2829
14067TIP3    H163616   3.863   1.137  12.213  0.2961 -1.1123  0.8493
14067TIP3    H263617   3.920   1.001  12.179 -0.0626 -1.0195 -0.1505
14068TIP3   OH263618   5.144   3.322   2.392 -0.0553  0.2936 -0.3266
14068TIP3    H163619   5.112   3.410   2.375  0.1444  0.8539  1.8903
14068TIP3    H263620   5.230   3.319   2.352 -0.2152  0.9822 -0.7349
14069TIP3   OH263621   0.462   1.935   1.245  0.7651 -0.9271  0.7049
14069TIP3    H163622   0.468   1.846   1.209  1.8191 -0.5522 -0.0783
14069TIP3    H263623   0.533   1.983   1.203  0.6432  0.1124  1.6465
14070TIP3   OH263624   1.174   3.150   5.826 -0.2959  0.2231  0.6937
14070TIP3    H163625   1.109   3.136   5.757 -0.5312 -0.5862  1.0753
14070TIP3    H263626   1.221   3.229   5.798 -0.6125  0.1039 -0.2228
14071TIP3   OH263627   1.373   5.365   5.284  0.8619  0.4810  0.2054
14071TIP3    H163628   1.384   5.425   5.209  1.6250 -0.4328 -0.4395
14071TIP3    H263629   1.321   5.293   5.249 -2.1882  1.8244  1.6188
14072TIP3   OH263630   0.141   0.077  15.744 -0.1203 -0.1247  0.8259
14072TIP3    H163631   0.209   0.061  15.809 -1.4623 -1.5833  1.9391
14072TIP3    H263632   0.060   0.084  15.794 -1.2214 -1.3929 -0.6477
14073TIP3   OH263633   5.809   3.747   1.471  0.2640 -0.1377  0.1968
14073TIP3    H163634   5.745   3.675   1.465 -1.3555  1.2220  0.2306
14073TIP3    H263635   5.791   3.801   1.393  0.9506  0.6095  0.5457
14074TIP3   OH263636   2.338   4.931   5.269  0.4395  0.1562  0.2407
14074TIP3    H163637   2.275   4.968   5.207 -0.2040 -1.7185 -0.3242
14074TIP3    H263638   2.283   4.884   5.332  1.2032  0.1187  0.8896
14075TIP3   OH263639   3.120   1.249  13.694 -0.1574 -0.2630  0.0635
14075TIP3    H163640   3.061   1.322  13.712 -0.9729 -1.1145  0.9661
14075TIP3    H263641   3.205   1.279  13.727 -0.4769  0.2722  0.4234
14076TIP3   OH263642   3.907   2.406   0.659  0.4189  0.3519  0.8254
14076TIP3    H163643   3.882   2.316   0.680  1.2360 -0.4013 -1.1560
14076TIP3    H263644   3.827   2.446   0.625  0.1762  0.2216  1.2409
14077TIP3   OH263645   3.653   0.413   1.156  0.9817  0.2805 -0.1315
14077TIP3    H163646   3.619   0.358   1.228  1.6563  0.6670  0.5011
14077TIP3    H263647   3.743   0.383   1.145  1.6209  1.7413  0.7458
14078TIP3   OH263648   5.862   0.734  13.079  0.1105 -0.0368  0.2434
14078TIP3    H163649   5.946   0.770  13.051  0.2079  0.1558  0.7865
14078TIP3    H263650   5.803   0.809  13.084  0.0216 -0.1099  0.3049
14079TIP3   OH263651   3.090   6.350  16.062 -0.2822  0.6573 -0.2041
14079TIP3    H163652   3.003   6.312  16.076 -0.3136  0.4709 -0.8729
14079TIP3    H263653   3.151   6.278  16.080 -0.3634  0.0752 -2.0758
14080TIP3   OH263654   6.031   2.872   2.836 -0.1464 -0.0300  0.2669
14080TIP3    H163655   6.000   2.858   2.926  0.6414 -0.2244  0.5162
14080TIP3    H263656   5.978   2.813   2.783 -1.8368  1.3440  0.3582
14081TIP3   OH263657   0.286   4.719  16.094 -0.9840  0.0745 -0.3375
14081TIP3    H163658   0.208   4.767  16.121 -1.8948 -1.4742 -0.0565
14081TIP3    H263659   0.252   4.634  16.064  0.3719  0.2747 -2.6221
14082TIP3   OH263660   1.188   4.272   2.492  0.0969  0.1542  0.2473
14082TIP3    H163661   1.254   4.210   2.461 -0.1040 -0.0243  0.1778
14082TIP3    H263662   1.150   4.230   2.569  1.1440  0.9388  1.2285
14083TIP3   OH263663   0.739   5.733   3.796  0.2021  0.3284  0.2957
14083TIP3    H163664   0.742   5.750   3.702 -0.9149  0.0512  0.1982
14083TIP3    H263665   0.671   5.792   3.829 -1.4289 -1.5378  0.4584
14084TIP3   OH263666   0.205   5.349   5.316  0.0357 -0.1488  0.4306
14084TIP3    H163667   0.175   5.399   5.392 -0.0297  1.3872 -0.5742
14084TIP3    H263668   0.155   5.383   5.243 -0.0295 -1.7333 -0.3012
14085TIP3   OH263669   3.062   6.502  12.005 -0.1426 -0.1993  0.2298
14085TIP3    H163670   3.007   6.502  11.926  0.6590 -0.6687 -0.3564
14085TIP3    H263671   3.152   6.508  11.971  0.3139 -1.9295  1.0027
14086TIP3   OH263672   2.309   5.712  17.190  0.4703 -0.2093 -0.6916
14086TIP3    H163673   2.284   5.652  17.119  0.8715 -1.2272  0.0068
14086TIP3    H263674   2.402   5.728  17.176  0.3527  0.3175 -0.9098
14087TIP3   OH263675   2.536   6.629   3.973 -0.0928 -0.3390 -0.0496
14087TIP3    H163676   2.553   6.571   4.047  2.1127 -4.1229 -3.1876
14087TIP3    H263677   2.613   6.686   3.970  1.0516 -1.8634 -0.7839
14088TIP3   OH263678   2.130   1.593   3.761  0.1781  0.8065  0.3855
14088TIP3    H163679   2.094   1.668   3.807 -0.7838  0.3733  0.3593
14088TIP3    H263680   2.169   1.539   3.830 -1.3656  0.0994  0.7426
14089TIP3   OH263681   4.772   0.347  13.827 -0.4966 -0.3514 -0.3520
14089TIP3    H163682   4.762   0.317  13.737 -2.0487 -1.4880  0.1463
14089TIP3    H263683   4.718   0.287  13.878  1.4116 -0.5945  1.5191
14090TIP3   OH263684   2.606   5.258  10.780  0.0506  0.7405  0.2439
14090TIP3    H163685   2.521   5.262  10.736  0.2947 -1.1326 -0.5119
14090TIP3    H263686   2.601   5.178  10.833  1.4298  0.4128 -0.0688
14091TIP3   OH263687   5.546   6.371  14.482  0.1296  0.0018 -0.0624
14091TIP3    H163688   5.470   6.316  14.498 -0.4332  0.7558 -0.0588
14091TIP3    H263689   5.574   6.349  14.393 -0.0398 -0.3486 -0.0279
14092TIP3   OH263690   5.813   5.513   2.203 -0.0962  0.1844  0.6661
14092TIP3    H163691   5.772   5.584   2.153 -0.3550 -0.8180 -0.6299
14092TIP3    H263692   5.907   5.529   2.196 -0.1843  1.1079  1.4988
14093TIP3   OH263693   2.624   6.429  10.833  0.2019  0.4892  0.1569
14093TIP3    H163694   2.643   6.459  10.744  0.8786 -0.4389 -0.0252
14093TIP3    H263695   2.665   6.494  10.889  2.1462 -0.3530 -0.2321
14094TIP3   OH263696   2.792   3.579  17.187  0.1829  0.1620 -0.0755
14094TIP3    H163697   2.851   3.569  17.112  1.5857 -0.0735  1.0226
14094TIP3    H263698   2.710   3.540  17.157  0.5900  0.4119 -1.6182
14095TIP3   OH263699   0.913   3.956  13.320  0.1513 -0.0852  0.5290
14095TIP3    H163700   0.875   3.902  13.389 -0.6612  0.5809  0.6210
14095TIP3    H263701   0.990   3.908  13.291 -0.2061 -0.9794  1.0362
14096TIP3   OH263702   5.428   1.561   5.879 -0.8786 -0.2024 -0.0648
14096TIP3    H163703   5.425   1.522   5.966  4.2642  0.3073  0.6639
14096TIP3    H263704   5.396   1.650   5.892  0.7518  0.1954  1.6839
14097TIP3   OH263705   2.593   3.656   5.340  0.1786 -0.8164  0.3308
14097TIP3    H163706   2.664   3.645   5.403  2.6507 -0.0982 -2.1393
14097TIP3    H263707   2.570   3.567   5.314 -0.6062 -1.1037  1.8611
14098TIP3   OH263708   2.275   4.555   1.098 -0.0148 -0.8404  0.0589
14098TIP3    H163709   2.359   4.588   1.131 -0.1221 -1.0175  0.5036
14098TIP3    H263710   2.211   4.621   1.125  0.0110 -0.5918 -0.4751
14099TIP3   OH263711   5.661   4.467   2.361  0.1672 -0.2990 -0.4444
14099TIP3    H163712   5.688   4.465   2.269 -2.0692 -1.8616 -1.1616
14099TIP3    H263713   5.583   4.523   2.361 -1.0712 -1.9395  0.0494
14100TIP3   OH263714   3.598   5.471  12.878 -0.2440  0.3596 -0.1454
14100TIP3    H163715   3.650   5.534  12.928 -0.0486  0.1611 -0.1000
14100TIP3    H263716   3.507   5.491  12.903 -0.1542  0.3371  0.2064
14101TIP3   OH263717   1.189   5.700   3.801 -0.3179  0.0468  0.1092
14101TIP3    H163718   1.146   5.615   3.789 -0.7160  0.1601  0.6583
14101TIP3    H263719   1.269   5.694   3.749 -0.9246 -0.2214 -0.8146
14102TIP3   OH263720   5.616   4.039  12.065  0.1973  0.1563  0.2780
14102TIP3    H163721   5.686   3.981  12.095 -0.9398 -0.6400  1.5634
14102TIP3    H263722   5.622   4.038  11.970  1.7073 -0.1547  0.3591
14103TIP3   OH263723   1.079   5.305   1.135  0.0261  0.1977 -0.1665
14103TIP3    H163724   1.074   5.395   1.101  0.7204  0.2209 -0.2081
14103TIP3    H263725   1.020   5.255   1.077 -0.8010  0.7188  0.1959
14104TIP3   OH263726   5.684   0.495   4.926  0.1183 -0.5567 -0.5181
14104TIP3    H163727   5.652   0.455   5.007 -0.1998  1.0703  0.1796
14104TIP3    H263728   5.614   0.478   4.862  1.1047 -3.3688 -1.0151
14105TIP3   OH263729   4.862   2.015  15.993  0.6336 -0.3258 -0.1496
14105TIP3    H163730   4.873   2.038  16.085  0.9105 -0.5463 -0.1287
14105TIP3    H263731   4.843   2.098  15.950  1.7025 -0.0388 -0.0831
14106TIP3   OH263732   1.961   6.089   2.614  0.0167 -0.2607 -0.4691
14106TIP3    H163733   2.048   6.129   2.606 -1.0121  2.2806 -0.0922
14106TIP3    H263734   1.939   6.061   2.525  1.4455 -1.5483 -0.4510
14107TIP3   OH263735   2.306   3.263  13.876  0.0482 -0.1087 -0.0440
14107TIP3    H163736   2.400   3.261  13.858 -0.0300 -0.9004 -0.4021
14107TIP3    H263737   2.298   3.238  13.968  0.1727 -0.2546 -0.0736
14108TIP3   OH263738   4.233   3.867  10.469 -0.2755 -0.4915 -0.0911
14108TIP3    H163739   4.310   3.812  10.485 -0.8656 -1.2380  0.2333
14108TIP3    H263740   4.269   3.953  10.446  0.6460 -0.6355  0.7660
14109TIP3   OH263741   1.163   0.659  11.241 -0.3939  0.0022 -0.8987
14109TIP3    H163742   1.221   0.584  11.253  0.1102  0.4516 -0.4716
14109TIP3    H263743   1.214   0.722  11.190 -0.0984  0.8374  0.3870
14110TIP3   OH263744   6.343   6.745  13.002 -0.6537 -0.6545 -0.5818
14110TIP3    H163745   6.428   6.727  12.961 -0.4002 -0.0423 -0.3322
14110TIP3    H263746   6.342   6.688  13.079 -0.2786 -0.3482 -0.3455
14111TIP3   OH263747   4.277   6.044  16.369 -0.0042 -0.3119  0.0973
14111TIP3    H163748   4.249   6.117  16.424  0.3726 -0.2250  0.1708
14111TIP3    H263749   4.254   6.071  16.280  1.2687  0.4416 -0.0247
14112TIP3   OH263750   1.689   4.810   4.582  1.3082 -0.5971 -0.0136
14112TIP3    H163751   1.663   4.765   4.501 -1.9063  1.4851 -0.3059
14112TIP3    H263752   1.703   4.900   4.555  0.3514  0.1067  1.7221
14113TIP3   OH263753   4.553   3.272  17.307  0.1202 -0.5247 -0.4539
14113TIP3    H163754   4.608   3.331  17.256  0.5649 -0.7068 -0.1865
14113TIP3    H263755   4.613   3.228  17.367 -0.5373  0.6624  1.1657
14114TIP3   OH263756   6.395   2.519  16.114 -0.0416 -0.4830  0.8565
14114TIP3    H163757   6.346   2.490  16.191  1.3625 -0.3541  1.8450
14114TIP3    H263758   6.468   2.568  16.150 -0.0089  0.6229 -0.6322
14115TIP3   OH263759   0.315   0.048  16.048  0.5436 -0.1684 -0.6438
14115TIP3    H163760   0.234   0.015  16.086 -0.8998  1.5199 -2.0197
14115TIP3    H263761   0.382  -0.017  16.070 -0.8674 -0.9050  1.7630
14116TIP3   OH263762   6.114   5.426   0.348 -0.3833 -0.3728  0.3416
14116TIP3    H163763   6.075   5.393   0.429  0.5829  1.5971  1.7018
14116TIP3    H263764   6.160   5.351   0.311 -0.4084 -1.2059  1.9062
14117TIP3   OH263765   5.710   2.559   0.046  0.4858  0.5137  0.0959
14117TIP3    H163766   5.696   2.465   0.058 -0.7380  0.5376 -0.8466
14117TIP3    H263767   5.673   2.599   0.124  0.2351  0.2442  0.1177
14118TIP3   OH263768   3.236   2.644  15.904  0.2200 -0.6528 -0.3419
14118TIP3    H163769   3.330   2.660  15.894  0.4570 -1.4429  0.5524
14118TIP3    H263770   3.195   2.705  15.842  1.1483  2.2455  1.6785
14119TIP3   OH263771   4.198   0.297  10.859 -0.1822 -0.5867  0.3578
14119TIP3    H163772   4.208   0.335  10.773  1.6176 -2.2881 -0.2689
14119TIP3    H263773   4.103   0.284  10.870 -0.5826  1.4136 -0.5023
14120TIP3   OH263774   2.394   0.393  14.116  0.4273 -0.2351  0.5369
14120TIP3    H163775   2.344   0.388  14.034 -0.0411 -0.9376  0.8546
14120TIP3    H263776   2.475   0.439  14.092 -0.5224  1.2831  0.0968
14121TIP3   OH263777   5.992   0.215   5.168 -0.0832 -0.4036 -0.3428
14121TIP3    H163778   6.059   0.177   5.111 -0.6517 -1.0695 -0.5814
14121TIP3    H263779   5.911   0.207   5.118 -0.4158 -0.0039  0.1208
14122TIP3   OH263780   5.983   4.597   4.759 -0.1427 -0.4008 -0.5455
14122TIP3    H163781   5.939   4.651   4.825  0.4875 -1.7897  1.0969
14122TIP3    H263782   5.913   4.567   4.701 -0.8079  0.3855 -0.1694
14123TIP3   OH263783   6.706   6.443   5.085  0.0473 -0.3024 -0.0361
14123TIP3    H163784   6.706   6.398   5.170  0.6593 -1.0722 -0.4271
14123TIP3    H263785   6.767   6.516   5.097  1.1736 -1.1872 -0.1844
14124TIP3   OH263786   1.733   5.996  12.487  0.3559 -0.6588  0.3829
14124TIP3    H163787   1.691   5.971  12.404  1.8336  1.8206 -1.2548
14124TIP3    H263788   1.803   5.931  12.498  0.3862 -0.8070 -0.5516
14125TIP3   OH263789   4.315   5.381   1.770 -0.3601  0.3764 -0.1059
14125TIP3    H163790   4.271   5.410   1.690 -1.7230 -0.0666  0.4512
14125TIP3    H263791   4.255   5.317   1.809  0.6974 -0.1061  0.7998
14126TIP3   OH263792   3.368   4.670   0.151  0.7152  0.0633  0.1732
14126TIP3    H163793   3.274   4.685   0.163  0.1744 -2.1598 -0.8256
14126TIP3    H263794   3.375   4.577   0.132  3.1151  0.2473 -0.1059
14127TIP3   OH263795   3.514   3.990   4.792  0.0131 -0.0625 -0.0628
14127TIP3    H163796   3.567   3.937   4.732  1.3658  0.1300  0.9247
14127TIP3    H263797   3.453   3.928   4.831  0.3732 -0.5503 -0.2662
14128TIP3   OH263798   2.240   1.301  12.314 -0.4548 -0.4624 -0.1005
14128TIP3    H163799   2.284   1.221  12.341  0.3071 -0.4765 -1.2822
14128TIP3    H263800   2.276   1.319  12.227 -0.6627  1.1214  0.1127
14129TIP3   OH263801   3.598   1.440   4.007 -0.6140  0.1417 -0.4187
14129TIP3    H163802   3.616   1.506   3.940  0.5972 -1.1608 -1.4191
14129TIP3    H263803   3.582   1.359   3.958 -1.3096 -0.5028  0.8128
14130TIP3   OH263804   2.420   6.195   1.176 -0.2332  0.3698 -0.2325
14130TIP3    H163805   2.431   6.100   1.175 -0.4915  0.3434 -0.5271
14130TIP3    H263806   2.362   6.212   1.250  1.7462  0.5136  1.3858
14131TIP3   OH263807   3.032   6.462  12.794 -0.3929  0.2287 -0.0204
14131TIP3    H163808   3.120   6.473  12.758 -0.6360  1.1853 -0.3751
14131TIP3    H263809   3.005   6.375  12.766 -0.2736  0.6428 -1.5492
14132TIP3   OH263810   3.863   1.461   3.741  0.0962  0.6674  0.8721
14132TIP3    H163811   3.788   1.417   3.782  0.7917 -0.4858  0.9615
14132TIP3    H263812   3.826   1.540   3.701 -0.7295  1.5400  3.1832
14133TIP3   OH263813   5.364   2.489   2.234 -0.1255 -0.3420  0.0793
14133TIP3    H163814   5.455   2.490   2.204 -0.0560  0.9211  0.2711
14133TIP3    H263815   5.314   2.454   2.160  0.3614  0.2327 -0.5343
14134TIP3   OH263816   4.083   3.163  14.390 -0.0516 -0.5519  0.0693
14134TIP3    H163817   4.110   3.233  14.332 -2.1926  0.9901  0.7949
14134TIP3    H263818   4.130   3.180  14.472  1.0670 -1.2620 -0.4104
14135TIP3   OH263819   3.546   1.200  16.187 -0.1542 -0.1393  0.0770
14135TIP3    H163820   3.518   1.145  16.114 -0.2399 -0.9517  0.6972
14135TIP3    H263821   3.639   1.181  16.197  0.4242  1.7103 -1.2638
14136TIP3   OH263822   1.155   2.471  12.290 -0.0232 -0.1511 -0.1809
14136TIP3    H163823   1.093   2.437  12.225 -0.7924  0.7022  0.0831
14136TIP3    H263824   1.156   2.404  12.359 -0.1934 -0.4581 -0.4720
14137TIP3   OH263825   0.476   0.697   5.100  0.2867 -0.2122  0.5684
14137TIP3    H163826   0.535   0.752   5.048  0.4928 -0.1917  0.8203
14137TIP3    H263827   0.419   0.655   5.035  1.7972 -1.6981  0.1238
14138TIP3   OH263828   0.299   0.920  14.061 -0.1504 -0.0089 -0.4174
14138TIP3    H163829   0.356   0.945  14.133 -1.1197 -0.7640  0.6409
14138TIP3    H263830   0.275   1.002  14.018  0.1645  0.4741  0.3249
14139TIP3   OH263831   2.570   3.398   4.628 -0.5253  0.4429 -0.1672
14139TIP3    H163832   2.609   3.414   4.714  2.0690 -2.0091 -0.7177
14139TIP3    H263833   2.500   3.335   4.644 -0.8798  0.9404  0.2635
14140TIP3   OH263834   1.958   1.843   4.561  0.3280  0.1215  0.0024
14140TIP3    H163835   1.923   1.831   4.473  1.9017 -1.4673 -0.4558
14140TIP3    H263836   1.907   1.783   4.615 -0.1824  0.6089  0.0813
14141TIP3   OH263837   3.986   0.185   0.322 -0.2349 -0.0586 -0.3975
14141TIP3    H163838   3.979   0.204   0.229  1.1236 -0.6549 -0.6474
14141TIP3    H263839   3.996   0.271   0.364  0.0329  0.1566 -0.8956
14142TIP3   OH263840   3.914   3.938  12.980 -0.2967  0.8702  0.2074
14142TIP3    H163841   3.988   3.956  13.038  0.7243 -0.6580 -0.5532
14142TIP3    H263842   3.837   3.951  13.035  0.6027  0.7259  1.5514
14143TIP3   OH263843   2.516   6.326   3.539 -0.2517  0.0812  0.1954
14143TIP3    H163844   2.578   6.315   3.610 -0.7874  0.6633  0.7705
14143TIP3    H263845   2.545   6.265   3.471 -0.6868 -1.7083  1.5522
14144TIP3   OH263846   6.620   4.069  11.381  0.0949 -0.3368  0.0482
14144TIP3    H163847   6.682   4.053  11.452 -0.8062 -2.5813  0.4289
14144TIP3    H263848   6.556   4.130  11.418  0.4897 -0.2623  0.6154
14145TIP3   OH263849   3.121   1.139  12.264 -0.7466  0.6200 -0.3029
14145TIP3    H163850   3.071   1.209  12.306 -1.2616 -0.3930  0.8094
14145TIP3    H263851   3.209   1.148  12.301 -0.9719  0.2914  0.3217
14146TIP3   OH263852   2.815   1.675  12.767 -0.0099  0.5319  0.0588
14146TIP3    H163853   2.793   1.715  12.852 -2.1240 -0.7913  0.1868
14146TIP3    H263854   2.870   1.600  12.790 -1.8683 -0.7842  0.4923
14147TIP3   OH263855   2.273   6.330   3.371  0.4078  0.1111 -0.0776
14147TIP3    H163856   2.241   6.240   3.365 -0.3777  0.3769 -0.0092
14147TIP3    H263857   2.335   6.328   3.444  1.1022 -0.5679 -0.6707
14148TIP3   OH263858   4.540   3.803  16.819 -0.0116 -0.6724  0.1571
14148TIP3    H163859   4.496   3.888  16.813  1.1842 -0.0531 -0.1667
14148TIP3    H263860   4.619   3.821  16.871  1.2532 -1.1402 -1.5293
14149TIP3   OH263861   6.536   1.596   1.631  0.1289 -0.2876  0.6530
14149TIP3    H163862   6.501   1.508   1.641 -1.2037  0.1742  0.2350
14149TIP3    H263863   6.600   1.589   1.559  0.1930 -0.9470  0.7757
14150TIP3   OH263864   6.349   5.538  15.281  0.0766 -0.0965 -0.0391
14150TIP3    H163865   6.409   5.464  15.280 -1.1662 -1.1511 -0.0732
14150TIP3    H263866   6.302   5.530  15.364 -0.8758 -0.0413 -0.5540
14151TIP3   OH263867   1.496   0.900  12.580 -0.4712  0.4108  0.0821
14151TIP3    H163868   1.544   0.955  12.641 -1.4159  1.5274 -0.1530
14151TIP3    H263869   1.524   0.929  12.493 -2.3480  1.8681 -0.0912
14152TIP3   OH263870   1.334   4.480   3.672  0.4591  0.2427 -0.0503
14152TIP3    H163871   1.286   4.487   3.754  0.4788 -2.0215  0.2160
14152TIP3    H263872   1.406   4.420   3.691  0.8455  0.1642 -1.5579
14153TIP3   OH263873   2.302   3.880  17.003  0.5050 -0.3144 -0.7822
14153TIP3    H163874   2.320   3.964  16.960 -1.3164 -0.9028 -2.8961
14153TIP3    H263875   2.218   3.894  17.047  0.4583 -0.8657 -0.6904
14154TIP3   OH263876   4.578   2.819   3.089  0.3433 -0.2279 -0.4652
14154TIP3    H163877   4.629   2.790   3.164  1.1350  1.2407 -0.4074
14154TIP3    H263878   4.636   2.806   3.014  0.8642  1.4568 -0.3977
14155TIP3   OH263879   4.565   1.744   3.951 -0.1399 -0.1471 -0.2155
14155TIP3    H163880   4.493   1.728   3.890 -1.1392  1.8626  0.3539
14155TIP3    H263881   4.607   1.824   3.919  0.4178 -0.0321  0.7477
14156TIP3   OH263882   6.161   3.930   0.840  0.2108  0.1260 -0.1684
14156TIP3    H163883   6.197   3.932   0.929 -1.0928  1.6570  0.3796
14156TIP3    H263884   6.107   4.009   0.834 -1.8625 -1.2682 -1.4008
14157TIP3   OH263885   1.712   1.607   4.558  0.6246  0.1679 -0.2356
14157TIP3    H163886   1.801   1.576   4.539  0.7072  1.4381 -2.2208
14157TIP3    H263887   1.659   1.572   4.487  0.2505  2.3234 -1.0963
14158TIP3   OH263888   1.945   4.074  12.851  0.2659 -0.1827 -0.1859
14158TIP3    H163889   2.011   4.020  12.895  0.2450  0.6196  0.8712
14158TIP3    H263890   1.863   4.048  12.892  0.1507  0.0608 -0.2619
14159TIP3   OH263891   2.400   1.689  14.242 -0.1768 -0.2011 -0.0664
14159TIP3    H163892   2.334   1.741  14.195  1.8675  1.7044 -1.0113
14159TIP3    H263893   2.462   1.662  14.174  0.3485 -1.4620  0.8800
14160TIP3   OH263894   5.049   0.997  13.264 -0.1017 -0.3104 -0.4412
14160TIP3    H163895   5.129   0.953  13.237 -0.3441 -1.8963  1.2418
14160TIP3    H263896   4.979   0.934  13.244 -0.6094 -0.1318  0.6741
14161TIP3   OH263897   2.536   5.402   1.064  0.3279  0.4541 -0.4569
14161TIP3    H163898   2.596   5.456   1.013  0.6465 -0.1797 -0.7695
14161TIP3    H263899   2.586   5.322   1.082 -0.6772 -0.3944 -1.3592
14162TIP3   OH263900   6.729   5.381   2.876  0.4030 -0.2979  0.3943
14162TIP3    H163901   6.787   5.323   2.926  0.9943 -1.4378 -1.5197
14162TIP3    H263902   6.775   5.395   2.793 -0.3760  1.8408  0.2555
14163TIP3   OH263903   2.264   1.189   4.059 -0.7164 -0.4182  0.7940
14163TIP3    H163904   2.334   1.226   4.113 -0.2735 -0.7897  0.4835
14163TIP3    H263905   2.306   1.119   4.009 -1.4284 -1.0420  1.0294
14164TIP3   OH263906   0.472   1.388   2.156  0.6172 -0.1344 -0.4432
14164TIP3    H163907   0.504   1.347   2.236 -0.3671 -0.6268 -0.2923
14164TIP3    H263908   0.428   1.317   2.109  2.8571 -0.3690 -2.3810
14165TIP3   OH263909   4.466   3.753   0.139 -0.2747  0.1555  0.0709
14165TIP3    H163910   4.387   3.740   0.086 -0.5925  1.2959  0.2557
14165TIP3    H263911   4.458   3.841   0.175  1.5961  0.7507 -0.7913
14166TIP3   OH263912   4.847   5.850   4.915 -0.0170  0.0515  0.3953
14166TIP3    H163913   4.757   5.847   4.947 -1.0602 -1.1796 -2.3389
14166TIP3    H263914   4.856   5.938   4.879 -0.3059 -0.0037  0.1854
14167TIP3   OH263915   0.994   5.353   4.657 -0.0954 -0.4949  0.1930
14167TIP3    H163916   1.055   5.358   4.583 -0.4988 -3.1788 -0.4333
14167TIP3    H263917   0.914   5.396   4.625  0.5750  0.6873  0.0553
14168TIP3   OH263918   2.576   1.823   1.985 -0.9332  0.0650 -1.0369
14168TIP3    H163919   2.668   1.798   1.980 -0.3738  1.9551 -0.9082
14168TIP3    H263920   2.532   1.746   2.022  0.7229 -0.5539 -0.2721
14169TIP3   OH263921   0.651   6.191  14.444  0.5597 -0.3795 -0.0804
14169TIP3    H163922   0.578   6.242  14.477  0.6350 -0.4330  0.1687
14169TIP3    H263923   0.717   6.195  14.513  0.1489 -1.7174  0.4206
14170TIP3   OH263924   6.311   1.762  15.588  0.5976 -0.2934 -0.1113
14170TIP3    H163925   6.340   1.847  15.555  0.0793 -0.2948 -0.5852
14170TIP3    H263926   6.386   1.728  15.637  0.2801  1.1392  1.4433
14171TIP3   OH263927   1.460   1.756  16.222 -1.1663  0.0463 -0.4098
14171TIP3    H163928   1.372   1.746  16.185 -0.9444 -1.3033 -0.6165
14171TIP3    H263929   1.444   1.775  16.315 -1.7058 -2.1388  0.0017
14172TIP3   OH263930   1.108   5.343  16.388 -0.5019 -0.0584  0.4261
14172TIP3    H163931   1.027   5.293  16.393 -0.6992  0.1573 -0.5654
14172TIP3    H263932   1.089   5.416  16.329  0.8549 -0.8970 -1.1557
14173TIP3   OH263933   1.179   0.138   6.431  0.2620 -0.4561  0.4934
14173TIP3    H163934   1.209   0.117   6.343  2.3110 -1.3998  1.3561
14173TIP3    H263935   1.243   0.097   6.489 -0.0299  1.6106  2.4198
14174TIP3   OH263936   0.765   5.409   1.629 -0.1458  0.5750  0.5672
14174TIP3    H163937   0.792   5.323   1.596  1.8477  0.0379  3.2950
14174TIP3    H263938   0.694   5.435   1.570 -0.8835 -2.9258 -0.3779
14175TIP3   OH263939   4.464   1.911   5.938  0.7663 -0.0899  0.2830
14175TIP3    H163940   4.426   1.916   6.025  1.5760 -0.0191  0.6422
14175TIP3    H263941   4.524   1.985   5.933 -0.4192  0.8572 -0.9262
14176TIP3   OH263942   3.717   0.114  16.864 -0.6238  0.1578 -0.0016
14176TIP3    H163943   3.738   0.137  16.774  0.3375 -1.9190 -0.3780
14176TIP3    H263944   3.689   0.196  16.905 -1.9908  0.9831 -2.4128
14177TIP3   OH263945   3.198   0.172  16.652 -0.5567  0.7958 -0.4872
14177TIP3    H163946   3.154   0.238  16.599 -2.4223 -0.6939 -0.9379
14177TIP3    H263947   3.194   0.093  16.598  3.3835  0.6602 -0.8453
14178TIP3   OH263948   3.707   3.239   3.298  0.0560  0.1468  0.0363
14178TIP3    H163949   3.765   3.259   3.225 -1.1575 -1.9960 -1.6212
14178TIP3    H263950   3.765   3.210   3.368  1.1333  0.6235 -0.6370
14179TIP3   OH263951   0.112   4.785  12.966 -0.3958 -0.0777 -0.1289
14179TIP3    H163952   0.089   4.873  12.936 -1.2695 -0.1444  0.3177
14179TIP3    H263953   0.160   4.801  13.048 -2.3743 -0.0592  1.0888
14180TIP3   OH263954   0.581   2.781  10.718  0.0189 -0.2683 -0.2701
14180TIP3    H163955   0.491   2.801  10.741 -0.2437 -1.1892 -0.4338
14180TIP3    H263956   0.629   2.863  10.730 -0.9547  0.3841 -0.7779
14181TIP3   OH263957   2.476   6.322  17.074  0.0973 -0.4229  0.0451
14181TIP3    H163958   2.526   6.339  17.154  1.6312 -2.1577 -0.4748
14181TIP3    H263959   2.417   6.397  17.066  1.6134  1.0028  1.4904
14182TIP3   OH263960   2.907   0.396  17.126 -0.6255  0.1046 -0.1935
14182TIP3    H163961   2.924   0.356  17.041 -1.7816  0.0517 -0.4123
14182TIP3    H263962   2.856   0.475  17.106 -0.0141  0.6634  0.3800
14183TIP3   OH263963   6.465   1.539   1.977  0.1104  0.4257  0.6304
14183TIP3    H163964   6.498   1.482   2.046  1.0969 -1.1761 -1.0512
14183TIP3    H263965   6.390   1.492   1.940 -0.3873  1.2423  0.5793
14184TIP3   OH263966   3.676   4.488  14.443 -0.0478  0.2175  0.0985
14184TIP3    H163967   3.752   4.431  14.452 -0.2908 -0.2841 -0.8725
14184TIP3    H263968   3.714   4.574  14.424  0.2876 -0.0014 -0.2481
14185TIP3   OH263969   2.441   1.223  11.019 -0.2173 -0.2249 -1.1340
14185TIP3    H163970   2.490   1.301  10.989 -1.7109  0.6090 -1.5145
14185TIP3    H263971   2.424   1.240  11.111  1.6347 -1.3255 -0.5291
14186TIP3   OH263972   4.267   1.434  12.535  0.6327  0.2848 -0.1858
14186TIP3    H163973   4.272   1.441  12.630  2.4165 -1.5704 -0.0722
14186TIP3    H263974   4.306   1.349  12.515 -3.3564 -1.3401 -2.2920
14187TIP3   OH263975   6.088   3.889   2.564 -0.2995  0.2936 -0.0770
14187TIP3    H163976   6.002   3.847   2.560 -0.9524  1.6944 -2.1023
14187TIP3    H263977   6.133   3.860   2.485  1.4098 -0.9335  1.2687
14188TIP3   OH263978   3.306   0.299  14.198  0.1319  0.1313 -0.4338
14188TIP3    H163979   3.337   0.279  14.110  0.4450 -0.3564 -0.2181
14188TIP3    H263980   3.345   0.231  14.253 -1.8415 -0.9218 -0.2448
14189TIP3   OH263981   4.423   5.566  12.853  0.1509 -0.0304 -0.0519
14189TIP3    H163982   4.373   5.545  12.774  1.9195 -0.4675 -1.0855
14189TIP3    H263983   4.447   5.480  12.890 -1.0797  0.1524  1.2838
14190TIP3   OH263984   3.146   5.574  13.606  0.3899 -0.1645  0.0507
14190TIP3    H163985   3.136   5.669  13.596 -1.4263 -0.3553 -0.2938
14190TIP3    H263986   3.193   5.563  13.688  0.2370  1.0204  0.3162
14191TIP3   OH263987   5.047   1.585   5.292 -0.2038  0.3431  0.0459
14191TIP3    H163988   4.992   1.521   5.248 -0.3591  1.9366 -2.2403
14191TIP3    H263989   4.986   1.655   5.317  0.1316  0.1374  1.5313
14192TIP3   OH263990   3.169   2.768   3.366 -0.6167  0.2205 -0.2918
14192TIP3    H163991   3.091   2.824   3.376  0.2203  1.2379  0.8369
14192TIP3    H263992   3.142   2.684   3.404 -1.8698 -0.1970 -1.9540
14193TIP3   OH263993   6.662   2.996   1.849  0.2462 -0.5236 -0.1087
14193TIP3    H163994   6.676   2.906   1.879  0.5109  0.1470  1.9311
14193TIP3    H263995   6.748   3.026   1.821  0.4597 -0.4361  0.6246
14194TIP3   OH263996   2.126   4.797  15.631 -0.3228 -0.5363  0.1745
14194TIP3    H163997   2.219   4.812  15.649 -0.6651 -0.6717  2.3405
14194TIP3    H263998   2.096   4.877  15.589  0.8632 -0.6898 -1.0145
14195TIP3   OH263999   5.984   0.779  17.296 -0.2489 -0.1650  0.2153
14195TIP3    H164000   6.040   0.818  17.229  0.6596 -0.6129  0.6928
14195TIP3    H264001   5.918   0.731  17.247  1.3392 -1.8300 -0.4174
14196TIP3   OH264002   5.239   0.021   5.833 -0.0813  0.4140  0.7389
14196TIP3    H164003   5.153  -0.021   5.832  0.0814  0.0864  0.1243
14196TIP3    H264004   5.292  -0.035   5.890 -0.0121  0.0776  0.3479
14197TIP3   OH264005   5.532   2.856   0.770  0.3706 -0.0480 -0.1091
14197TIP3    H164006   5.548   2.946   0.743  2.1254 -0.1723  0.3733
14197TIP3    H264007   5.508   2.863   0.862 -0.5051 -0.0131 -0.3320
14198TIP3   OH264008   5.482   5.714   0.778 -0.1394  0.5202  0.0617
14198TIP3    H164009   5.409   5.705   0.716  0.0128  0.5694 -0.1245
14198TIP3    H264010   5.535   5.636   0.763  0.1893  0.8016 -0.2542
14199TIP3   OH264011   6.555   3.932   1.370  0.1991  0.5098  0.0644
14199TIP3    H164012   6.644   3.968   1.370  0.8571 -1.0281  0.0309
14199TIP3    H264013   6.568   3.837   1.367 -1.4598  0.2739 -1.9812
14200TIP3   OH264014   2.196   2.615  11.450 -0.0127 -0.7156  0.1341
14200TIP3    H164015   2.237   2.562  11.382  1.3532 -0.3740  0.6504
14200TIP3    H264016   2.270   2.651  11.500 -0.9661 -0.8855  1.7397
14201TIP3   OH264017   6.544   5.244  16.487  0.1607  0.1438  0.8411
14201TIP3    H164018   6.522   5.207  16.401  4.1896  1.6229 -1.0998
14201TIP3    H264019   6.560   5.169  16.542 -1.2992 -0.8604 -0.0249
14202TIP3   OH264020   2.904   4.279  16.953  0.0314 -0.3655  0.0776
14202TIP3    H164021   2.829   4.310  16.902  0.8294  1.7062  0.0728
14202TIP3    H264022   2.901   4.183  16.944 -1.7503 -0.2512 -1.1045
14203TIP3   OH264023   1.532   0.205  15.751  0.5582 -0.1179  0.0966
14203TIP3    H164024   1.598   0.136  15.741  0.7380  0.2147 -1.3172
14203TIP3    H264025   1.454   0.169  15.708 -0.4944 -0.8404  2.4696
14204TIP3   OH264026   5.202   2.654  16.517 -0.0289  0.0195  0.6169
14204TIP3    H164027   5.176   2.622  16.430 -0.3115 -1.5110  1.2331
14204TIP3    H264028   5.121   2.652  16.568  0.3999 -0.3930  1.2876
14205TIP3   OH264029   2.005   4.487   1.216  0.3223 -0.0423 -0.6283
14205TIP3    H164030   2.078   4.436   1.251 -1.1019 -0.7645  1.4921
14205TIP3    H264031   1.965   4.429   1.151  0.0890 -0.7282  0.1048
14206TIP3   OH264032   5.961   3.489  14.779  0.7259 -0.6429 -0.1381
14206TIP3    H164033   6.021   3.494  14.854  1.5614 -2.2632 -0.6538
14206TIP3    H264034   6.006   3.535  14.709  0.5409 -0.2912 -0.0290
14207TIP3   OH264035   2.032   1.036   3.084  0.3197  0.3369 -0.1915
14207TIP3    H164036   2.054   0.943   3.087 -0.0771  0.2617  0.8209
14207TIP3    H264037   2.024   1.061   3.176  0.3902  1.3675 -0.4568
14208TIP3   OH264038   1.509   1.425   0.326 -0.8073 -0.3907 -0.2120
14208TIP3    H164039   1.485   1.507   0.284  0.5196  0.0482 -0.1741
14208TIP3    H264040   1.459   1.423   0.407  0.0443  0.9844  0.3728
14209TIP3   OH264041   1.776   2.609  17.202 -0.2196 -0.2650 -0.2113
14209TIP3    H164042   1.747   2.535  17.254 -0.5903 -0.8949 -1.2813
14209TIP3    H264043   1.704   2.672  17.208  0.3184  0.2619  1.1291
14210TIP3   OH264044   3.946   6.275  12.108  0.1841  0.3379  0.2008
14210TIP3    H164045   3.868   6.299  12.058  0.5197  2.0761  0.4568
14210TIP3    H264046   4.018   6.288  12.046  0.3276 -0.8943  0.0843
14211TIP3   OH264047   4.061   2.443   6.008  0.1073 -0.3433  0.4055
14211TIP3    H164048   4.013   2.436   6.091  0.1198  1.5298  0.6276
14211TIP3    H264049   4.134   2.502   6.027  0.4751 -0.3797 -0.7910
14212TIP3   OH264050   4.819   1.864  14.878  0.0751  0.0644 -0.0093
14212TIP3    H164051   4.795   1.904  14.795 -0.2939 -1.7040 -0.7887
14212TIP3    H264052   4.755   1.794  14.891 -1.2825  1.6637  2.9043
14213TIP3   OH264053   6.713   0.575   1.424 -0.6074  0.3700  0.0978
14213TIP3    H164054   6.728   0.489   1.463  0.5133  0.6204  0.2696
14213TIP3    H264055   6.618   0.586   1.425 -0.6507  0.1734  2.3409
14214TIP3   OH264056   0.359   0.896  11.665 -0.8094  0.6162 -0.0793
14214TIP3    H164057   0.263   0.896  11.664 -0.8270  1.3767  0.2991
14214TIP3    H264058   0.382   0.809  11.699 -1.3198 -0.0584 -1.3823
14215TIP3   OH264059   2.694   2.686  16.268 -0.2531 -0.1822 -0.0829
14215TIP3    H164060   2.704   2.743  16.192  0.0343 -0.4243 -0.2262
14215TIP3    H264061   2.782   2.655  16.288 -0.2954  0.0400  0.4769
14216TIP3   OH264062   3.416   2.085   1.426 -0.1812  0.1115 -0.7007
14216TIP3    H164063   3.367   2.127   1.355 -1.1974  2.5395  1.3028
14216TIP3    H264064   3.472   2.154   1.462  2.1785 -1.7027 -0.6469
14217TIP3   OH264065   1.204   1.347   5.344 -0.0389  0.4351  0.8436
14217TIP3    H164066   1.168   1.285   5.408 -1.3795  0.8666  0.5466
14217TIP3    H264067   1.160   1.325   5.262  0.8080  0.6344  0.3257
14218TIP3   OH264068   3.654   2.678   4.020  0.4840 -0.7766  0.2353
14218TIP3    H164069   3.667   2.700   4.112  1.1798  1.3031 -0.3015
14218TIP3    H264070   3.569   2.717   3.998  0.3060 -1.2922 -0.0027
14219TIP3   OH264071   2.429   2.232  13.908  0.2441 -0.1369 -0.0106
14219TIP3    H164072   2.445   2.138  13.913 -1.1902 -0.4840 -1.1507
14219TIP3    H264073   2.336   2.239  13.886  0.2791  1.5618  0.2332
14220TIP3   OH264074   2.935   0.757  14.909 -0.0365  0.0625  0.3478
14220TIP3    H164075   3.003   0.746  14.975 -0.3148  1.9395  1.0221
14220TIP3    H264076   2.955   0.693  14.842  0.7035 -1.3973  1.8866
14221TIP3   OH264077   3.738   4.040  15.249  0.0306  0.4486 -0.1369
14221TIP3    H164078   3.676   4.088  15.303 -1.1831 -0.4695 -0.6618
14221TIP3    H264079   3.768   4.104  15.184  0.4719  1.1875  0.7810
14222TIP3   OH264080   3.063   3.724   4.967 -0.1374 -0.4304  0.3613
14222TIP3    H164081   2.983   3.677   4.992 -0.9406  1.0314  0.6504
14222TIP3    H264082   3.113   3.660   4.915 -1.0208 -1.6931  1.0061
14223TIP3   OH264083   5.329   6.674   2.585 -0.1049 -0.1581 -0.2386
14223TIP3    H164084   5.407   6.667   2.640 -0.6549  1.1969  0.7548
14223TIP3    H264085   5.355   6.734   2.515 -0.0879 -0.1753 -0.2473
14224TIP3   OH264086   2.460   4.120   5.366 -0.1155  0.4885  0.4128
14224TIP3    H164087   2.470   4.140   5.273 -1.8858  0.7093  0.2371
14224TIP3    H264088   2.481   4.202   5.410 -1.8853  1.2137  0.0119
14225TIP3   OH264089   3.043   2.725   4.176  0.1310 -0.2557  0.1469
14225TIP3    H164090   2.956   2.765   4.177  1.1828  2.2983  1.5258
14225TIP3    H264091   3.041   2.661   4.247 -0.3112  0.6889  1.0223
14226TIP3   OH264092   5.513   6.562  11.291  0.1550  0.1859 -0.1399
14226TIP3    H164093   5.479   6.475  11.269  1.4145  0.1455 -2.1929
14226TIP3    H264094   5.473   6.620  11.226  2.8932  0.3297 -1.8404
14227TIP3   OH264095   1.520   3.103  15.546 -0.2263  0.3112  0.0039
14227TIP3    H164096   1.480   3.020  15.572  0.5319 -0.0155  0.1568
14227TIP3    H264097   1.572   3.082  15.468 -1.0632  0.9188 -0.7381
14228TIP3   OH264098   4.237   2.349  13.934 -0.0341  0.2855 -0.2550
14228TIP3    H164099   4.311   2.293  13.958  0.9789  1.5385 -0.3691
14228TIP3    H264100   4.276   2.420  13.883 -1.4942  0.2727 -1.4854
14229TIP3   OH264101   4.684   1.759  11.660 -0.0401  0.5834 -0.4542
14229TIP3    H164102   4.757   1.749  11.598 -0.7759  1.0659 -1.4334
14229TIP3    H264103   4.658   1.670  11.682  0.2705  0.4062 -0.7986
14230TIP3   OH264104   3.674   2.847  13.154  0.2457  0.2464  0.4435
14230TIP3    H164105   3.627   2.930  13.150  1.0822  0.7013 -1.8684
14230TIP3    H264106   3.639   2.795  13.082  1.0958 -0.6375  0.6319
14231TIP3   OH264107   5.748   5.928   4.019  1.3179 -0.3778 -0.5036
14231TIP3    H164108   5.837   5.961   4.026  1.2472  1.3247 -4.7531
14231TIP3    H264109   5.750   5.866   3.947 -0.6913 -1.4633  0.2931
14232TIP3   OH264110   3.210   2.795  14.833 -0.3464 -0.8011 -0.0703
14232TIP3    H164111   3.285   2.794  14.773 -0.7142  2.8592 -0.8298
14232TIP3    H264112   3.139   2.755  14.783  0.3653 -1.5551 -0.4890
14233TIP3   OH264113   1.233   6.440  10.757 -0.4620  0.2421  0.4715
14233TIP3    H164114   1.246   6.386  10.679 -1.9840  1.4125 -0.6594
14233TIP3    H264115   1.311   6.424  10.810  0.9355 -0.1358 -1.5681
14234TIP3   OH264116   4.221   3.988  13.593 -0.0258  0.2830  0.2262
14234TIP3    H164117   4.233   4.006  13.499 -0.0969  0.8938  0.3302
14234TIP3    H264118   4.245   3.896  13.603  0.3112  0.3056 -0.3350
14235TIP3   OH264119   3.377   6.341   4.439  0.1635 -0.3591  0.0573
14235TIP3    H164120   3.349   6.341   4.530 -0.8278 -0.4700 -0.2372
14235TIP3    H264121   3.338   6.419   4.401 -0.0967 -0.7390 -0.4704
14236TIP3   OH264122   2.678   1.855   2.746 -0.3522 -0.3531 -0.4490
14236TIP3    H164123   2.587   1.827   2.737 -0.1578 -2.0558  1.9143
14236TIP3    H264124   2.680   1.941   2.706 -2.5500 -1.0285 -2.2496
14237TIP3   OH264125   5.055   1.178  10.606 -0.0496  0.7284 -0.1515
14237TIP3    H164126   4.965   1.172  10.575  0.3864  0.8841 -1.5144
14237TIP3    H264127   5.083   1.087  10.614 -0.7076  0.6328  1.5479
14238TIP3   OH264128   0.326   2.909   2.559  0.0363 -0.2762 -0.1209
14238TIP3    H164129   0.231   2.921   2.568  0.1066  0.1261  0.1256
14238TIP3    H264130   0.356   2.991   2.520  0.6697  0.8938  2.5654
14239TIP3   OH264131   0.477   3.406  15.561 -0.4026  0.3810  0.4869
14239TIP3    H164132   0.479   3.318  15.597  0.1850  0.7413  1.3550
14239TIP3    H264133   0.394   3.444  15.591 -1.2650 -0.2854 -0.9369
14240TIP3   OH264134   1.699   3.904  16.079 -0.4224  0.4812 -0.7517
14240TIP3    H164135   1.673   3.993  16.106  1.8367  1.0556 -0.2329
14240TIP3    H264136   1.755   3.918  16.003 -0.0218 -0.4967 -0.6424
14241TIP3   OH264137   4.134   4.992  17.304  0.2283  0.0214  0.4658
14241TIP3    H164138   4.089   4.913  17.274 -1.1541  1.1417 -0.5660
14241TIP3    H264139   4.225   4.980  17.277 -0.2759 -0.5744 -1.0674
14242TIP3   OH264140   1.936   5.013  17.153  0.3267 -0.7613 -0.1021
14242TIP3    H164141   2.005   5.064  17.111 -1.2778  1.0187 -0.7275
14242TIP3    H264142   1.970   4.994  17.241  0.3202  3.1544  0.9452
14243TIP3   OH264143   2.382   3.697  12.500 -0.2298  0.3553 -0.1667
14243TIP3    H164144   2.393   3.790  12.478 -0.1355  0.4620  0.3297
14243TIP3    H264145   2.287   3.683  12.499 -0.1919 -0.0720 -2.4032
14244TIP3   OH264146   2.782   2.941   2.283 -0.2796  0.0151  0.1371
14244TIP3    H164147   2.748   2.990   2.358  0.8852  0.3808  0.4524
14244TIP3    H264148   2.864   2.987   2.260  0.5219 -1.4084  0.0550
14245TIP3   OH264149   2.742   6.545   1.538 -0.3052  0.3694  0.5757
14245TIP3    H164150   2.704   6.533   1.451 -1.4701 -1.3191  1.2759
14245TIP3    H264151   2.828   6.583   1.520  0.2359 -1.5403 -1.4797
14246TIP3   OH264152   3.748   1.965   2.842 -0.0359  0.1349  0.0791
14246TIP3    H164153   3.739   2.054   2.807  1.3327  0.6524  0.9377
14246TIP3    H264154   3.827   1.931   2.801 -0.4018 -0.5948 -0.0296
14247TIP3   OH264155   0.827   3.025   5.007  0.1153  0.1008  0.3598
14247TIP3    H164156   0.766   3.021   4.934 -0.2334 -0.7699  0.6825
14247TIP3    H264157   0.835   2.934   5.037  2.4816 -0.0091 -0.4037
14248TIP3   OH264158   6.232   4.976  13.230 -0.1833 -0.0999  0.2299
14248TIP3    H164159   6.328   4.985  13.233 -0.1372 -0.7456  1.1877
14248TIP3    H264160   6.211   4.925  13.308 -1.2050 -0.9174 -0.5600
14249TIP3   OH264161   3.357   0.487   3.485  0.1168 -0.1567 -0.3125
14249TIP3    H164162   3.270   0.496   3.446 -0.9067 -1.4664  1.5318
14249TIP3    H264163   3.374   0.393   3.482  0.4446 -0.1800  1.3797
14250TIP3   OH264164   5.823   2.447   1.907  0.3444 -0.3396  0.4489
14250TIP3    H164165   5.816   2.485   1.819 -2.5245  0.9966  1.1431
14250TIP3    H264166   5.796   2.356   1.895  1.8825 -0.7330 -0.3201
14251TIP3   OH264167   3.834   3.683   4.178  0.3945  0.1456 -0.0397
14251TIP3    H164168   3.796   3.595   4.185 -0.6845  0.6677  1.1255
14251TIP3    H264169   3.916   3.670   4.131 -0.2673 -1.3314 -0.8692
14252TIP3   OH264170   4.164   6.174   1.451 -0.5039 -0.0531 -0.5823
14252TIP3    H164171   4.196   6.086   1.434 -0.6814 -0.1066 -0.6333
14252TIP3    H264172   4.074   6.162   1.480 -0.6847  0.1479 -1.0604
14253TIP3   OH264173   3.404   2.015   5.222  0.2047  0.3009  0.2277
14253TIP3    H164174   3.375   1.995   5.311  1.6087  0.9455  0.8569
14253TIP3    H264175   3.406   2.111   5.219 -0.2318  0.2891 -0.6396
14254TIP3   OH264176   3.366   6.639   4.347 -0.5253  0.0856  0.6443
14254TIP3    H164177   3.419   6.702   4.396  0.4102  1.2991 -1.7919
14254TIP3    H264178   3.428   6.595   4.289 -1.8367  0.1208 -0.8528
14255TIP3   OH264179   2.958   3.858   1.620  0.2724 -0.0656 -0.4319
14255TIP3    H164180   2.906   3.798   1.567  0.9165  0.2848 -1.4954
14255TIP3    H264181   3.048   3.843   1.592  0.4814  1.1268 -0.4532
14256TIP3   OH264182   1.799   0.767  12.012  0.0105 -0.5748 -0.1318
14256TIP3    H164183   1.748   0.704  11.961 -1.6897  0.9541 -0.4254
14256TIP3    H264184   1.865   0.799  11.951  0.9295 -2.0786  0.0405
14257TIP3   OH264185   1.396   5.419   3.335  0.5316 -0.5999 -0.2639
14257TIP3    H164186   1.354   5.470   3.266 -0.1417 -2.3057 -1.1629
14257TIP3    H264187   1.476   5.468   3.356  0.1412  0.5680 -1.3856
14258TIP3   OH264188   3.366   4.287  13.098  0.7584  0.4731  0.2691
14258TIP3    H164189   3.395   4.347  13.167 -1.5645  0.2099  1.5360
14258TIP3    H264190   3.411   4.205  13.117 -0.6796  0.0724  2.1944
14259TIP3   OH264191   1.026   4.728  13.090  0.1658 -0.5994 -0.4851
14259TIP3    H164192   0.983   4.672  13.155  0.7085 -1.1201 -0.5725
14259TIP3    H264193   1.078   4.790  13.142 -1.0002  0.3148 -0.3610
14260TIP3   OH264194   3.860   4.130  12.431  0.6626 -0.2946 -0.1741
14260TIP3    H164195   3.933   4.187  12.455  0.3820 -0.1326  0.3104
14260TIP3    H264196   3.799   4.136  12.505 -0.2098  0.1970 -0.9111
14261TIP3   OH264197   5.035   2.023  13.510  0.4598 -0.7450 -0.2190
14261TIP3    H164198   5.024   1.989  13.422 -1.2221  0.4739 -0.5183
14261TIP3    H264199   5.046   2.117  13.498  1.1795 -0.6752  0.8308
14262TIP3   OH264200   6.672   0.433  17.016  0.6709 -0.4183 -0.5485
14262TIP3    H164201   6.692   0.395  16.931 -0.0360 -0.6727 -0.6133
14262TIP3    H264202   6.596   0.383  17.046  0.9382 -0.3573  0.2469
14263TIP3   OH264203   5.182   4.731  11.809  0.3824 -0.3719  0.1224
14263TIP3    H164204   5.172   4.805  11.869  0.5935  0.8471 -1.2984
14263TIP3    H264205   5.255   4.680  11.845  0.7410  0.5353  0.6985
14264TIP3   OH264206   0.509   0.078   0.176 -0.0348 -0.0938  0.0066
14264TIP3    H164207   0.446   0.149   0.187 -0.1250 -0.4752  2.4393
14264TIP3    H264208   0.455  -0.001   0.171  0.1762 -0.3917  1.7958
14265TIP3   OH264209   3.582   1.452   0.011 -0.4494  0.2260  0.0878
14265TIP3    H164210   3.518   1.513   0.048 -1.2282 -0.6429  0.2133
14265TIP3    H264211   3.549   1.433  -0.077  2.1670  3.4360 -1.7920
14266TIP3   OH264212   5.788   5.049  11.731  0.0517  0.3583  0.1758
14266TIP3    H164213   5.866   5.034  11.677  1.4379 -0.8098  2.3717
14266TIP3    H264214   5.716   5.014  11.678  1.4327 -1.3916 -0.6633
14267TIP3   OH264215   2.962   5.883  11.224 -0.2476  0.6069  0.0855
14267TIP3    H164216   3.045   5.925  11.203  0.2130 -0.3837 -0.1156
14267TIP3    H264217   2.898   5.929  11.170 -0.1255  2.4628  1.4324
14268TIP3   OH264218   3.848   1.850   0.059 -0.3224  0.2990 -0.4259
14268TIP3    H164219   3.765   1.886   0.091 -1.6897 -1.2650 -1.9776
14268TIP3    H264220   3.829   1.757   0.045  1.6101 -0.0231 -1.2000
14269TIP3   OH264221   0.498   5.544  13.111 -0.7819 -0.4858  0.7628
14269TIP3    H164222   0.554   5.618  13.133 -0.0809 -0.8567  0.2790
14269TIP3    H264223   0.559   5.477  13.080 -1.6720  0.3265 -3.2670
14270TIP3   OH264224   2.494   6.549   1.784 -0.0035 -0.1276 -0.0728
14270TIP3    H164225   2.401   6.537   1.806  0.2392  1.3885  2.2051
14270TIP3    H264226   2.500   6.640   1.755  0.6875 -0.3870 -0.7551
14271TIP3   OH264227   5.733   4.740  13.537  0.5108  0.0762  0.6630
14271TIP3    H164228   5.788   4.731  13.460  0.1241 -0.8939  0.4927
14271TIP3    H264229   5.765   4.820  13.580  1.4099  0.0488  0.0692
14272TIP3   OH264230   1.430   6.289  14.760  0.4261 -0.1751  0.3041
14272TIP3    H164231   1.467   6.331  14.682  1.6038 -2.7284 -0.6297
14272TIP3    H264232   1.494   6.306  14.829  2.2370 -2.3753 -0.6824
14273TIP3   OH264233   1.198   2.980  13.290 -0.0906 -0.0471  0.0185
14273TIP3    H164234   1.289   3.008  13.296  0.2549 -1.0609 -0.3109
14273TIP3    H264235   1.170   2.971  13.382 -0.4294  1.9607  0.1528
14274TIP3   OH264236   1.840   0.004   2.437  0.4779  0.2484 -0.1292
14274TIP3    H164237   1.900   0.077   2.425 -0.0418  0.3023 -3.3328
14274TIP3    H264238   1.896  -0.074   2.438  0.7831  0.4622 -0.5501
14275TIP3   OH264239   0.747   6.114   0.641  0.0223 -0.0639  0.0340
14275TIP3    H164240   0.781   6.070   0.563 -1.3387 -1.7375  0.3138
14275TIP3    H264241   0.815   6.102   0.707  1.3238  1.6392 -0.9404
14276TIP3   OH264242   3.777   6.341   1.855 -0.3343  0.5285  0.3805
14276TIP3    H164243   3.858   6.386   1.879 -0.2531  0.9602 -0.6565
14276TIP3    H264244   3.803   6.279   1.787 -0.6146 -0.4452  1.1274
14277TIP3   OH264245   5.190   1.671  11.353 -0.1280 -0.3753  0.3867
14277TIP3    H164246   5.263   1.679  11.291  0.2790  0.6328  0.9687
14277TIP3    H264247   5.112   1.668  11.298  0.0891  2.0742 -0.2004
14278TIP3   OH264248   2.560   1.692  15.528  0.5614  0.0403 -0.5777
14278TIP3    H164249   2.651   1.663  15.520  0.9601  1.0325  0.1662
14278TIP3    H264250   2.556   1.773  15.477 -0.0429 -0.2742 -1.0390
14279TIP3   OH264251   4.785   0.226  13.248  0.0279  0.5901  0.3472
14279TIP3    H164252   4.842   0.150  13.256  1.6349  1.6782 -0.2918
14279TIP3    H264253   4.804   0.263  13.162  0.6149  2.6960  1.2928
14280TIP3   OH264254   2.211   0.704   1.982 -0.3749  0.3379 -0.4826
14280TIP3    H164255   2.134   0.669   1.938 -0.5143  0.9672 -0.7440
14280TIP3    H264256   2.250   0.764   1.918  1.3628 -1.3355 -1.0838
14281TIP3   OH264257   1.186   0.061  13.827  0.6949 -0.8101  0.4417
14281TIP3    H164258   1.209   0.124  13.759  2.5806 -1.1090  0.7512
14281TIP3    H264259   1.230  -0.020  13.802  0.5844 -1.2148  1.4782
14282TIP3   OH264260   4.905   1.827   2.183  0.0810 -0.3621  0.2785
14282TIP3    H164261   4.896   1.744   2.230 -0.1946 -0.7359 -0.4206
14282TIP3    H264262   4.817   1.865   2.184  0.6569  1.1414  2.7420
14283TIP3   OH264263   1.553   5.298  14.831  0.6191  0.4981  0.3364
14283TIP3    H164264   1.645   5.321  14.821  0.6854  0.1056  0.0155
14283TIP3    H264265   1.524   5.275  14.742  0.3057  0.2925  0.4875
14284TIP3   OH264266   0.269   1.382  15.105  0.0181 -0.1822 -0.1169
14284TIP3    H164267   0.235   1.470  15.125 -0.2195 -0.0099 -1.1840
14284TIP3    H264268   0.191   1.332  15.079  0.2165 -0.5805  0.0503
14285TIP3   OH264269   6.083   1.891  11.733  0.4336 -0.0883  0.8343
14285TIP3    H164270   6.036   1.836  11.670 -2.2625  0.6885  2.0363
14285TIP3    H264271   6.175   1.878  11.711 -0.1870 -3.0598 -0.5785
14286TIP3   OH264272   5.342   0.440   3.111 -0.5104  0.3963  0.6592
14286TIP3    H164273   5.397   0.469   3.185  1.4382 -1.9345  0.2317
14286TIP3    H264274   5.270   0.393   3.152  0.9806 -1.5740  1.1434
14287TIP3   OH264275   1.057   5.711   1.480 -0.5598  0.1686 -0.7692
14287TIP3    H164276   1.061   5.760   1.563  1.2498  0.5713 -1.0512
14287TIP3    H264277   0.966   5.719   1.452 -0.5628  2.5944 -0.3240
14288TIP3   OH264278   4.054   0.890   4.081  0.1653  0.0772 -0.2583
14288TIP3    H164279   3.988   0.831   4.045  0.3532  0.9465 -2.0916
14288TIP3    H264280   4.028   0.977   4.051  0.5050  0.8346  1.4968
14289TIP3   OH264281   0.856   3.807  15.920 -0.0421  0.3435 -0.4094
14289TIP3    H164282   0.846   3.896  15.953 -0.7801 -0.3271  1.3279
14289TIP3    H264283   0.780   3.793  15.864  0.5359  1.0773 -1.4027
14290TIP3   OH264284   1.271   6.590  16.977  0.6646 -0.4384 -0.2983
14290TIP3    H164285   1.310   6.580  16.890  1.7003 -0.2877  0.1261
14290TIP3    H264286   1.306   6.673  17.010  1.7343 -1.3345  0.9570
14291TIP3   OH264287   0.199   5.699  14.578  0.2380 -0.3167 -0.1888
14291TIP3    H164288   0.192   5.794  14.565 -0.6598 -0.2597  0.5719
14291TIP3    H264289   0.147   5.661  14.508  1.3776 -0.2971 -1.0696
14292TIP3   OH264290   0.360   0.410   4.674  0.1510 -0.0756 -0.3921
14292TIP3    H164291   0.396   0.322   4.669  0.5176  0.0993 -0.9374
14292TIP3    H264292   0.360   0.442   4.584 -2.7034 -0.5544 -0.6234
14293TIP3   OH264293   3.567   0.968  12.122 -0.8015  0.5950 -0.1078
14293TIP3    H164294   3.577   0.930  12.034 -1.1693  0.5101 -0.1126
14293TIP3    H264295   3.654   1.004  12.142 -1.1405  2.1716 -1.2265
14294TIP3   OH264296   1.698   1.967   1.617  0.0904 -0.2188  0.3638
14294TIP3    H164297   1.789   1.996   1.607  0.1896 -0.5798  0.2308
14294TIP3    H264298   1.650   2.017   1.551  0.3149 -0.5981 -0.0921
14295TIP3   OH264299   0.059   1.569   4.877 -0.0381  0.0987 -0.1661
14295TIP3    H164300   0.136   1.625   4.870 -0.4436  0.6994  0.1107
14295TIP3    H264301   0.095   1.481   4.889  0.6185  0.5449  1.3902
14296TIP3   OH264302   5.166   3.432  16.239  0.3021  0.2108 -0.0030
14296TIP3    H164303   5.147   3.339  16.223 -1.3748  0.6563 -0.9213
14296TIP3    H264304   5.250   3.433  16.285  0.9369 -1.6940 -1.0283
14297TIP3   OH264305   0.122   0.117  13.792  0.5407  0.2059 -0.7064
14297TIP3    H164306   0.116   0.130  13.886 -2.0319  0.8348 -0.8900
14297TIP3    H264307   0.174   0.037  13.782 -0.0624 -0.4923  1.2965
14298TIP3   OH264308   0.233   2.717   2.797  0.5051 -0.6835  0.2307
14298TIP3    H164309   0.160   2.771   2.766  1.2348  1.8433  2.4657
14298TIP3    H264310   0.192   2.651   2.852 -0.2027  0.0171  0.5645
14299TIP3   OH264311   5.343   5.663  12.127  0.1730 -0.5975 -0.1413
14299TIP3    H164312   5.431   5.694  12.147  0.9017 -2.0585 -0.9245
14299TIP3    H264313   5.293   5.680  12.207  1.5401 -1.0492  0.8525
14300TIP3   OH264314   6.402   4.217   5.901 -0.0943  0.0560 -0.7141
14300TIP3    H164315   6.415   4.140   5.847  0.9600  0.0448 -0.4653
14300TIP3    H264316   6.401   4.290   5.839  0.5422 -0.0108 -0.8103
14301TIP3   OH264317   3.153   1.635   5.446  0.9273 -0.1637  0.1186
14301TIP3    H164318   3.240   1.654   5.481  0.0550  0.7362  1.9588
14301TIP3    H264319   3.133   1.547   5.476  0.7458  0.0775  0.7221
14302TIP3   OH264320   4.296   5.225   3.754 -0.0223  0.0723  0.0706
14302TIP3    H164321   4.380   5.265   3.776 -0.1903 -0.2322  1.3618
14302TIP3    H264322   4.280   5.250   3.663 -0.1040  2.8675  0.7664
14303TIP3   OH264323   1.988   0.552   1.878  0.5889 -0.5279 -0.1173
14303TIP3    H164324   1.965   0.482   1.939 -2.8803  1.0467  0.6221
14303TIP3    H264325   1.936   0.535   1.800  0.7241  0.4919 -0.4563
14304TIP3   OH264326   5.464   0.645   1.918 -0.3134  0.7009 -0.2475
14304TIP3    H164327   5.394   0.705   1.890 -0.0208  0.0514 -2.6245
14304TIP3    H264328   5.511   0.624   1.837  1.8976  0.1461  1.0941
14305TIP3   OH264329   1.557   5.090  15.972 -0.1615  0.2406  0.5029
14305TIP3    H164330   1.513   5.014  16.009 -1.5472  0.6160 -0.3056
14305TIP3    H264331   1.624   5.053  15.914  1.1049 -0.3371  2.2468
14306TIP3   OH264332   5.673   0.488  14.357 -0.0360  0.2287 -0.9779
14306TIP3    H164333   5.632   0.440  14.285 -0.7687 -1.7125  0.6359
14306TIP3    H264334   5.762   0.455  14.359 -0.6951 -1.6616  0.4970
14307TIP3   OH264335   0.855   0.948  10.819  0.2809  0.6417 -0.3941
14307TIP3    H164336   0.771   0.917  10.784 -0.1317 -0.0332  1.1149
14307TIP3    H264337   0.909   0.869  10.825  0.4780  0.8183  0.1278
14308TIP3   OH264338   5.659   4.180  15.500 -0.3370  0.2554 -0.0838
14308TIP3    H164339   5.735   4.180  15.441 -0.6022 -0.7528 -0.4437
14308TIP3    H264340   5.625   4.091  15.495 -0.2906  0.1109  1.7101
14309TIP3   OH264341   3.263   2.832   0.981 -0.0300 -0.2971 -0.4162
14309TIP3    H164342   3.250   2.833   1.076  0.3288 -0.3417 -0.3650
14309TIP3    H264343   3.263   2.924   0.955 -1.7344 -0.3176 -0.6044
14310TIP3   OH264344   3.660   6.087   1.987  0.5916 -0.0657 -0.1811
14310TIP3    H164345   3.737   6.069   1.934  2.2181 -0.0798  2.0846
14310TIP3    H264346   3.690   6.084   2.077 -1.6855  1.6861  0.7609
14311TIP3   OH264347   5.180   6.444  14.187 -0.3010 -0.1993 -0.0916
14311TIP3    H164348   5.218   6.358  14.167  1.3191  0.5449 -0.3891
14311TIP3    H264349   5.158   6.481  14.101 -3.1510 -1.1717  0.1122
14312TIP3   OH264350   6.556   3.674   1.388  0.6928  0.2517  0.0181
14312TIP3    H164351   6.491   3.619   1.432  2.1121  1.2461  3.7965
14312TIP3    H264352   6.637   3.622   1.393  0.7669  0.0491 -2.3942
14313TIP3   OH264353   3.624   2.900  16.528  0.0580  0.1689  0.1374
14313TIP3    H164354   3.671   2.948  16.460 -1.5720  0.5231 -0.8110
14313TIP3    H264355   3.592   2.968  16.587 -1.4204  0.2284 -0.6692
14314TIP3   OH264356   0.624   1.958   3.116 -0.1687 -0.4157 -0.5454
14314TIP3    H164357   0.588   2.022   3.177 -1.5436 -0.7623 -0.9611
14314TIP3    H264358   0.579   1.876   3.137  3.3463 -2.0123  1.7151
14315TIP3   OH264359   3.478   2.832  16.121  0.6588 -0.1422  0.0520
14315TIP3    H164360   3.403   2.883  16.152 -1.2613 -2.9693  0.4512
14315TIP3    H264361   3.521   2.801  16.201  0.4400 -0.9775 -0.1458
14316TIP3   OH264362   3.281   2.399  12.917  0.1595  0.2659 -0.5001
14316TIP3    H164363   3.348   2.360  12.860 -0.4805 -1.3378 -0.2281
14316TIP3    H264364   3.279   2.342  12.994 -0.8817  0.8056 -0.1044
14317TIP3   OH264365   6.016   2.524  14.808  0.2563  0.1980  0.3697
14317TIP3    H164366   5.922   2.545  14.808  0.3865  0.8164  0.6189
14317TIP3    H264367   6.029   2.472  14.887  0.5885  2.4048  1.8595
14318TIP3   OH264368   2.366   4.929   6.386  0.8707 -0.4343  0.2114
14318TIP3    H164369   2.337   4.866   6.451  2.2851  0.0731  1.3838
14318TIP3    H264370   2.455   4.902   6.363  1.2091  0.6564  0.1474
14319TIP3   OH264371   1.975   0.849   0.544 -0.1717  0.3743  0.0668
14319TIP3    H164372   2.017   0.898   0.474  0.5285 -0.4604 -0.1262
14319TIP3    H264373   1.976   0.908   0.620  0.6362  0.6626 -0.1571
14320TIP3   OH264374   4.302   0.595   1.980  0.0019 -0.0110  0.5534
14320TIP3    H164375   4.281   0.685   1.952 -0.5705 -0.0700  0.7845
14320TIP3    H264376   4.267   0.540   1.910  3.1427  0.0378 -1.2588
14321TIP3   OH264377   5.439   5.092   3.085  0.7373  0.2220  0.5451
14321TIP3    H164378   5.532   5.103   3.067  1.0303 -1.3214  1.0177
14321TIP3    H264379   5.417   5.006   3.049 -0.8713  1.1848 -0.9051
14322TIP3   OH264380   4.288   4.409  17.070 -0.4143  0.4481 -0.1371
14322TIP3    H164381   4.348   4.456  17.012  1.0958 -0.9628  0.2239
14322TIP3    H264382   4.327   4.417  17.157  0.6409 -2.5255 -0.2432
14323TIP3   OH264383   1.007   6.249   0.354  0.2561  0.2229 -0.3375
14323TIP3    H164384   0.952   6.307   0.405 -0.1113 -0.9137  0.5968
14323TIP3    H264385   1.082   6.230   0.410  0.0926 -0.6495 -0.3936
14324TIP3   OH264386   5.874   3.785  11.054 -0.1980  0.0852 -0.1623
14324TIP3    H164387   5.849   3.699  11.090 -0.7550  1.1237  2.0993
14324TIP3    H264388   5.793   3.822  11.021  0.3243 -0.9030 -2.8221
14325TIP3   OH264389   6.586   1.642   3.920  0.3460  0.5867 -0.1585
14325TIP3    H164390   6.546   1.723   3.888  0.5840  0.8812  0.2750
14325TIP3    H264391   6.625   1.666   4.004 -1.1135 -0.4101  0.8428
14326TIP3   OH264392   4.941   0.926   4.713  0.1992 -0.4559  0.1040
14326TIP3    H164393   4.973   0.939   4.802 -0.1064 -1.6000  0.3895
14326TIP3    H264394   4.865   0.984   4.706  0.5013 -0.0067  0.4153
14327TIP3   OH264395   3.041   5.463  10.511 -0.2529 -0.3669  0.1552
14327TIP3    H164396   3.020   5.557  10.509 -0.5954 -0.4481 -1.0697
14327TIP3    H264397   2.956   5.420  10.502 -0.2598 -0.8406  2.1747
14328TIP3   OH264398   5.013   1.285   0.863 -0.0243  0.4985 -0.1694
14328TIP3    H164399   5.100   1.295   0.823  0.6324 -0.9129  0.8610
14328TIP3    H264400   4.996   1.371   0.903  1.2497  0.5448  0.3122
14329TIP3   OH264401   3.152   6.456   6.415  0.5080  0.2412 -0.6762
14329TIP3    H164402   3.065   6.419   6.401 -0.0162  1.0530  0.3196
14329TIP3    H264403   3.141   6.518   6.487  2.1451 -0.4663  0.2484
14330TIP3   OH264404   4.969   1.122   0.609  0.3582  0.4497  0.1063
14330TIP3    H164405   4.932   1.167   0.685 -1.6517 -0.7014 -0.1248
14330TIP3    H264406   4.895   1.076   0.569  1.9779 -1.7452 -0.5980
14331TIP3   OH264407   3.637   0.461   6.021 -0.9178  0.1857  0.1834
14331TIP3    H164408   3.658   0.389   5.963 -0.3395  0.8179 -0.4070
14331TIP3    H264409   3.685   0.536   5.986 -2.7213  1.2555 -0.1579
14332TIP3   OH264410   1.313   1.239  14.005 -0.3022 -0.2339  0.0577
14332TIP3    H164411   1.311   1.225  13.910 -0.3103  1.2539 -0.1863
14332TIP3    H264412   1.393   1.289  14.021 -1.1868  1.0625  0.5883
14333TIP3   OH264413   3.723   3.447  16.880 -0.2802  0.2425 -0.1496
14333TIP3    H164414   3.800   3.503  16.888 -0.0266 -0.2770  1.3744
14333TIP3    H264415   3.650   3.504  16.904  0.0211 -0.1302  1.8325
14334TIP3   OH264416   5.995   5.320   4.757  0.8813 -0.1170  0.1221
14334TIP3    H164417   6.039   5.354   4.680 -0.1550 -0.9839 -0.8918
14334TIP3    H264418   6.049   5.246   4.785  1.1638  0.0841  0.1008
14335TIP3   OH264419   6.059   5.069  12.396 -0.0698  0.1384  0.7521
14335TIP3    H164420   6.060   5.100  12.306  4.2910 -1.1816  0.0810
14335TIP3    H264421   6.014   5.137  12.445 -1.4098  1.5524 -2.2071
14336TIP3   OH264422   6.160   1.605  11.827 -0.6132 -0.3200 -1.4864
14336TIP3    H164423   6.139   1.698  11.819 -2.5282 -0.6767 -1.1183
14336TIP3    H264424   6.192   1.594  11.916  1.6642  0.2965 -2.1622
14337TIP3   OH264425   4.648   2.494  15.137 -0.2175 -0.1803 -0.7049
14337TIP3    H164426   4.639   2.578  15.091  0.2872  0.7115  0.7563
14337TIP3    H264427   4.720   2.509  15.198 -0.4124 -1.5571 -0.1195
14338TIP3   OH264428   1.592   5.063   5.937 -0.7659  0.4028  0.0879
14338TIP3    H164429   1.507   5.020   5.935 -1.0976  0.9935  0.9150
14338TIP3    H264430   1.604   5.099   5.849 -0.4875 -1.3207 -0.6238
14339TIP3   OH264431   1.700   5.909  16.949 -0.3103 -0.3346  0.3694
14339TIP3    H164432   1.611   5.880  16.970  0.1772 -1.3421  1.1621
14339TIP3    H264433   1.756   5.839  16.982  0.7393 -0.1822 -1.0074
14340TIP3   OH264434   3.221   0.771  13.696 -0.3927  0.8674 -0.2872
14340TIP3    H164435   3.229   0.778  13.791 -1.4355  0.5285 -0.1618
14340TIP3    H264436   3.295   0.821  13.661  0.7139 -0.0215  0.7147
14341TIP3   OH264437   2.499   0.665  12.517 -0.4147 -0.0504 -0.1185
14341TIP3    H164438   2.453   0.747  12.498 -1.7550 -0.4304  1.2744
14341TIP3    H264439   2.431   0.598  12.514  0.2179 -0.7871  0.9809
14342TIP3   OH264440   5.895   5.216  13.787  0.1802  0.0160  0.6445
14342TIP3    H164441   5.899   5.290  13.847 -0.4264 -0.0603  0.7864
14342TIP3    H264442   5.852   5.249  13.709  2.3391  0.5350 -0.4128
14343TIP3   OH264443   4.901   0.140  15.664  0.4433  0.6064 -0.2367
14343TIP3    H164444   4.840   0.103  15.600  2.2189  2.7709 -3.4894
14343TIP3    H264445   4.845   0.182  15.729 -1.5425  0.3067 -1.6542
14344TIP3   OH264446   5.814   6.312   1.051  0.3483  0.0547 -0.0968
14344TIP3    H164447   5.858   6.233   1.083 -0.2223 -0.0523  0.4337
14344TIP3    H264448   5.873   6.346   0.983  0.1445 -1.3451 -1.0065
14345TIP3   OH264449   1.768   4.974  12.339  0.0115 -0.6605 -0.1817
14345TIP3    H164450   1.725   4.892  12.317  0.6858 -1.1867  0.4267
14345TIP3    H264451   1.804   4.960  12.427  1.0685 -0.0971 -0.5037
14346TIP3   OH264452   3.637   1.947   0.227 -0.5532 -0.4117 -0.0870
14346TIP3    H164453   3.576   2.005   0.274 -2.1661 -0.7695 -1.6155
14346TIP3    H264454   3.624   1.861   0.268  0.5607 -0.0842  1.0196
14347TIP3   OH264455   4.287   1.704  15.309  0.2294  0.1297  0.0112
14347TIP3    H164456   4.348   1.689  15.380 -0.8372 -2.0137  0.5525
14347TIP3    H264457   4.299   1.630  15.250 -1.6048 -0.2279  0.0079
14348TIP3   OH264458   6.303   2.406   2.863  0.0266  0.1912 -0.0127
14348TIP3    H164459   6.281   2.313   2.851  0.3641  0.3428 -2.1390
14348TIP3    H264460   6.397   2.411   2.844 -0.2632  1.1553 -1.3289
14349TIP3   OH264461   3.830   6.035   3.665 -0.1497  0.3707 -0.1558
14349TIP3    H164462   3.907   5.984   3.688 -0.4480  0.7615  1.9766
14349TIP3    H264463   3.816   6.093   3.741 -2.5608  0.2605 -0.4272
14350TIP3   OH264464   2.762   4.793   5.074 -0.3135 -0.1268  0.2340
14350TIP3    H164465   2.833   4.769   5.133 -1.7603  0.1132  2.1720
14350TIP3    H264466   2.699   4.840   5.129 -1.0381  1.5166 -1.8341
14351TIP3   OH264467   0.124   0.415  13.326 -0.0226 -0.0856  0.1241
14351TIP3    H164468   0.140   0.503  13.293  1.2045 -0.4856 -0.3938
14351TIP3    H264469   0.047   0.385  13.278 -0.4477  0.6879  0.3045
14352TIP3   OH264470   5.022   1.086  12.017  0.0204 -0.1428  0.4129
14352TIP3    H164471   5.036   1.019  12.084 -1.4461 -1.0443 -0.1332
14352TIP3    H264472   4.964   1.044  11.953 -0.0214  1.2795 -0.5227
14353TIP3   OH264473   4.310   3.231   3.236 -0.0758  0.2328  0.1667
14353TIP3    H164474   4.319   3.325   3.247  1.2188  0.0672  0.7878
14353TIP3    H264475   4.364   3.210   3.159 -0.6368  0.0360 -0.1815
14354TIP3   OH264476   3.718   0.918  14.272 -0.3389  0.5668 -0.6199
14354TIP3    H164477   3.789   0.854  14.267 -0.3984  0.5661 -1.5600
14354TIP3    H264478   3.738   0.970  14.350  0.6050  0.4734 -0.7926
14355TIP3   OH264479   2.952   3.915   3.223 -0.9414  0.6882 -0.1891
14355TIP3    H164480   2.952   3.958   3.308 -0.4229  1.2048 -0.4400
14355TIP3    H264481   3.010   3.839   3.234  1.8176  2.5203 -0.8983
14356TIP3   OH264482   4.273   5.283   5.363 -0.0621 -0.0925  0.2965
14356TIP3    H164483   4.314   5.289   5.450 -0.0998  0.1175  0.3009
14356TIP3    H264484   4.263   5.374   5.336 -0.4704 -0.1463  0.2686
14357TIP3   OH264485   3.350   0.805  13.109  0.4811  0.2096 -0.2157
14357TIP3    H164486   3.407   0.778  13.037 -0.3775 -0.6643 -0.5796
14357TIP3    H264487   3.389   0.887  13.140  1.0707  0.4124 -1.4238
14358TIP3   OH264488   6.281   4.013  15.213 -0.6725 -0.7585  0.7826
14358TIP3    H164489   6.188   3.996  15.200 -0.6679 -0.9682  1.0219
14358TIP3    H264490   6.286   4.102  15.247 -0.6517  0.0603 -1.2397
14359TIP3   OH264491   2.393   0.605   2.874 -0.4922 -0.2669 -0.4418
14359TIP3    H164492   2.467   0.625   2.817  0.8766 -3.5492 -0.0521
14359TIP3    H264493   2.409   0.654   2.954  1.7483 -1.4476 -0.0943
14360TIP3   OH264494   3.288   1.677  11.591  0.0496 -0.0831  0.2042
14360TIP3    H164495   3.202   1.719  11.583 -0.4306 -1.1475 -0.4407
14360TIP3    H264496   3.338   1.712  11.517 -0.6948 -1.3880 -0.9644
14361TIP3   OH264497   5.456   5.586   2.573  0.2764 -0.1331  0.5531
14361TIP3    H164498   5.541   5.602   2.612  0.1794  0.9367  0.3388
14361TIP3    H264499   5.403   5.661   2.598 -0.4133 -0.4742  0.1465
14362TIP3   OH264500   0.498   5.002   2.370 -0.1226  0.0508 -0.0157
14362TIP3    H164501   0.565   5.031   2.307 -0.2802  1.3336  0.3721
14362TIP3    H264502   0.489   5.076   2.430 -0.5822 -0.8294  1.0181
14363TIP3   OH264503   5.539   5.352  14.176 -0.7878  0.5661  0.1138
14363TIP3    H164504   5.509   5.263  14.160 -0.1995  0.4422 -0.3463
14363TIP3    H264505   5.623   5.342  14.220  0.8336  0.7971 -2.6554
14364TIP3   OH264506   5.023   0.734  16.895 -0.3102  0.3465 -0.1706
14364TIP3    H164507   4.949   0.759  16.839  0.7425 -0.9405 -2.2950
14364TIP3    H264508   5.038   0.810  16.951 -1.9790  1.3883 -1.0633
14365TIP3   OH264509   3.089   2.050  14.064 -0.1702 -0.2363  0.1687
14365TIP3    H164510   3.031   2.119  14.095  1.2882  1.2061 -0.1668
14365TIP3    H264511   3.117   2.004  14.143  0.5092  0.9436  0.6363
14366TIP3   OH264512   1.547   0.399   5.603  0.1672  0.0812 -0.1443
14366TIP3    H164513   1.536   0.494   5.613 -1.2191 -0.1635  1.0172
14366TIP3    H264514   1.489   0.376   5.530 -0.4379 -0.0137  0.3527
14367TIP3   OH264515   2.114   5.004   2.239 -0.3533 -0.4017  0.2092
14367TIP3    H164516   2.115   5.017   2.144  0.0196  1.3538  0.4061
14367TIP3    H264517   2.167   4.926   2.254 -0.9382 -1.0762 -1.0544
14368TIP3   OH264518   3.757   1.560  14.454 -0.0151 -0.0092  0.2341
14368TIP3    H164519   3.820   1.491  14.436  0.6184  0.2365  1.3998
14368TIP3    H264520   3.794   1.638  14.412 -0.8564 -0.3994 -1.2999
14369TIP3   OH264521   3.024   2.961  14.287 -0.7797  0.6020 -0.0474
14369TIP3    H164522   3.088   3.029  14.265 -1.8648  1.3929 -0.8432
14369TIP3    H264523   2.941   3.007  14.297 -1.4935 -0.5581 -0.3478
14370TIP3   OH264524   1.565   1.815  11.268  0.3448  0.6664 -0.5389
14370TIP3    H164525   1.532   1.904  11.260 -0.2871  0.3710 -1.5172
14370TIP3    H264526   1.648   1.815  11.220  1.1781  1.1039  0.8495
14371TIP3   OH264527   2.713   4.934   3.410 -0.4712 -0.0382 -0.4703
14371TIP3    H164528   2.624   4.913   3.380  0.4473 -3.4133 -1.2999
14371TIP3    H264529   2.750   4.989   3.342 -1.7105  0.9142 -0.4016
14372TIP3   OH264530   0.879   4.444  11.739  0.6920 -0.2042 -0.2786
14372TIP3    H164531   0.887   4.531  11.699  0.7253  0.6590  1.5054
14372TIP3    H264532   0.961   4.433  11.788  0.5950 -1.1632 -0.3252
14373TIP3   OH264533   4.999   1.440  15.174  0.2827  0.0057 -0.2973
14373TIP3    H164534   5.010   1.502  15.102 -0.4386  0.7723  0.2399
14373TIP3    H264535   5.088   1.410  15.193  0.5866  0.5017 -0.8830
14374TIP3   OH264536   1.685   0.028   3.463  0.6518  0.2146  0.5314
14374TIP3    H164537   1.705  -0.060   3.432 -2.1182 -0.1627 -0.4826
14374TIP3    H264538   1.591   0.038   3.448  0.5446  2.7317  2.2176
14375TIP3   OH264539   3.123   5.517   2.774  0.6864  0.6204  0.0317
14375TIP3    H164540   3.051   5.549   2.720  0.2038 -0.1059  0.2340
14375TIP3    H264541   3.107   5.423   2.782  1.0450  0.6368  1.0005
14376TIP3   OH264542   5.298   6.554   1.150  0.1854 -0.0807  0.0725
14376TIP3    H164543   5.212   6.549   1.107  0.1547  1.4212 -0.0836
14376TIP3    H264544   5.277   6.557   1.243  0.1463 -1.1152  0.1056
14377TIP3   OH264545   4.226   1.977  13.172 -0.1181  0.1488 -0.3130
14377TIP3    H164546   4.190   2.062  13.144  2.2219  1.2086 -0.3136
14377TIP3    H264547   4.175   1.956  13.251 -1.3008  1.1344 -0.7699
14378TIP3   OH264548   5.134   3.638   1.036  0.0111 -0.4820  0.1589
14378TIP3    H164549   5.199   3.645   1.106 -0.4228 -1.0852  0.6264
14378TIP3    H264550   5.085   3.720   1.042  0.1015 -0.4446  0.4310
14379TIP3   OH264551   5.581   2.432  14.016  0.3605 -0.2423 -0.2667
14379TIP3    H164552   5.543   2.355  14.058  1.1307 -1.2413 -1.3209
14379TIP3    H264553   5.572   2.502  14.080 -0.6928 -1.1197  0.5781
14380TIP3   OH264554   1.396   4.932  11.066  0.0275 -0.3140 -0.4433
14380TIP3    H164555   1.353   4.895  11.143 -0.0850  0.2387 -0.2359
14380TIP3    H264556   1.382   4.868  10.996 -2.2677  0.4391 -0.7367
14381TIP3   OH264557   4.595   4.271  17.365  0.2852  0.3018 -0.4629
14381TIP3    H164558   4.515   4.229  17.397  0.5858  0.6158  0.7641
14381TIP3    H264559   4.625   4.215  17.294 -1.3953  0.5585 -1.4236
14382TIP3   OH264560   2.629   5.675  13.428 -0.0609  0.3614  0.6674
14382TIP3    H164561   2.713   5.635  13.406  0.4797  1.0912  1.3637
14382TIP3    H264562   2.573   5.601  13.454  0.4326 -0.0984  0.4352
14383TIP3   OH264563   5.087   0.177  14.599 -0.4612  0.1694 -0.0781
14383TIP3    H164564   5.145   0.153  14.527 -1.8406 -0.5622 -0.9970
14383TIP3    H264565   5.104   0.270  14.613  1.1382 -0.0879 -0.0960
14384TIP3   OH264566   2.276   2.814   1.283 -0.4091 -0.0082  0.1755
14384TIP3    H164567   2.268   2.775   1.196  0.3887 -1.8539  0.8790
14384TIP3    H264568   2.365   2.849   1.285  0.4093 -2.0010  0.9792
14385TIP3   OH264569   5.859   1.513  15.529  0.1017 -0.1758 -0.3081
14385TIP3    H164570   5.833   1.597  15.491 -0.0249  0.8113  1.8402
14385TIP3    H264571   5.954   1.520  15.540  0.1599 -0.5193 -0.5604
14386TIP3   OH264572   1.978   2.038  11.619 -0.1591  0.3459  0.7948
14386TIP3    H164573   2.037   2.005  11.687 -1.3737 -1.0865  1.2068
14386TIP3    H264574   1.958   2.128  11.647  0.1654  0.1274  1.7841
14387TIP3   OH264575   5.095   3.265  13.939 -0.0209 -0.3493 -0.0445
14387TIP3    H164576   5.168   3.205  13.929  0.6183  0.5481 -0.9519
14387TIP3    H264577   5.068   3.255  14.031  0.7791 -1.1973  0.1112
14388TIP3   OH264578   4.442   4.777   1.218 -0.6616  0.5484 -0.1545
14388TIP3    H164579   4.488   4.701   1.183 -0.7457  0.0954  0.7013
14388TIP3    H264580   4.508   4.847   1.216  0.3941 -0.2927  1.8461
14389TIP3   OH264581   0.076   4.649   1.614 -0.1711  0.6993  0.0614
14389TIP3    H164582   0.021   4.653   1.536  1.1700  0.7865 -0.9220
14389TIP3    H264583   0.127   4.569   1.604  1.3869  1.6633 -0.1545
14390TIP3   OH264584   2.713   5.531  12.353  0.2986  0.3224 -0.0092
14390TIP3    H164585   2.772   5.588  12.402  0.8885 -0.1912 -0.1069
14390TIP3    H264586   2.762   5.449  12.343 -0.0010  0.2584 -1.0402
14391TIP3   OH264587   0.587   5.816   2.661  0.0098 -0.7176 -0.0449
14391TIP3    H164588   0.661   5.784   2.712  0.3189  1.0125  0.6595
14391TIP3    H264589   0.565   5.743   2.602  0.1329 -2.5236  2.0008
14392TIP3   OH264590   3.664   4.827   4.027 -0.7012  0.0268 -0.5228
14392TIP3    H164591   3.664   4.917   4.061 -1.8260 -0.3918  0.7156
14392TIP3    H264592   3.715   4.778   4.091 -1.2973 -0.4535 -0.4047
14393TIP3   OH264593   0.832   5.833   6.001 -0.1572 -0.0291  0.4643
14393TIP3    H164594   0.882   5.882   5.936 -2.7445  0.5050 -1.3040
14393TIP3    H264595   0.789   5.900   6.054  0.4729 -0.4582  1.5413
14394TIP3   OH264596   0.328   2.893  14.012 -0.1203  0.1705  0.2567
14394TIP3    H164597   0.346   2.942  13.932 -1.4104 -0.5159 -0.4995
14394TIP3    H264598   0.276   2.818  13.982 -1.7970  0.6059  1.8870
14395TIP3   OH264599   2.642   5.282   3.556  0.1245  0.1652  0.0458
14395TIP3    H164600   2.573   5.335   3.596 -0.6013 -0.2780 -0.5821
14395TIP3    H264601   2.631   5.296   3.462  0.3923 -0.5073 -0.0932
14396TIP3   OH264602   4.973   5.655  12.297 -0.4185 -0.3144 -0.0906
14396TIP3    H164603   4.999   5.738  12.257  0.1115 -1.2864 -1.8418
14396TIP3    H264604   5.052   5.601  12.292 -1.2512 -1.5123 -0.5838
14397TIP3   OH264605   1.470   6.726  14.098 -0.1778 -0.0383  0.1291
14397TIP3    H164606   1.408   6.671  14.049 -0.1318  0.8282 -0.9414
14397TIP3    H264607   1.454   6.705  14.190  0.0262 -2.0406 -0.2437
14398TIP3   OH264608   0.295   1.581  14.417 -0.3152  0.1526  0.0820
14398TIP3    H164609   0.315   1.492  14.444  0.0853 -0.1803 -1.2337
14398TIP3    H264610   0.376   1.613  14.378 -0.8697  0.5891 -0.7425
14399TIP3   OH264611   6.093   4.181  17.126  0.0810 -0.1107  0.7541
14399TIP3    H164612   6.069   4.212  17.039  0.7435 -0.1831  0.5352
14399TIP3    H264613   6.124   4.258  17.172 -1.5944  0.1978  1.4212
14400TIP3   OH264614   5.123   4.222   6.374 -0.0678 -0.0659  0.1657
14400TIP3    H164615   5.084   4.309   6.381 -1.0416 -0.3131 -1.5764
14400TIP3    H264616   5.210   4.232   6.413 -0.4459  1.4712  0.7147
14401TIP3   OH264617   3.553   1.916   5.006  0.1690  0.6064 -0.2069
14401TIP3    H164618   3.486   1.937   5.071  0.9900  0.5503  0.6812
14401TIP3    H264619   3.589   2.001   4.980 -2.4518  0.9811 -3.2059
14402TIP3   OH264620   0.688   4.090   3.478 -0.0624  0.5646 -0.0041
14402TIP3    H164621   0.609   4.070   3.429 -0.1681 -0.0400  0.4045
14402TIP3    H264622   0.742   4.012   3.470  1.0671  1.4345 -1.3627
14403TIP3   OH264623   5.086   2.156   1.067  0.5968  0.8195  0.4868
14403TIP3    H164624   5.000   2.199   1.064  0.7141  1.0176 -2.5733
14403TIP3    H264625   5.085   2.109   1.151 -1.8420  2.0820  1.2853
14404TIP3   OH264626   1.539   3.547   4.068 -0.5765  0.3614  0.6140
14404TIP3    H164627   1.449   3.573   4.091 -0.5740  1.0575 -0.0919
14404TIP3    H264628   1.594   3.591   4.133 -0.7681 -0.5497  1.4165
14405TIP3   OH264629   1.843   5.267   1.296 -0.3522  0.6807 -0.0324
14405TIP3    H164630   1.767   5.212   1.315  0.0777  0.4990  1.2289
14405TIP3    H264631   1.886   5.223   1.222 -1.5160  0.8438 -0.8303
14406TIP3   OH264632   0.802   0.343  17.166 -0.0466 -0.2090  0.2756
14406TIP3    H164633   0.891   0.363  17.192  0.1101 -0.2630 -0.2096
14406TIP3    H264634   0.782   0.406  17.097 -0.3117 -0.3291  0.2406
14407TIP3   OH264635   0.208   1.132   0.999 -0.0143 -0.7192  0.3904
14407TIP3    H164636   0.142   1.145   1.066 -0.9198 -0.4375 -0.5282
14407TIP3    H264637   0.169   1.069   0.938 -0.2013  0.7610 -1.1055
14408TIP3   OH264638   2.915   5.400  16.431 -0.0418  0.1224  0.6273
14408TIP3    H164639   2.831   5.400  16.475 -0.9968  0.6491 -1.0774
14408TIP3    H264640   2.895   5.431  16.342  1.9444  0.2658  0.1813
14409TIP3   OH264641   4.401   5.466  15.947 -0.2138 -0.0664  0.3858
14409TIP3    H164642   4.359   5.380  15.948 -1.2432  0.3938 -0.9111
14409TIP3    H264643   4.424   5.480  15.855  3.1722 -0.4436  1.0513
14410TIP3   OH264644   4.505   3.975   4.676  0.4073 -0.0884 -0.4206
14410TIP3    H164645   4.578   4.028   4.644  0.1603 -0.3140 -1.3811
14410TIP3    H264646   4.435   3.989   4.613 -0.1501 -0.4182  0.1141
14411TIP3   OH264647   0.101   0.197   4.247 -0.1809  0.0939 -0.3708
14411TIP3    H164648   0.176   0.170   4.299  0.6367  0.3456 -1.3903
14411TIP3    H264649   0.058   0.264   4.300  0.8787  0.6575 -0.1923
14412TIP3   OH264650   3.328   2.930  15.906  0.6158 -0.2480 -0.2865
14412TIP3    H164651   3.400   2.894  15.959 -1.8839 -0.6866  3.1621
14412TIP3    H264652   3.340   3.025  15.913  1.2323 -0.3183 -0.2959
14413TIP3   OH264653   4.364   0.061  14.283 -0.2818  0.4713  0.0763
14413TIP3    H164654   4.387  -0.032  14.291  0.5863  0.6512 -0.1966
14413TIP3    H264655   4.428   0.106  14.339 -1.1361  0.8518  0.7546
14414TIP3   OH264656   3.654   4.155   2.198 -0.6192  0.0804 -0.1823
14414TIP3    H164657   3.724   4.197   2.147 -0.2624  1.2567  1.2131
14414TIP3    H264658   3.623   4.224   2.258 -1.6172 -1.0018  0.5946
14415TIP3   OH264659   6.102   1.010  11.570 -0.3095  0.4905 -0.2696
14415TIP3    H164660   6.156   1.030  11.646  1.7347 -2.6375 -0.7488
14415TIP3    H264661   6.021   0.974  11.607  0.9422 -1.6584  0.4886
14416TIP3   OH264662   4.650   4.612   4.977 -0.2890  0.0378 -0.1756
14416TIP3    H164663   4.603   4.682   5.023 -0.7255 -0.2966 -0.1072
14416TIP3    H264664   4.596   4.534   4.991  0.1716 -0.3015 -0.2909
14417TIP3   OH264665   1.841   6.027   1.249 -0.2634 -0.0809  0.1307
14417TIP3    H164666   1.894   6.067   1.317  0.9068 -1.9867  0.4251
14417TIP3    H264667   1.816   5.942   1.285 -1.7035 -0.1151 -0.8741
14418TIP3   OH264668   5.457   1.792   5.664 -0.3806 -0.5885 -0.1815
14418TIP3    H164669   5.365   1.779   5.685 -0.2441 -0.2856  0.6226
14418TIP3    H264670   5.457   1.866   5.603 -0.6571 -0.5217 -0.1037
14419TIP3   OH264671   6.618   0.601  16.729  0.3554  0.1871 -0.5408
14419TIP3    H164672   6.707   0.614  16.698 -0.0077  0.2734 -1.6121
14419TIP3    H264673   6.616   0.512  16.763  0.8280  0.1661 -0.5686
14420TIP3   OH264674   0.448   5.932  13.724 -0.0775 -0.3247 -0.1017
14420TIP3    H164675   0.358   5.902  13.720  0.2178 -1.1487 -0.6453
14420TIP3    H264676   0.497   5.858  13.761  0.6071 -0.4320 -1.1813
14421TIP3   OH264677   2.801   0.835  12.243  0.2986  0.5917 -0.1719
14421TIP3    H164678   2.812   0.823  12.338 -1.0916  1.1890  0.0783
14421TIP3    H264679   2.889   0.856  12.212  1.2046 -1.6611  0.6419
14422TIP3   OH264680   0.589   2.137  17.370  0.3543 -0.3382  0.0031
14422TIP3    H164681   0.673   2.183  17.375  0.8343 -1.2475  0.4161
14422TIP3    H264682   0.600   2.072  17.301 -0.7726  1.0138 -1.5427
14423TIP3   OH264683   4.007   2.033  16.255  0.1969  0.0224 -0.0459
14423TIP3    H164684   3.927   2.031  16.203  0.3678 -1.1924 -0.2848
14423TIP3    H264685   4.075   2.060  16.194 -0.1755  2.1716  0.4105
14424TIP3   OH264686   0.326   4.980  13.729  0.4638 -0.1398 -0.0273
14424TIP3    H164687   0.279   5.050  13.773  0.8002  0.3095 -0.3732
14424TIP3    H264688   0.280   4.968  13.646  0.7775  0.0974 -0.2363
14425TIP3   OH264689   6.281   3.718  16.577  0.3164 -0.5314 -0.6836
14425TIP3    H164690   6.194   3.717  16.617  0.0094 -1.5714 -1.3262
14425TIP3    H264691   6.301   3.811  16.564  0.2187 -0.1918  1.3853
14426TIP3   OH264692   0.891   2.814  16.610 -0.1691  0.0180  0.2731
14426TIP3    H164693   0.881   2.809  16.515  0.0966  1.2678  0.1585
14426TIP3    H264694   0.891   2.908  16.629  0.6693 -0.1876  1.4066
14427TIP3   OH264695   6.190   1.310  11.422  0.2116  0.1269 -0.0483
14427TIP3    H164696   6.111   1.340  11.377 -0.2806 -0.5195  0.3580
14427TIP3    H264697   6.191   1.360  11.504  1.0568  1.2351 -0.7072
14428TIP3   OH264698   4.867   2.032  12.368  0.4616  0.0143  0.0438
14428TIP3    H164699   4.843   2.121  12.390  0.4708 -0.0089  0.1480
14428TIP3    H264700   4.910   2.039  12.282  1.0304  0.1949  0.3356
14429TIP3   OH264701   0.974   2.062  14.422 -0.0767 -0.4418 -0.1458
14429TIP3    H164702   0.942   2.072  14.332 -0.8845 -0.3127  0.1428
14429TIP3    H264703   0.926   1.985  14.455 -0.6111  0.1699  0.5178
14430TIP3   OH264704   3.395   0.641  11.733 -0.1746 -0.3049 -0.1481
14430TIP3    H164705   3.320   0.583  11.746 -0.7638  0.3759 -0.4479
14430TIP3    H264706   3.358   0.721  11.697  0.6288  0.2653  0.2556
14431TIP3   OH264707   3.008   4.913   0.411 -0.2836 -0.3672 -0.0880
14431TIP3    H164708   3.017   4.938   0.503 -1.8525 -0.6665  0.1620
14431TIP3    H264709   2.928   4.958   0.382  0.1746 -0.3036 -1.3023
14432TIP3   OH264710   5.109   5.510   2.160  0.7031 -0.0522 -0.2629
14432TIP3    H164711   5.121   5.553   2.245  0.3280 -1.3649  0.4766
14432TIP3    H264712   5.118   5.417   2.179  0.4543 -0.3758 -1.6489
14433TIP3   OH264713   1.729   1.998   2.058 -0.3512  0.5717 -0.0116
14433TIP3    H164714   1.698   1.982   2.147  0.0102  0.9965  0.1955
14433TIP3    H264715   1.817   2.034   2.069 -0.8762  2.0803 -0.4661
14434TIP3   OH264716   4.182   5.979  15.254 -0.0993  0.0987  0.2139
14434TIP3    H164717   4.114   6.011  15.194  1.2213 -1.0450 -1.9950
14434TIP3    H264718   4.259   6.032  15.234  0.4494 -0.4913  0.7163
14435TIP3   OH264719   2.423   5.222   1.743  0.0546  0.1046 -0.4442
14435TIP3    H164720   2.435   5.204   1.650 -0.3535 -2.3978 -0.0670
14435TIP3    H264721   2.332   5.249   1.751 -0.4619 -1.5444 -0.5479
14436TIP3   OH264722   5.326   5.350   6.253  0.1971 -0.3827  0.6057
14436TIP3    H164723   5.340   5.422   6.314 -1.2136 -1.6271  2.5223
14436TIP3    H264724   5.341   5.271   6.305 -0.3408 -1.4953 -0.8494
14437TIP3   OH264725   2.961   0.272  15.756 -0.4454  0.1346 -0.3374
14437TIP3    H164726   2.942   0.203  15.820  1.0950 -0.0528 -0.0436
14437TIP3    H264727   2.905   0.251  15.681 -1.1852 -0.4905  0.3636
14438TIP3   OH264728   1.875   5.500  12.325 -0.7738  0.1872 -0.4536
14438TIP3    H164729   1.965   5.480  12.298 -1.2219 -1.4570 -0.8436
14438TIP3    H264730   1.879   5.590  12.358  0.9536  0.2328 -0.7055
14439TIP3   OH264731   1.097   1.262  11.268 -0.1158  0.1575 -0.3227
14439TIP3    H164732   1.132   1.350  11.279 -1.3166  0.5827  0.3109
14439TIP3    H264733   1.089   1.251  11.173  0.2164  0.6527 -0.4109
14440TIP3   OH264734   3.332   3.712   0.162  0.1276  0.0938 -0.2404
14440TIP3    H164735   3.408   3.695   0.217 -0.4637  0.4220  0.7117
14440TIP3    H264736   3.303   3.800   0.187 -0.9311 -0.2710 -0.1142
14441TIP3   OH264737   3.344   3.492  12.995 -0.0005  0.2753  0.1469
14441TIP3    H164738   3.269   3.542  13.029 -1.0496 -0.8775 -0.3997
14441TIP3    H264739   3.371   3.541  12.918  0.2072  1.0321  0.6868
14442TIP3   OH264740   3.163   0.893   4.289 -0.2566 -0.2084  0.2081
14442TIP3    H164741   3.180   0.902   4.382 -0.0124 -0.7309  0.2195
14442TIP3    H264742   3.148   0.982   4.258  2.2009  0.3062  0.2548
14443TIP3   OH264743   0.381   2.075   0.961  0.1020  0.1186  0.1685
14443TIP3    H164744   0.466   2.085   1.004  0.9997 -0.1439 -1.4719
14443TIP3    H264745   0.400   2.026   0.881 -1.6630 -0.2864 -0.0502
14444TIP3   OH264746   1.723   2.386   5.505  0.3677  0.1825  0.7439
14444TIP3    H164747   1.675   2.422   5.431 -0.6755 -0.0902  1.2661
14444TIP3    H264748   1.808   2.430   5.502 -0.8436  2.8240  1.3958
14445TIP3   OH264749   5.564   0.717  14.101 -0.8651  0.6986  0.4077
14445TIP3    H164750   5.517   0.746  14.179 -0.7858 -0.5508  0.9454
14445TIP3    H264751   5.649   0.689  14.134 -0.6940  0.5174 -0.1816
14446TIP3   OH264752   0.817   4.106   1.282  0.3677  0.0269 -0.0795
14446TIP3    H164753   0.794   4.023   1.324 -1.8515  1.0106  0.8001
14446TIP3    H264754   0.891   4.139   1.333  0.8148 -1.0332 -0.0011
14447TIP3   OH264755   5.702   5.742   1.664 -0.5436 -0.0996  0.3597
14447TIP3    H164756   5.698   5.827   1.707 -1.9242  0.0726 -0.0653
14447TIP3    H264757   5.766   5.692   1.715  0.0030  1.0533  0.8402
14448TIP3   OH264758   1.582   1.823   6.111 -0.5119  0.2292  0.6649
14448TIP3    H164759   1.533   1.905   6.122 -0.0746  0.3774  1.6194
14448TIP3    H264760   1.519   1.763   6.072 -0.0231  1.8419 -3.0795
14449TIP3   OH264761   3.755   4.220  13.759 -0.2131  0.4348  0.5217
14449TIP3    H164762   3.727   4.194  13.847  2.8923  1.3972  1.9239
14449TIP3    H264763   3.834   4.169  13.742 -1.4190 -0.7315 -2.3836
14450TIP3   OH264764   4.978   5.866   4.023  0.2381  0.1103  0.2033
14450TIP3    H164765   4.930   5.846   4.103  0.1255 -3.8055 -0.6177
14450TIP3    H264766   5.045   5.798   4.017  0.8468  0.8016 -2.5399
14451TIP3   OH264767   1.506   0.000  13.707  0.1014 -0.1999 -0.1093
14451TIP3    H164768   1.458   0.080  13.728 -0.9523 -0.0496 -2.6298
14451TIP3    H264769   1.528   0.010  13.614  0.9680 -2.3291 -0.1883
14452TIP3   OH264770   5.314   1.662  10.981  0.2737  0.0213  0.1539
14452TIP3    H164771   5.336   1.755  10.976  1.5116 -0.2572 -0.0805
14452TIP3    H264772   5.222   1.657  10.957  0.3894  1.1144 -0.5780
14453TIP3   OH264773   3.118   3.365  13.885  0.2795 -0.1217 -0.1967
14453TIP3    H164774   3.207   3.400  13.880 -0.4866  1.7437 -1.9271
14453TIP3    H264775   3.101   3.357  13.979  0.9259  3.2217  0.3271
14454TIP3   OH264776   4.524   2.873   0.731 -0.4800 -0.6325 -0.1559
14454TIP3    H164777   4.608   2.895   0.689 -0.8901 -1.6849 -1.5880
14454TIP3    H264778   4.464   2.941   0.701  0.1510  1.1511  2.2198
14455TIP3   OH264779   4.617   1.715   2.423 -0.4655 -0.0680  0.0788
14455TIP3    H164780   4.643   1.687   2.511  0.5041  0.4910 -0.0282
14455TIP3    H264781   4.676   1.668   2.364  0.5137  1.4242 -0.1507
14456TIP3   OH264782   3.899   2.388   0.064 -0.0261  0.1585 -0.2045
14456TIP3    H164783   3.819   2.336   0.054 -0.4434  0.9510 -1.1509
14456TIP3    H264784   3.968   2.323   0.078 -0.3149 -0.7704 -2.6039
14457TIP3   OH264785   5.755   3.356  12.368 -0.8085  0.1287 -0.9920
14457TIP3    H164786   5.717   3.443  12.351  0.3177  0.3352 -2.6315
14457TIP3    H264787   5.838   3.356  12.321 -0.1474 -1.3845  0.0808
14458TIP3   OH264788   6.328   5.945  11.714  0.1605 -0.2321 -0.4358
14458TIP3    H164789   6.317   5.918  11.805  1.0743  2.6390  0.6279
14458TIP3    H264790   6.320   5.864  11.664 -0.0055 -1.9626  2.2074
14459TIP3   OH264791   1.783   3.449   3.588 -0.3993 -0.7254  0.1050
14459TIP3    H164792   1.830   3.531   3.601  2.5811 -1.8369 -2.3747
14459TIP3    H264793   1.783   3.407   3.674  5.2277 -1.4555  0.1444
14460TIP3   OH264794   0.605   6.712  13.524 -0.0593 -0.1623  0.2893
14460TIP3    H164795   0.655   6.784  13.485 -2.1160  1.0867 -0.1802
14460TIP3    H264796   0.622   6.638  13.467  2.1724 -0.1441  0.8294
14461TIP3   OH264797   6.121   6.089  11.611  0.0711  0.2340  0.1991
14461TIP3    H164798   6.103   6.019  11.548 -3.8528  0.9189  0.2928
14461TIP3    H264799   6.197   6.058  11.660 -0.3583 -3.0960 -0.9447
14462TIP3   OH264800   5.553   4.281  15.824 -0.0191 -0.3661  0.5801
14462TIP3    H164801   5.586   4.200  15.783 -1.1202 -0.9383  0.7775
14462TIP3    H264802   5.517   4.331  15.751  0.5261 -0.1245  0.4771
14463TIP3   OH264803   0.699   5.407  11.657 -0.9050  0.3692 -0.3324
14463TIP3    H164804   0.675   5.326  11.700  0.6153 -0.4834 -1.0143
14463TIP3    H264805   0.729   5.464  11.728 -0.4485 -0.2519 -0.0232
14464TIP3   OH264806   2.401   2.241  11.921 -0.0461  0.0075 -0.3087
14464TIP3    H164807   2.378   2.316  11.977 -0.1580  0.0673 -0.4327
14464TIP3    H264808   2.367   2.165  11.968  3.5074 -0.4851  1.8732
14465TIP3   OH264809   5.532   0.875   2.445 -0.1115 -0.1935 -0.3014
14465TIP3    H164810   5.528   0.780   2.450  0.1342 -0.1985 -0.1851
14465TIP3    H264811   5.465   0.899   2.382 -0.6449 -0.3959  0.1832
14466TIP3   OH264812   0.451   5.796   0.793 -0.2712  0.3021 -0.0880
14466TIP3    H164813   0.490   5.831   0.713 -3.3482  0.6237 -1.5852
14466TIP3    H264814   0.475   5.859   0.861  2.1809  0.1642 -0.7392
14467TIP3   OH264815   0.124   3.177   1.811 -0.0462 -0.0071  0.4377
14467TIP3    H164816   0.102   3.217   1.895  1.2431  1.8881 -0.0740
14467TIP3    H264817   0.219   3.176   1.809 -0.0295  0.8345 -1.3511
14468TIP3   OH264818   4.014   3.832  15.256  0.1347  0.1423  0.2665
14468TIP3    H164819   3.979   3.826  15.167 -0.3191 -1.5170  0.5174
14468TIP3    H264820   3.940   3.859  15.310  0.5873  1.9073  0.0821
14469TIP3   OH264821   1.412   5.266   3.577 -0.1636 -0.3838 -0.1439
14469TIP3    H164822   1.335   5.268   3.633  0.8023  2.9263  1.2683
14469TIP3    H264823   1.387   5.315   3.499  0.0352 -0.6879 -0.4041
14470TIP3   OH264824   4.502   0.005  15.868  0.2164 -0.0425  0.8157
14470TIP3    H164825   4.549   0.078  15.911 -2.0699  1.9588  0.1367
14470TIP3    H264826   4.470   0.043  15.786 -1.0425 -1.8534  0.4279
14471TIP3   OH264827   2.864   3.361  17.338  0.2191  0.9496 -0.5429
14471TIP3    H164828   2.863   3.412  17.419 -1.0645  0.7761 -0.4269
14471TIP3    H264829   2.842   3.425  17.269  3.8492  1.7125 -1.2211
14472TIP3   OH264830   5.344   2.381   5.502 -0.0048 -0.5486  0.1187
14472TIP3    H164831   5.387   2.434   5.435  0.2924 -1.9945 -0.8851
14472TIP3    H264832   5.251   2.396   5.489  0.0772 -0.1478 -0.0346
14473TIP3   OH264833   6.269   0.377  14.576  0.0896  0.0267  0.2718
14473TIP3    H164834   6.273   0.435  14.651 -0.6829  0.7426 -0.2231
14473TIP3    H264835   6.263   0.289  14.614 -0.0753  0.3651  1.0406
14474TIP3   OH264836   4.801   4.632  14.823  0.2886  0.0219  0.6436
14474TIP3    H164837   4.720   4.581  14.829 -0.3475  0.8155 -0.6734
14474TIP3    H264838   4.772   4.724  14.822  1.2086  0.3241  0.3000
14475TIP3   OH264839   3.157   2.353  14.493  0.2162  0.2244  0.2299
14475TIP3    H164840   3.162   2.379  14.585 -0.6758  0.2392  0.2849
14475TIP3    H264841   3.197   2.426  14.445  0.1899  0.4626  0.5692
14476TIP3   OH264842   2.180   1.464   0.419  0.5195  0.3431 -0.2834
14476TIP3    H164843   2.110   1.468   0.484  0.0952 -2.3315 -0.4551
14476TIP3    H264844   2.171   1.545   0.368 -1.1652  0.9782  0.9382
14477TIP3   OH264845   6.506   6.042  15.847  0.3713  0.2610 -0.7128
14477TIP3    H164846   6.481   5.972  15.908  0.0668  2.2925  1.6427
14477TIP3    H264847   6.423   6.087  15.828  0.5603  0.0026 -2.2059
14478TIP3   OH264848   1.171   4.045  12.641  0.0738  0.0795  0.0458
14478TIP3    H164849   1.170   4.062  12.735  1.6273 -0.0787  0.1132
14478TIP3    H264850   1.215   3.960  12.632  2.1313  1.1685 -0.9266
14479TIP3   OH264851   1.357   5.955   3.637 -0.1801 -0.2363 -0.4009
14479TIP3    H164852   1.433   6.007   3.662 -0.3045  0.1678 -0.8472
14479TIP3    H264853   1.372   5.869   3.678  0.1494  0.0700  0.1261
14480TIP3   OH264854   3.416   2.829  15.600  0.5332  1.2007 -0.6100
14480TIP3    H164855   3.438   2.791  15.685 -2.3127 -0.7320 -0.5768
14480TIP3    H264856   3.446   2.920  15.605 -0.5417  1.5196  2.9590
14481TIP3   OH264857   5.549   6.736  15.828 -0.0504  0.5482  0.1378
14481TIP3    H164858   5.467   6.728  15.876 -0.0158  0.8212  0.2450
14481TIP3    H264859   5.602   6.662  15.857  0.7321  1.7706  2.0201
14482TIP3   OH264860   4.710   4.069   2.537 -0.0327  0.1359 -0.1982
14482TIP3    H164861   4.726   4.103   2.625  1.8680  0.5189 -0.6532
14482TIP3    H264862   4.797   4.060   2.498 -0.8296  0.0935 -2.0858
14483TIP3   OH264863   2.006   3.549   4.693 -0.1312 -0.0661  0.3133
14483TIP3    H164864   1.964   3.538   4.778 -0.8153 -0.0845 -0.0216
14483TIP3    H264865   1.974   3.475   4.641  0.1773  0.0238 -0.0080
14484TIP3   OH264866   4.421   4.100  13.270  0.0468  0.6891 -0.4112
14484TIP3    H164867   4.459   4.068  13.352 -0.1806 -1.0426 -0.9394
14484TIP3    H264868   4.495   4.137  13.222  0.4317  0.4440 -0.0151
14485TIP3   OH264869   3.834   3.637  11.810 -0.3015 -0.0464 -0.5683
14485TIP3    H164870   3.836   3.584  11.889 -0.1093 -0.1819 -0.6627
14485TIP3    H264871   3.853   3.575  11.739 -0.1073  0.1411 -0.6814
14486TIP3   OH264872   3.785   5.059  14.334 -0.1642 -0.2840 -0.0312
14486TIP3    H164873   3.858   4.997  14.336 -0.6620 -0.8741  0.0200
14486TIP3    H264874   3.827   5.145  14.337  0.5720 -0.5878 -1.2727
14487TIP3   OH264875   1.934   2.669   0.060 -0.2840  0.0215  0.1830
14487TIP3    H164876   1.891   2.610  -0.002  1.6826 -1.0554 -0.2499
14487TIP3    H264877   2.005   2.617   0.097  1.3402  1.9978  0.0489
14488TIP3   OH264878   0.218   2.892   1.272  0.6631  0.6887 -0.1095
14488TIP3    H164879   0.210   2.829   1.200 -2.3112  1.9393 -1.0480
14488TIP3    H264880   0.288   2.951   1.244  1.5924 -0.5865 -0.5291
14489TIP3   OH264881   6.589   2.292  15.717  0.5339  0.3786  0.6732
14489TIP3    H164882   6.526   2.354  15.681  1.6156  1.0150 -0.1708
14489TIP3    H264883   6.634   2.255  15.641  0.4787 -0.8562  1.2014
14490TIP3   OH264884   0.576   3.612  13.323 -0.0299 -0.2820  0.3597
14490TIP3    H164885   0.592   3.625  13.416  0.3223 -0.6574  0.3512
14490TIP3    H264886   0.480   3.609  13.315 -0.0466 -0.8654  0.7895
14491TIP3   OH264887   5.532   2.549   1.527  0.1073  0.0860  0.1406
14491TIP3    H164888   5.439   2.546   1.549  0.1763 -1.5957  0.3463
14491TIP3    H264889   5.537   2.606   1.450 -0.8828  1.3820  1.0056
14492TIP3   OH264890   4.835   2.534   3.324  0.0433  0.2518  0.4253
14492TIP3    H164891   4.916   2.528   3.373 -1.0937  1.5549  2.6189
14492TIP3    H264892   4.774   2.477   3.370  0.0279 -1.9378 -2.0908
14493TIP3   OH264893   3.110   5.648  15.648 -0.0732 -0.2835 -0.1487
14493TIP3    H164894   3.199   5.640  15.683 -0.1555  1.9034  0.7238
14493TIP3    H264895   3.063   5.575  15.688  0.1929  1.2419  3.4228
14494TIP3   OH264896   0.766   1.278  16.426 -0.5446  0.1656 -0.2872
14494TIP3    H164897   0.707   1.347  16.458 -0.5255 -0.0635  0.2447
14494TIP3    H264898   0.756   1.281  16.331 -0.2455  1.1687 -0.2984
14495TIP3   OH264899   4.006   0.195   0.035 -0.4006 -0.1861 -0.0961
14495TIP3    H164900   4.048   0.126  -0.017  0.7249  0.5012 -0.1364
14495TIP3    H264901   4.051   0.275   0.009 -2.2129  0.7106 -0.6262
14496TIP3   OH264902   2.989   5.335   1.107 -0.2837  0.0474 -0.1203
14496TIP3    H164903   2.994   5.327   1.012  1.0928 -0.0047 -0.0545
14496TIP3    H264904   2.910   5.286   1.131  0.0102 -0.9443 -1.1173
14497TIP3   OH264905   4.268   2.492   2.460  0.0715  0.2164 -0.8555
14497TIP3    H164906   4.175   2.511   2.445  0.3023  1.2194 -1.0817
14497TIP3    H264907   4.283   2.519   2.551 -0.0415 -0.7264 -0.5450
14498TIP3   OH264908   5.146   4.341   5.227  0.0489 -0.3898  0.3067
14498TIP3    H164909   5.094   4.287   5.286  0.8192  0.4412  1.8132
14498TIP3    H264910   5.202   4.279   5.180  0.5922 -0.9823  1.6640
14499TIP3   OH264911   2.310   5.988   5.017  0.5272 -0.1098  0.2375
14499TIP3    H164912   2.254   5.921   4.978 -0.5461  0.5984  0.4997
14499TIP3    H264913   2.362   6.021   4.944  1.7062 -1.7939  0.2567
14500TIP3   OH264914   1.964   6.076   1.549 -0.0992  0.3388 -0.0094
14500TIP3    H164915   1.889   6.020   1.573 -0.5327  0.5805 -0.7635
14500TIP3    H264916   1.992   6.114   1.632  0.9988 -1.9380  0.7580
14501TIP3   OH264917   6.208   4.452   1.367 -0.5207  0.2077 -0.5551
14501TIP3    H164918   6.287   4.441   1.419 -0.2610 -1.0504 -1.1831
14501TIP3    H264919   6.191   4.546   1.368 -1.2146  0.1667  2.7913
14502TIP3   OH264920   3.439   2.076   6.208  1.2748  0.6384 -0.6435
14502TIP3    H164921   3.387   2.153   6.231 -1.2148 -0.3209 -2.5961
14502TIP3    H264922   3.425   2.015   6.280  0.7555  0.8747 -0.5426
14503TIP3   OH264923   3.351   0.312   2.757  0.2758 -0.7148 -0.5167
14503TIP3    H164924   3.283   0.303   2.824  0.5632 -1.8134 -0.3428
14503TIP3    H264925   3.412   0.241   2.777  1.7810  0.5836 -0.3335
14504TIP3   OH264926   4.398   5.384  14.752  0.1403 -0.2542  0.5485
14504TIP3    H164927   4.366   5.412  14.666  0.2703  0.1240  0.6234
14504TIP3    H264928   4.432   5.295  14.738  1.1702  0.2169 -0.0307
14505TIP3   OH264929   2.260   2.291  16.202 -0.1929  0.3623 -0.0997
14505TIP3    H164930   2.198   2.322  16.136 -0.9876 -0.6849  0.1375
14505TIP3    H264931   2.279   2.369  16.254 -0.2494  0.9986 -1.0040
14506TIP3   OH264932   3.960   5.084   5.136  0.0903  0.3914  0.3979
14506TIP3    H164933   3.947   5.102   5.043 -0.2650  0.4294  0.4531
14506TIP3    H264934   3.937   5.166   5.179  2.2925  1.0679  0.3851
14507TIP3   OH264935   6.561   5.116   1.396 -0.2133  0.4328 -0.8253
14507TIP3    H164936   6.624   5.175   1.438 -2.7300  1.9384  1.1324
14507TIP3    H264937   6.539   5.159   1.313  1.5722 -0.3501 -1.7666
14508TIP3   OH264938   5.685   1.205   6.460 -0.8851 -0.4437  0.4614
14508TIP3    H164939   5.693   1.114   6.433 -1.1487 -0.5421  0.7157
14508TIP3    H264940   5.599   1.232   6.430  0.3048  0.6425 -2.3255
14509TIP3   OH264941   5.164   2.034   3.290 -0.2203  0.2189  0.3131
14509TIP3    H164942   5.191   2.029   3.198 -0.8523  0.1181  0.1253
14509TIP3    H264943   5.187   2.123   3.317 -0.0806  0.2677  0.0410
14510TIP3   OH264944   2.776   4.745   5.825 -0.0607  0.0904  0.0194
14510TIP3    H164945   2.722   4.678   5.868  1.1558 -1.4460 -0.7500
14510TIP3    H264946   2.744   4.748   5.735  1.2708 -1.0657 -0.5319
14511TIP3   OH264947   3.389   3.172   1.960 -0.1395 -0.3496  0.5501
14511TIP3    H164948   3.404   3.120   2.039  1.4541  1.7533  1.7110
14511TIP3    H264949   3.466   3.156   1.906  0.0604  0.2856  0.6383
14512TIP3   OH264950   3.559   1.191   0.364  0.2268 -0.1351  0.0085
14512TIP3    H164951   3.549   1.194   0.269  2.1049 -0.9924 -0.2560
14512TIP3    H264952   3.646   1.226   0.380  0.0079 -0.1679  1.4180
14513TIP3   OH264953   0.190   1.824   3.217 -0.5442  0.4921  0.3207
14513TIP3    H164954   0.227   1.883   3.152  0.2883  0.0301  0.3639
14513TIP3    H264955   0.100   1.810   3.188 -0.2968  0.5945 -0.5217
14514TIP3   OH264956   3.942   2.296  13.762  0.1476  0.1967  0.3553
14514TIP3    H164957   3.964   2.207  13.734 -0.3436  0.3192 -0.4667
14514TIP3    H264958   4.022   2.346  13.749  0.1140  0.1047 -0.2470
14515TIP3   OH264959   4.740   0.132   4.177  0.4937  0.8378 -0.0412
14515TIP3    H164960   4.764   0.225   4.173 -0.8713  1.2008 -0.3601
14515TIP3    H264961   4.647   0.131   4.155  0.4769 -0.6084  0.0397
14516TIP3   OH264962   2.855   5.635  15.444  0.0809 -0.6291 -0.2424
14516TIP3    H164963   2.816   5.573  15.382  0.2740 -0.4429 -0.5545
14516TIP3    H264964   2.817   5.612  15.529 -1.6037  0.2555 -0.7059
14517TIP3   OH264965   2.506   2.116  13.368 -0.4007  0.3234 -0.4871
14517TIP3    H164966   2.566   2.142  13.439 -0.4144  1.5833 -0.9096
14517TIP3    H264967   2.420   2.110  13.411 -0.2581  0.1857 -0.2152
14518TIP3   OH264968   4.630   0.852   6.073  0.0437  0.1739 -0.8127
14518TIP3    H164969   4.601   0.925   6.017  0.4462  0.4530 -0.6624
14518TIP3    H264970   4.580   0.777   6.041 -0.3360  0.5005 -1.0109
14519TIP3   OH264971   2.334   5.864  12.172  0.4729 -0.4761 -0.6287
14519TIP3    H164972   2.325   5.797  12.105 -3.0279 -3.1401  2.0913
14519TIP3    H264973   2.256   5.919  12.162 -0.0314 -0.8161  1.0037
14520TIP3   OH264974   5.238   4.988  15.808 -0.4888  0.0241  0.1713
14520TIP3    H164975   5.326   4.951  15.807  0.0218  1.1974  0.1253
14520TIP3    H264976   5.184   4.925  15.759  0.2512 -0.8533  0.4656
14521TIP3   OH264977   6.504   0.310  11.639  0.3773  0.3408  0.0883
14521TIP3    H164978   6.470   0.324  11.728  0.2022  0.4042  0.0130
14521TIP3    H264979   6.473   0.387  11.590 -1.0505 -0.5356 -0.4667
14522TIP3   OH264980   2.528   4.642   1.155 -0.1697 -0.0793 -0.3036
14522TIP3    H164981   2.584   4.714   1.183 -1.7735  0.6471  1.2427
14522TIP3    H264982   2.569   4.564   1.192  0.6549  0.2448 -0.5244
14523TIP3   OH264983   4.692   5.548  13.734 -0.5610  0.2018 -0.2721
14523TIP3    H164984   4.709   5.472  13.790  3.9748  1.3498  0.3119
14523TIP3    H264985   4.672   5.618  13.795  0.0461  0.4723 -0.3685
14524TIP3   OH264986   5.851   4.677   5.967 -0.0679 -0.3228  0.5061
14524TIP3    H164987   5.789   4.746   5.991 -1.8234 -1.2961 -0.9743
14524TIP3    H264988   5.930   4.696   6.019 -1.2155  1.5710  1.6657
14525TIP3   OH264989   4.207   3.744   4.265  0.2496 -0.3275  0.2536
14525TIP3    H164990   4.155   3.713   4.340 -1.1024  1.1207 -0.0264
14525TIP3    H264991   4.158   3.713   4.188  0.7437 -0.4039 -0.0346
14526TIP3   OH264992   4.370   5.079   5.916  0.1581 -0.2440  0.1939
14526TIP3    H164993   4.440   5.142   5.901 -0.3101  0.0383 -0.9109
14526TIP3    H264994   4.330   5.106   5.998  1.4362 -0.5157  0.9397
14527TIP3   OH264995   4.128   6.691   3.633 -0.0988 -0.0782  0.1621
14527TIP3    H164996   4.066   6.731   3.693 -0.4349  0.4621 -0.5245
14527TIP3    H264997   4.211   6.736   3.651 -0.4832  0.9981 -0.6360
14528TIP3   OH264998   0.256   1.029   1.298 -0.1633  0.1326 -0.4192
14528TIP3    H164999   0.172   1.028   1.344 -0.0007 -0.8233 -0.1143
14528TIP3    H265000   0.245   0.966   1.227  0.1726  0.2826 -0.6051
14529TIP3   OH265001   6.492   6.544  16.071 -0.0992  0.4780 -0.5239
14529TIP3    H165002   6.454   6.591  15.996 -1.1156 -0.2861 -0.5143
14529TIP3    H265003   6.467   6.453  16.057  0.8576  0.1133  0.0576
14530TIP3   OH265004   3.271   3.055  12.408 -0.1262  0.3537  0.0879
14530TIP3    H165005   3.197   3.002  12.438  0.0170 -0.0932 -0.3180
14530TIP3    H265006   3.325   3.070  12.486 -0.3099  0.1244  0.2570
14531TIP3   OH265007   3.352   1.599  15.660  0.9353  0.4437  0.0700
14531TIP3    H165008   3.277   1.643  15.699  1.7142  1.2265  0.7529
14531TIP3    H265009   3.358   1.515  15.704  0.5756  0.4589  0.1442
14532TIP3   OH265010   0.135   0.404  10.834  0.8459 -0.0996 -0.4323
14532TIP3    H165011   0.154   0.476  10.774  0.3847  0.5150  0.1442
14532TIP3    H265012   0.205   0.409  10.900  0.9139 -0.2915 -0.4893
14533TIP3   OH265013   6.410   3.995  14.949 -0.2546  0.6568  0.3419
14533TIP3    H165014   6.397   4.086  14.976  0.3333  1.4589 -1.8459
14533TIP3    H265015   6.325   3.968  14.913 -0.4870  0.2471  1.1702
14534TIP3   OH265016   5.186   2.672  12.658 -0.5702  0.1445 -0.3800
14534TIP3    H165017   5.164   2.765  12.666  0.5807  0.3643  0.5809
14534TIP3    H265018   5.268   2.671  12.609  1.0211 -0.0977  2.0949
14535TIP3   OH265019   2.317   0.431  12.504 -0.4794  0.3048 -0.3825
14535TIP3    H165020   2.223   0.419  12.517 -0.6962  0.1384 -1.9735
14535TIP3    H265021   2.358   0.360  12.554 -1.2973 -0.8714 -1.3421
14536TIP3   OH265022   2.676   2.403   6.566  0.1303 -0.0702  0.1184
14536TIP3    H165023   2.607   2.428   6.627  1.7364  0.1173  1.9588
14536TIP3    H265024   2.697   2.313   6.589  0.5941 -0.0780 -0.3152
14537TIP3   OH265025   4.618   6.674   2.117  0.1733  0.3731 -0.0866
14537TIP3    H165026   4.689   6.638   2.169  1.0433  2.1511  0.0200
14537TIP3    H265027   4.585   6.748   2.168 -0.3093  0.8883 -1.1000
14538TIP3   OH265028   4.368   6.636   1.846  0.0341  0.5188 -0.3787
14538TIP3    H165029   4.380   6.727   1.875 -0.3970  0.4561  0.0036
14538TIP3    H265030   4.305   6.599   1.907 -1.4001  0.5614 -1.7518
14539TIP3   OH265031   2.076   2.276   0.304 -0.0292 -0.8750 -0.2904
14539TIP3    H165032   2.050   2.365   0.327 -0.8907 -1.3212  0.5362
14539TIP3    H265033   2.163   2.266   0.342 -0.8931 -1.1527  1.7385
14540TIP3   OH265034   4.272   6.681  11.463  0.3397  0.3438 -0.1287
14540TIP3    H165035   4.257   6.745  11.393 -0.1195  1.0658  0.6008
14540TIP3    H265036   4.367   6.672  11.468  0.3591 -0.5165 -1.5275
14541TIP3   OH265037   0.746   4.314   6.158  0.2009 -0.2957  0.9895
14541TIP3    H165038   0.699   4.320   6.241 -1.0285 -2.8631  0.5653
14541TIP3    H265039   0.811   4.245   6.172  0.9042  0.1835  0.1968
14542TIP3   OH265040   3.685   0.053   0.251  0.4807 -0.6682  0.1641
14542TIP3    H165041   3.698   0.085   0.161 -0.6253 -3.7540 -1.2121
14542TIP3    H265042   3.753  -0.013   0.263 -1.1155 -2.3226  0.4827
14543TIP3   OH265043   2.939   6.613  14.106  0.0129 -0.1130 -0.0632
14543TIP3    H165044   2.890   6.694  14.092  0.8029  0.3870 -0.0367
14543TIP3    H265045   2.986   6.599  14.023  1.0271  0.2724  0.4333
14544TIP3   OH265046   4.059   1.691   5.879 -0.4814 -0.7986 -0.1422
14544TIP3    H165047   4.130   1.733   5.830 -0.9338  1.6135  1.1369
14544TIP3    H265048   4.099   1.611   5.915  1.3247  0.0077 -0.2297
14545TIP3   OH265049   4.648   5.315  16.111 -0.6309 -0.0631 -0.1610
14545TIP3    H165050   4.601   5.302  16.028 -1.1292 -0.8973  0.2324
14545TIP3    H265051   4.618   5.243  16.167  0.8285 -0.3860  0.2490
14546TIP3   OH265052   1.305   5.829   4.999 -0.2214  0.0873 -0.1435
14546TIP3    H165053   1.355   5.863   4.925 -1.2627  1.6143 -0.1884
14546TIP3    H265054   1.334   5.881   5.074  2.0488 -2.5531  0.9399
14547TIP3   OH265055   2.936   0.392  11.991 -0.4220  0.1129  0.2556
14547TIP3    H165056   2.869   0.373  12.056 -0.5060  0.8020  0.3731
14547TIP3    H265057   2.895   0.372  11.907 -0.2359 -1.0087  0.4130
14548TIP3   OH265058   1.876   6.200   3.279 -0.8044 -0.6686  0.5411
14548TIP3    H165059   1.888   6.194   3.374 -1.7448  2.6932  1.0081
14548TIP3    H265060   1.942   6.264   3.251 -1.4822 -0.5516 -0.8308
14549TIP3   OH265061   4.610   1.593   0.630  0.3464 -0.3722  0.0088
14549TIP3    H165062   4.558   1.673   0.626 -0.2246 -0.7812 -1.2739
14549TIP3    H265063   4.568   1.533   0.568  2.4697 -0.6277 -1.2807
14550TIP3   OH265064   0.195   5.064   1.532  0.2397  0.7739  0.0994
14550TIP3    H165065   0.245   5.014   1.597  0.1155  0.2963 -0.1706
14550TIP3    H265066   0.108   5.074   1.571 -0.0750 -0.2130 -0.3424
14551TIP3   OH265067   4.021   1.274   2.564 -0.4467 -0.0178 -0.2921
14551TIP3    H165068   4.061   1.351   2.525  1.7669  0.3446  2.3926
14551TIP3    H265069   3.975   1.307   2.641  1.1727 -1.3560  1.3412
14552TIP3   OH265070   1.873   4.621  13.796 -0.0942  0.0815  0.7681
14552TIP3    H165071   1.908   4.570  13.868  1.6526  0.1980  0.0603
14552TIP3    H265072   1.847   4.705  13.835 -1.0134 -0.5502  1.5598
14553TIP3   OH265073   4.014   2.632   4.477 -0.3136  0.1965  0.3111
14553TIP3    H165074   4.073   2.682   4.533  0.4824 -0.7949  0.3762
14553TIP3    H265075   4.027   2.668   4.389  0.2605  0.0952  0.3535
14554TIP3   OH265076   6.213   1.781  15.164 -0.7410  0.1014 -0.3857
14554TIP3    H165077   6.250   1.804  15.079 -1.4510  1.2641 -0.4032
14554TIP3    H265078   6.250   1.846  15.224 -0.4125 -0.5824  0.1507
14555TIP3   OH265079   2.939   6.404   3.789  0.5449  0.0058  0.1597
14555TIP3    H165080   2.960   6.401   3.696  0.3712  0.8349  0.0852
14555TIP3    H265081   2.859   6.353   3.798 -0.7572  1.8386 -0.5417
14556TIP3   OH265082   4.861   3.947   2.895  0.1165 -0.0108 -0.7219
14556TIP3    H165083   4.827   3.862   2.866 -0.1165 -1.0203  2.1509
14556TIP3    H265084   4.782   3.997   2.917  0.3084  0.3053 -0.7494
14557TIP3   OH265085   4.323   2.273   4.775 -0.0558  0.7024  0.0101
14557TIP3    H165086   4.271   2.203   4.734 -1.5367  1.4097  0.5926
14557TIP3    H265087   4.407   2.270   4.730 -0.2345 -1.1531 -0.2896
14558TIP3   OH265088   2.942   4.053  11.266  0.4904 -0.0090 -0.1635
14558TIP3    H165089   2.996   3.975  11.250  0.0208 -0.4683  0.4730
14558TIP3    H265090   2.854   4.019  11.282 -0.1958  0.7700 -1.9589
14559TIP3   OH265091   0.269   3.245  12.174 -0.3617  0.6425 -0.7089
14559TIP3    H165092   0.262   3.266  12.267  0.1699 -0.2053 -0.4619
14559TIP3    H265093   0.270   3.149  12.172  0.2629  0.6606 -1.5295
14560TIP3   OH265094   0.846   6.502   1.373 -0.0022 -0.6862  0.1393
14560TIP3    H165095   0.758   6.495   1.336 -0.2146  1.0372  0.2296
14560TIP3    H265096   0.882   6.414   1.366 -1.3624 -1.2024 -0.8280
14561TIP3   OH265097   5.162   0.378  12.027 -0.0911 -0.5151 -0.9422
14561TIP3    H165098   5.067   0.377  12.020 -0.3970  0.7223  1.5381
14561TIP3    H265099   5.181   0.327  12.106  1.3026 -0.7800 -1.4196
14562TIP3   OH265100   1.882   2.445   2.838 -0.2557  0.0780 -0.3901
14562TIP3    H165101   1.831   2.526   2.837  2.2089  1.7803  0.9072
14562TIP3    H265102   1.973   2.474   2.845  0.9721 -2.7758 -2.5941
14563TIP3   OH265103   0.092   0.828  14.727  0.3195 -0.3718  0.0197
14563TIP3    H165104   0.187   0.835  14.719  0.3127 -1.0945 -0.8761
14563TIP3    H265105   0.060   0.840  14.638 -0.5186  0.8721  0.4557
14564TIP3   OH265106   0.950   3.794  15.615 -0.6129  0.6611  0.2092
14564TIP3    H165107   0.975   3.822  15.527  0.3208  0.7606  0.4947
14564TIP3    H265108   0.938   3.875  15.664 -1.1968  0.6081  0.1693
14565TIP3   OH265109   4.230   3.798  16.709  0.3328 -0.1630  0.3789
14565TIP3    H165110   4.263   3.882  16.743  0.0441  0.1594 -0.1347
14565TIP3    H265111   4.294   3.773  16.643 -0.0332  0.0764 -0.0688
14566TIP3   OH265112   5.536   2.229  13.117 -0.2126  0.1137  0.8514
14566TIP3    H165113   5.503   2.151  13.074 -2.6936  1.0249  0.9724
14566TIP3    H265114   5.607   2.260  13.060  0.9781 -2.2592  0.9156
14567TIP3   OH265115   0.789   5.536  11.890 -0.5768 -0.0639  0.2755
14567TIP3    H165116   0.710   5.535  11.943 -0.2481 -0.6651  0.7606
14567TIP3    H265117   0.859   5.561  11.950 -0.3642  0.2681 -0.1037
14568TIP3   OH265118   3.412   4.482   0.391 -0.0797 -0.1914  0.0538
14568TIP3    H165119   3.431   4.490   0.485  0.3826  0.3168 -0.0758
14568TIP3    H265120   3.360   4.560   0.371  0.6505  0.2146 -0.3064
14569TIP3   OH265121   6.711   4.396  11.116  0.5667 -0.3974 -0.0737
14569TIP3    H165122   6.666   4.452  11.054  1.0280 -2.4456 -2.4269
14569TIP3    H265123   6.641   4.351  11.164 -0.0600 -2.4325 -2.6467
14570TIP3   OH265124   4.494   3.584  13.645 -0.1008 -0.4865  0.5435
14570TIP3    H165125   4.574   3.543  13.676  0.7205  0.1729 -0.6593
14570TIP3    H265126   4.445   3.513  13.604  1.7216 -0.1997 -2.3657
14571TIP3   OH265127   5.076   5.490  14.396  0.2315 -0.3257  0.4052
14571TIP3    H165128   4.984   5.463  14.391  0.2958 -0.4555 -0.1218
14571TIP3    H265129   5.098   5.514  14.307  0.0326  1.9788  0.9187
14572TIP3   OH265130   2.471   2.693  11.530 -0.1659  0.5478 -0.1967
14572TIP3    H165131   2.550   2.681  11.477  1.1285  0.6179  1.6156
14572TIP3    H265132   2.488   2.643  11.610 -1.5689  1.3281  0.6297
14573TIP3   OH265133   6.429   2.225   4.716 -0.3287 -1.0446  0.0021
14573TIP3    H165134   6.420   2.161   4.646  1.3754 -3.0529  1.4644
14573TIP3    H265135   6.488   2.183   4.779  0.5002  1.8061  1.3003
14574TIP3   OH265136   3.370   0.664   2.769  0.1961  0.7012 -0.3165
14574TIP3    H165137   3.353   0.603   2.698 -1.0493 -1.0684  1.3639
14574TIP3    H265138   3.413   0.739   2.728  0.1197 -0.5112 -2.7717
14575TIP3   OH265139   2.240   1.442   6.633 -0.1088 -0.5901  0.5432
14575TIP3    H165140   2.163   1.471   6.585  0.0705 -2.4604 -1.0210
14575TIP3    H265141   2.225   1.349   6.649  0.4774 -0.3398  2.9859
14576TIP3   OH265142   1.747   6.353   3.078  0.0852 -0.0614 -0.3324
14576TIP3    H165143   1.762   6.355   2.984 -1.3945 -0.1551 -0.5962
14576TIP3    H265144   1.790   6.273   3.108  0.1282 -0.3001 -1.0123
14577TIP3   OH265145   2.180   2.058  11.831 -0.4164 -0.5389  0.1400
14577TIP3    H165146   2.250   1.996  11.854 -0.0421 -0.7048 -1.3562
14577TIP3    H265147   2.216   2.108  11.758 -0.2433  2.3339  2.0623
14578TIP3   OH265148   1.523   6.446   3.241 -0.0207  0.2615  0.9738
14578TIP3    H165149   1.563   6.430   3.155  1.0339  0.7060  1.3689
14578TIP3    H265150   1.517   6.359   3.280  0.2132  0.1432  0.7531
14579TIP3   OH265151   3.990   4.435  14.639 -0.3506  0.1495  0.3771
14579TIP3    H165152   3.936   4.482  14.702 -1.0873 -0.5549  0.2736
14579TIP3    H265153   3.930   4.377  14.593  0.5885 -1.0943  0.6740
14580TIP3   OH265154   1.821   2.762   1.176  0.2749  0.0296  0.3518
14580TIP3    H165155   1.862   2.698   1.234  1.0067  0.4304  0.2960
14580TIP3    H265156   1.738   2.783   1.217  0.1462 -0.7592  0.5043
14581TIP3   OH265157   6.277   2.330   4.423 -0.2116  0.2381  0.3036
14581TIP3    H165158   6.325   2.347   4.342  0.0065  1.2949  0.6405
14581TIP3    H265159   6.335   2.360   4.492 -0.1573 -1.1702  0.9177
14582TIP3   OH265160   6.567   3.620   0.519 -0.3709  0.0103  0.3729
14582TIP3    H165161   6.655   3.585   0.529  0.7697  2.5825  0.2799
14582TIP3    H265162   6.539   3.590   0.433  0.6872 -0.3103  0.1251
14583TIP3   OH265163   1.977   0.221   4.223  0.1595  0.8321  0.1236
14583TIP3    H165164   2.050   0.163   4.201  0.9015  2.3590 -1.8033
14583TIP3    H265165   1.900   0.163   4.225  0.9316 -0.3097 -1.2485
14584TIP3   OH265166   0.045   6.755  15.281  0.0111  0.3225 -0.7654
14584TIP3    H165167   0.038   6.679  15.338 -0.2662 -0.0877 -1.3281
14584TIP3    H265168   0.075   6.826  15.338 -0.7746  0.0597 -0.0001
14585TIP3   OH265169   5.335   1.216   5.161  0.2467  0.0608  0.1438
14585TIP3    H165170   5.357   1.295   5.212  1.5694 -0.9287  1.2009
14585TIP3    H265171   5.329   1.147   5.227 -1.2091 -0.6864 -0.7340
14586TIP3   OH265172   1.058   1.657   2.913  0.3093 -0.2612  0.1368
14586TIP3    H165173   1.033   1.624   2.999  2.6915 -1.2131  0.5198
14586TIP3    H265174   1.153   1.648   2.910  0.1848 -2.3453 -3.3876
14587TIP3   OH265175   4.567   5.583   1.726  0.0643 -0.0024 -0.3559
14587TIP3    H165176   4.545   5.603   1.816  1.6916  0.6874 -0.0869
14587TIP3    H265177   4.525   5.498   1.709  0.7290 -0.7189  1.4252
14588TIP3   OH265178   1.699   0.711  15.401 -0.1871 -0.2270 -0.4777
14588TIP3    H165179   1.724   0.624  15.432 -0.3461 -0.0859  0.0626
14588TIP3    H265180   1.755   0.726  15.324  1.2112 -0.0230  0.5387
14589TIP3   OH265181   4.881   4.585   1.715 -0.2227  0.5666  0.8667
14589TIP3    H165182   4.792   4.604   1.744 -0.3196  0.8807  0.3862
14589TIP3    H265183   4.905   4.661   1.661  0.0972  0.1929  0.4733
14590TIP3   OH265184   6.732   5.786  12.883  0.0871  0.6414  0.8951
14590TIP3    H165185   6.770   5.720  12.941  1.8060  0.4260 -0.3827
14590TIP3    H265186   6.755   5.869  12.925  1.2176  0.4863  0.6264
14591TIP3   OH265187   1.521   0.323  12.034  0.2254  0.0726 -0.3995
14591TIP3    H165188   1.456   0.393  12.030  1.2560  1.0136 -1.8077
14591TIP3    H265189   1.491   0.257  11.972  0.3058  0.2282 -0.6041
14592TIP3   OH265190   5.128   2.216  15.277  0.0001 -0.4052 -0.6121
14592TIP3    H165191   5.048   2.183  15.318 -0.4996 -0.7001 -1.7747
14592TIP3    H265192   5.123   2.186  15.186  0.3951  1.3770 -1.2659
14593TIP3   OH265193   2.651   2.700  14.644 -0.2682  0.2706 -0.4469
14593TIP3    H165194   2.643   2.648  14.724  0.1613 -0.8599 -1.1157
14593TIP3    H265195   2.614   2.786  14.667  1.1298  0.4428  1.3884
14594TIP3   OH265196   5.173   6.022  11.443 -0.3079 -0.0902  0.3374
14594TIP3    H165197   5.195   5.929  11.453 -0.2182  0.0129  1.1782
14594TIP3    H265198   5.129   6.027  11.358 -1.9192 -1.2102  1.0553
14595TIP3   OH265199   4.202   3.964   4.503 -0.5120 -0.2948  0.3684
14595TIP3    H165200   4.158   3.949   4.587 -1.4152 -1.2183 -0.2444
14595TIP3    H265201   4.130   3.978   4.441  0.1212 -0.3393 -0.3826
14596TIP3   OH265202   2.077   4.237   1.865 -0.3386 -0.6521 -0.6073
14596TIP3    H165203   2.053   4.226   1.957 -1.5012  1.8393 -0.5242
14596TIP3    H265204   1.999   4.210   1.817  0.3060 -2.0560 -0.9249
14597TIP3   OH265205   0.107   5.103   2.715  0.2006  0.3721 -0.2423
14597TIP3    H165206   0.150   5.021   2.737 -0.6555  0.0884  0.4213
14597TIP3    H265207   0.178   5.165   2.702  0.8230 -0.2249  0.2589
14598TIP3   OH265208   2.992   2.385  12.865 -0.5431 -0.3549  0.2865
14598TIP3    H165209   2.982   2.479  12.881 -0.1705 -0.0840 -0.9651
14598TIP3    H265210   3.087   2.372  12.856 -0.4838 -1.0848  1.6849
14599TIP3   OH265211   2.398   4.422   6.411  0.1095  0.3098 -0.0705
14599TIP3    H165212   2.392   4.399   6.504 -2.8266 -0.9912 -0.4581
14599TIP3    H265213   2.415   4.516   6.410  3.9182 -0.1571  1.6615
14600TIP3   OH265214   1.342   0.935  13.946 -0.0163  0.4259 -0.5945
14600TIP3    H165215   1.375   1.014  13.988 -0.4378  1.0977 -1.5114
14600TIP3    H265216   1.372   0.940  13.856 -1.1624  0.2143 -1.0130
14601TIP3   OH265217   3.867   4.245   2.018 -0.4558  0.3217 -0.1894
14601TIP3    H165218   3.871   4.339   2.007 -1.1772  0.2836 -0.8090
14601TIP3    H265219   3.952   4.213   1.989 -0.7835  0.6312 -1.5250
14602TIP3   OH265220   3.416   3.392  11.686 -0.3237  0.7122 -0.2205
14602TIP3    H165221   3.434   3.366  11.777  0.3182 -0.0653 -0.5597
14602TIP3    H265222   3.321   3.390  11.679 -0.3262 -1.0368 -0.0649
14603TIP3   OH265223   6.391   3.468  16.430  0.3084 -0.2678  0.6473
14603TIP3    H165224   6.375   3.550  16.477  1.7648  0.5460 -0.1962
14603TIP3    H265225   6.486   3.456  16.434  0.0975 -2.1470  1.0807
14604TIP3   OH265226   5.288   5.574  10.662  0.0353 -0.1935  0.0956
14604TIP3    H165227   5.335   5.564  10.579  0.9029  0.2782  0.5071
14604TIP3    H265228   5.355   5.607  10.722 -0.0679 -2.3753  1.5107
14605TIP3   OH265229   6.228   2.445   5.112 -0.8565  0.3319 -0.5841
14605TIP3    H165230   6.214   2.392   5.034 -1.3023  0.4057 -0.5563
14605TIP3    H265231   6.250   2.381   5.181  0.7282  0.3547 -1.0260
14606TIP3   OH265232   6.311   6.590  16.333  0.3687 -0.2265  0.0229
14606TIP3    H165233   6.382   6.626  16.386  1.1219 -0.8873 -0.5258
14606TIP3    H265234   6.306   6.498  16.358 -1.7215  0.2428  1.6078
14607TIP3   OH265235   1.812   4.347   3.049  0.2848  0.0494  0.0834
14607TIP3    H165236   1.742   4.295   3.010  0.4210 -0.8611  0.9882
14607TIP3    H265237   1.834   4.413   2.983 -0.5713 -0.4337 -0.6998
14608TIP3   OH265238   0.237   3.604  17.059  0.0707  0.6468 -0.1164
14608TIP3    H165239   0.142   3.607  17.046  0.0674  0.6201 -0.0961
14608TIP3    H265240   0.258   3.511  17.065 -0.1473  0.6980  1.7650
14609TIP3   OH265241   1.182   6.065   0.033 -0.5164  0.3798 -0.0032
14609TIP3    H165242   1.157   5.978   0.003  3.8376 -1.8837  1.9311
14609TIP3    H265243   1.226   6.105  -0.042 -1.0760  0.2605 -0.4028
14610TIP3   OH265244   3.084   1.113   4.861  0.3160 -0.4482 -0.2959
14610TIP3    H165245   3.157   1.163   4.824  1.0348 -1.0912  0.2081
14610TIP3    H265246   3.036   1.177   4.915  2.3879 -0.6492  2.0018
14611TIP3   OH265247   1.700   5.050  11.524 -0.0167  0.2691 -0.0300
14611TIP3    H165248   1.645   5.121  11.492 -1.1324 -0.5923 -0.1115
14611TIP3    H265249   1.725   5.002  11.445  0.5936  0.4741  0.0372
14612TIP3   OH265250   5.467   5.152  16.704  0.6698  0.2189  0.0225
14612TIP3    H165251   5.534   5.106  16.653  0.6550 -2.8124  2.4479
14612TIP3    H265252   5.517   5.217  16.754  1.5179 -0.5640  0.2316
14613TIP3   OH265253   1.134   0.250  15.570  0.2831  0.5628  0.0425
14613TIP3    H165254   1.112   0.287  15.484  1.2978 -1.5128 -1.1901
14613TIP3    H265255   1.203   0.187  15.552  0.2966 -0.1757  2.3665
14614TIP3   OH265256   4.587   5.846  14.141 -0.2989 -0.5462 -0.6133
14614TIP3    H165257   4.675   5.883  14.154 -0.0493 -1.5327  0.7187
14614TIP3    H265258   4.534   5.887  14.209 -1.1857  0.9002 -2.1141
14615TIP3   OH265259   1.507   5.535  11.426  0.2606  0.0515 -0.6781
14615TIP3    H165260   1.477   5.555  11.338 -0.2840  0.7100 -0.3517
14615TIP3    H265261   1.500   5.618  11.473 -1.3355 -0.6938  0.5103
14616TIP3   OH265262   2.559   3.492  15.981 -0.6758  0.7965  0.0778
14616TIP3    H165263   2.480   3.439  15.979  0.0774 -0.3449 -0.4553
14616TIP3    H265264   2.538   3.569  15.927 -0.2039 -1.3500 -3.5095
14617TIP3   OH265265   2.063   3.012   0.201 -1.0040 -0.3273  0.0055
14617TIP3    H165266   2.077   2.918   0.198  1.3850 -0.0122 -1.3022
14617TIP3    H265267   2.027   3.028   0.289  0.8824 -2.1877  1.2156
14618TIP3   OH265268   3.148   0.888  14.372 -0.2466 -0.5571  0.3027
14618TIP3    H165269   3.134   0.882  14.467  1.7088 -2.1336  0.5676
14618TIP3    H265270   3.224   0.946  14.363 -0.1412 -0.7793 -0.2699
14619TIP3   OH265271   4.994   4.338  12.086 -0.0283 -0.0940 -0.0048
14619TIP3    H165272   5.071   4.317  12.034 -0.6785 -4.4974  0.4077
14619TIP3    H265273   5.028   4.351  12.175  0.4267  0.2680 -0.2275
14620TIP3   OH265274   0.678   2.838   0.006  0.0225  0.1858 -0.1239
14620TIP3    H165275   0.772   2.849   0.018  0.2790 -0.6970 -1.1134
14620TIP3    H265276   0.642   2.927   0.012  1.0171  0.6223 -0.4785
14621TIP3   OH265277   1.260   3.051   0.416 -0.3689 -0.8175  0.3286
14621TIP3    H165278   1.271   3.146   0.425 -0.2977 -0.7660 -0.2722
14621TIP3    H265279   1.211   3.040   0.335  1.2300 -1.3738 -0.5991
14622TIP3   OH265280   0.477   2.688  16.885  0.3049 -0.0999  0.0602
14622TIP3    H165281   0.482   2.730  16.971 -1.2842  0.0422  0.1075
14622TIP3    H265282   0.416   2.742  16.835  0.6375 -0.6039 -0.9187
14623TIP3   OH265283   4.043   5.004  15.884 -0.2584  0.1618 -0.3838
14623TIP3    H165284   4.003   4.933  15.833 -2.4943  1.2841 -0.3081
14623TIP3    H265285   4.075   4.962  15.964 -1.9142 -0.7278 -0.1502
14624TIP3   OH265286   4.872   4.595  16.090 -0.2853  0.9034 -0.1966
14624TIP3    H165287   4.889   4.667  16.151  2.1492  0.6218 -0.4147
14624TIP3    H265288   4.788   4.558  16.118 -1.1512  3.2253  0.4667
14625TIP3   OH265289   3.714   1.706  16.200  0.0460  0.3505 -0.0544
14625TIP3    H165290   3.742   1.669  16.116 -0.5190  0.0294 -0.1064
14625TIP3    H265291   3.619   1.697  16.200 -0.2755  3.1478 -0.6741
14626TIP3   OH265292   5.117   1.840   4.219 -0.2004 -0.4802  0.2346
14626TIP3    H165293   5.044   1.796   4.177  0.3088 -1.0633 -0.0585
14626TIP3    H265294   5.089   1.851   4.310 -0.2057 -1.7549  0.4071
14627TIP3   OH265295   1.286   3.293  16.870  0.1929 -0.1576 -0.5900
14627TIP3    H165296   1.315   3.360  16.932  0.9151 -0.2372 -0.8299
14627TIP3    H265297   1.324   3.211  16.903 -1.9887 -0.7659  0.6044
14628TIP3   OH265298   0.252   2.325   0.192  0.7157  0.4865 -0.6736
14628TIP3    H165299   0.304   2.344   0.269 -1.1364 -1.2051  1.1047
14628TIP3    H265300   0.163   2.350   0.217 -0.0180 -0.6035 -2.0659
14629TIP3   OH265301   0.498   2.622  14.983 -0.0328 -0.1813  0.2565
14629TIP3    H165302   0.405   2.598  14.987 -0.6156  1.9158  0.5112
14629TIP3    H265303   0.499   2.706  14.938  1.7556 -0.1470  0.2906
14630TIP3   OH265304   6.209   3.559   0.347 -0.6966 -0.2121 -0.1829
14630TIP3    H165305   6.279   3.622   0.365  1.2106 -2.8581  2.7242
14630TIP3    H265306   6.142   3.579   0.412  0.2220 -1.4177  1.2292
14631TIP3   OH265307   1.117   1.842  13.604  0.1079 -0.0771 -0.0287
14631TIP3    H165308   1.071   1.911  13.556 -0.2306  0.2283  0.7110
14631TIP3    H265309   1.047   1.795  13.650  0.3125 -1.0429 -0.6642
14632TIP3   OH265310   0.450   0.652  17.287 -0.3953 -0.1166 -0.1323
14632TIP3    H165311   0.465   0.649  17.382 -1.0222  1.4496  0.0485
14632TIP3    H265312   0.355   0.644  17.278 -0.3376 -0.2468 -0.6272
14633TIP3   OH265313   4.858   5.333   2.899 -0.2432 -0.3495 -0.0731
14633TIP3    H165314   4.804   5.259   2.928  1.6099 -0.9728  2.0705
14633TIP3    H265315   4.893   5.371   2.980 -0.4854  2.4277 -1.1559
14634TIP3   OH265316   3.319   1.793   4.357 -0.0529  0.2339 -0.0206
14634TIP3    H165317   3.249   1.855   4.375  0.5136  0.7497  0.4477
14634TIP3    H265318   3.392   1.847   4.326  0.2186 -0.2676 -0.2697
14635TIP3   OH265319   4.543   0.184   0.363 -0.1026 -0.2856 -0.0122
14635TIP3    H165320   4.463   0.132   0.356 -0.9203  0.9473 -0.2907
14635TIP3    H265321   4.601   0.133   0.418 -1.1970 -1.0883  0.4205
14636TIP3   OH265322   1.990   1.601   0.699  0.6805  0.3185 -0.2141
14636TIP3    H165323   1.926   1.661   0.662  0.4472  1.0866  1.3807
14636TIP3    H265324   2.070   1.619   0.650  0.1096  0.5135 -1.0987
14637TIP3   OH265325   6.130   5.895   6.607 -0.2219 -0.0453 -0.1682
14637TIP3    H165326   6.216   5.925   6.577  0.5019 -1.7223  0.1399
14637TIP3    H265327   6.087   5.975   6.637  1.1686  0.8579 -0.4489
14638TIP3   OH265328   5.945   5.897  16.731 -0.0599 -0.0389  0.0845
14638TIP3    H165329   5.936   5.871  16.823  0.3258  0.7960  0.3678
14638TIP3    H265330   6.033   5.934  16.725  0.7879 -2.0982 -1.1464
14639TIP3   OH265331   4.709   1.300  16.611 -0.0358 -0.0305 -0.1517
14639TIP3    H165332   4.676   1.358  16.542 -0.0231  1.0901  0.7584
14639TIP3    H265333   4.658   1.220  16.602  0.2916 -0.0842 -1.7539
14640TIP3   OH265334   0.376   0.811  12.020  0.0042  0.1971  0.1715
14640TIP3    H165335   0.458   0.797  12.068 -0.3499 -0.5428  0.5749
14640TIP3    H265336   0.337   0.888  12.061  0.1938  0.1722  0.4013
14641TIP3   OH265337   2.824   0.253  13.540  0.1738 -0.2092  0.2068
14641TIP3    H165338   2.892   0.286  13.481  1.0984  1.1295  1.9151
14641TIP3    H265339   2.743   0.260  13.489  1.1452 -0.7852 -1.4900
14642TIP3   OH265340   4.533   0.417   6.331 -0.2248  0.4187  0.0707
14642TIP3    H165341   4.602   0.484   6.326  1.9085 -1.7546 -2.4070
14642TIP3    H265342   4.456   0.459   6.292  0.8454  1.6779 -0.7731
14643TIP3   OH265343   6.057   5.485  16.733 -0.6898 -0.2947 -0.3418
14643TIP3    H165344   6.108   5.553  16.778 -1.1610 -0.2219  0.0909
14643TIP3    H265345   5.987   5.462  16.795 -0.0135 -1.8367 -0.0934
14644TIP3   OH265346   4.660   1.193  16.925 -0.4105 -0.4029  0.0441
14644TIP3    H165347   4.740   1.245  16.937 -0.7315  0.3065 -0.7833
14644TIP3    H265348   4.663   1.164  16.834 -0.5875 -1.2516  0.3033
14645TIP3   OH265349   4.725   3.036  15.113 -0.3307 -0.3102 -0.1738
14645TIP3    H165350   4.667   3.100  15.072 -0.0938  0.4155  0.6000
14645TIP3    H265351   4.798   3.028  15.051 -1.6981 -2.0277 -1.6752
14646TIP3   OH265352   5.450   3.459  13.688  0.1569 -0.0771  0.1354
14646TIP3    H165353   5.358   3.481  13.671 -0.1793 -1.4795  0.0068
14646TIP3    H265354   5.459   3.468  13.783 -0.5748 -1.4671  0.3636
14647TIP3   OH265355   2.037   4.825  16.630 -0.4119 -0.2595  0.4580
14647TIP3    H165356   2.029   4.919  16.615  0.1083 -0.2348  0.2967
14647TIP3    H265357   1.965   4.786  16.581  0.5679 -0.0851 -1.2116
14648TIP3   OH265358   2.776   3.755  11.593  0.3033  0.0981 -0.4054
14648TIP3    H165359   2.729   3.786  11.670  1.1753  2.1421 -0.6396
14648TIP3    H265360   2.773   3.659  11.600 -2.5287  0.1409  0.3637
14649TIP3   OH265361   3.769   4.429  16.965  0.2396  0.6545 -0.2832
14649TIP3    H165362   3.763   4.473  16.880  2.4901 -0.8756 -1.3586
14649TIP3    H265363   3.841   4.474  17.010 -0.3124  0.8368  0.4338
14650TIP3   OH265364   6.678   2.735  12.064  0.1739 -0.7574  0.4600
14650TIP3    H165365   6.649   2.711  12.152 -0.4630 -1.5070  0.0596
14650TIP3    H265366   6.737   2.665  12.039 -1.7386 -2.0358 -0.7376
14651TIP3   OH265367   3.168   5.736   1.095  0.0796 -0.1920 -0.3938
14651TIP3    H165368   3.094   5.679   1.112  0.5250 -0.5932  0.2342
14651TIP3    H265369   3.176   5.790   1.174 -0.3828  0.8047 -1.0051
14652TIP3   OH265370   6.499   6.146  16.621  0.1147  0.0998 -0.2743
14652TIP3    H165371   6.587   6.180  16.606 -0.0384 -0.4282 -2.7396
14652TIP3    H265372   6.508   6.093  16.701  1.9527  0.3176 -0.2850
14653TIP3   OH265373   3.569   3.543  13.191 -0.6450  0.1748  0.0796
14653TIP3    H165374   3.507   3.573  13.125 -0.0064  1.1979 -0.0840
14653TIP3    H265375   3.586   3.451  13.169  2.0896  1.2889 -3.2844
14654TIP3   OH265376   3.851   2.106   1.221  0.0597 -0.1374 -0.2640
14654TIP3    H165377   3.768   2.059   1.226 -0.6114  1.0832  0.5460
14654TIP3    H265378   3.908   2.060   1.282 -0.1789 -0.6541 -0.4223
14655TIP3   OH265379   2.196   1.287   4.503  0.4092  0.0178 -0.3520
14655TIP3    H165380   2.272   1.264   4.557  0.3784  1.1750  0.2020
14655TIP3    H265381   2.120   1.262   4.557  0.3854 -0.0981 -0.4386
14656TIP3   OH265382   0.338   3.165   5.893 -0.5389  0.6643  0.0406
14656TIP3    H165383   0.294   3.130   5.971  1.1341 -1.1470  0.2728
14656TIP3    H265384   0.417   3.206   5.928  0.9359 -1.3572 -0.6937
14657TIP3   OH265385   5.932   0.106   2.835 -0.1291  0.1228 -0.0262
14657TIP3    H165386   5.980   0.104   2.753 -1.1900  1.3164 -0.7227
14657TIP3    H265387   5.975   0.174   2.887 -0.4678  0.5316 -0.2729
14658TIP3   OH265388   5.119   5.912  12.137 -0.1135 -0.4287 -0.2176
14658TIP3    H165389   5.101   5.852  12.065 -0.7802 -0.5494  0.0407
14658TIP3    H265390   5.202   5.952  12.114  0.4514 -1.5932 -0.3125
14659TIP3   OH265391   2.831   4.029   5.389  0.5469 -0.2779 -1.0488
14659TIP3    H165392   2.841   4.058   5.479  0.7638 -0.2755 -1.0742
14659TIP3    H265393   2.894   3.959   5.378  0.5543 -0.2470 -1.2128
14660TIP3   OH265394   0.912   1.150   4.152  0.2059 -0.2491  0.4139
14660TIP3    H165395   0.991   1.095   4.153 -1.0149 -2.1490 -0.4870
14660TIP3    H265396   0.936   1.226   4.100  1.4164 -0.8486  0.0488
14661TIP3   OH265397   2.890   5.890  15.686 -0.3182  0.1902  0.4116
14661TIP3    H165398   2.818   5.855  15.739  0.8077 -2.1027  0.5263
14661TIP3    H265399   2.895   5.982  15.711 -0.5981 -0.5090  3.4501
14662TIP3   OH265400   4.853   2.146   5.214 -0.4019 -0.0157 -0.1256
14662TIP3    H165401   4.760   2.122   5.211 -0.5533  0.4947  0.3282
14662TIP3    H265402   4.857   2.230   5.168 -0.5512  1.1034  1.7851
14663TIP3   OH265403   1.538   1.560  17.187 -0.1630  0.2818  0.1261
14663TIP3    H165404   1.582   1.644  17.172 -0.9159  0.8335  0.8837
14663TIP3    H265405   1.534   1.519  17.101  2.8679 -0.3323  0.1672
14664TIP3   OH265406   6.481   1.203  14.982  0.0225 -0.5100  0.7773
14664TIP3    H165407   6.521   1.174  14.900 -2.7518  0.3531 -1.0442
14664TIP3    H265408   6.493   1.298  14.981 -0.8007 -0.3954  0.8720
14665TIP3   OH265409   0.009   4.841   0.698  0.0883 -0.1150  1.2155
14665TIP3    H165410   0.084   4.888   0.734  0.0962  1.1826 -0.3743
14665TIP3    H265411   0.039   4.808   0.614 -0.5779 -1.1778  1.3741
14666TIP3   OH265412   1.821   0.953   4.942  0.2774  0.2344 -0.0048
14666TIP3    H165413   1.745   1.011   4.947  0.6717  0.7435  0.0620
14666TIP3    H265414   1.786   0.867   4.965 -0.5284  0.2313 -1.1295
14667TIP3   OH265415   4.661   4.717   1.782 -0.3254  0.2131  0.4033
14667TIP3    H165416   4.639   4.726   1.875 -0.4026 -1.2205  0.5501
14667TIP3    H265417   4.704   4.799   1.760 -0.2157  0.5450  1.7332
14668TIP3   OH265418   5.658   6.092  14.009  0.8200  0.4756  0.8152
14668TIP3    H165419   5.617   6.175  13.985  0.9415  0.4086  0.3680
14668TIP3    H265420   5.585   6.034  14.033  0.7343  0.7006  1.1049
14669TIP3   OH265421   0.499   6.756  15.430  0.0925 -0.2717  0.2512
14669TIP3    H165422   0.527   6.823  15.368 -1.4816  0.7732  0.6161
14669TIP3    H265423   0.497   6.800  15.515  0.5701 -1.2194  0.7722
14670TIP3   OH265424   5.338   2.622   0.151  0.7452 -0.1365 -0.8741
14670TIP3    H165425   5.415   2.639   0.206  0.8770 -2.4495 -0.2123
14670TIP3    H265426   5.264   2.629   0.211  0.6486  0.0174 -1.0139
14671TIP3   OH265427   6.697   0.400   3.880 -0.3934  0.2050 -0.2110
14671TIP3    H165428   6.687   0.317   3.833  0.5783 -1.4482  2.2528
14671TIP3    H265429   6.776   0.388   3.933 -0.3211  2.6793  0.3546
14672TIP3   OH265430   3.188   2.181   1.588  0.0547 -0.8170  0.2554
14672TIP3    H165431   3.228   2.094   1.584 -0.1203 -0.8781 -0.2439
14672TIP3    H265432   3.127   2.183   1.514  1.0062  0.2084 -0.5195
14673TIP3   OH265433   4.187   0.524   5.197  0.1712  0.3089  0.2495
14673TIP3    H165434   4.188   0.429   5.196 -0.2794  0.2954  0.6098
14673TIP3    H265435   4.192   0.550   5.105 -1.0547 -0.0797  0.0537
14674TIP3   OH265436   6.511   2.889   5.880  0.8359 -0.8336 -0.0817
14674TIP3    H165437   6.425   2.885   5.920  0.2734  0.5576 -1.0621
14674TIP3    H265438   6.572   2.873   5.952 -0.1640  0.5291  1.1317
14675TIP3   OH265439   2.799   1.585  14.486  0.2780 -0.1388 -0.2238
14675TIP3    H165440   2.867   1.647  14.514 -1.0929  1.6465 -0.6567
14675TIP3    H265441   2.848   1.516  14.440  1.9357  0.1893  0.9478
14676TIP3   OH265442   4.852   6.727  17.300  0.3540 -0.1429 -0.2218
14676TIP3    H165443   4.909   6.678  17.241 -0.2825  0.8171 -1.6800
14676TIP3    H265444   4.912   6.778  17.355  0.9456 -0.9501 -0.0950
14677TIP3   OH265445   0.209   6.667   3.342  0.1436  0.1337  0.3138
14677TIP3    H165446   0.120   6.703   3.334 -0.5804 -1.5668  0.2460
14677TIP3    H265447   0.266   6.740   3.322 -1.2214  1.5409  1.3160
14678TIP3   OH265448   0.894   5.113  17.206  0.7462  0.1201 -0.9414
14678TIP3    H165449   0.849   5.030  17.191  0.2439  0.4515 -1.3393
14678TIP3    H265450   0.841   5.177  17.158  1.4326  0.5817 -1.0905
14679TIP3   OH265451   5.346   2.156   1.405  0.3997  0.0676  0.4925
14679TIP3    H165452   5.398   2.128   1.330  1.1725 -0.9697  1.3925
14679TIP3    H265453   5.371   2.097   1.476 -1.7517 -0.2515  1.0678
14680TIP3   OH265454   1.966   3.949  11.490 -0.2705  0.2274  0.7474
14680TIP3    H165455   1.882   3.971  11.450 -1.0138 -1.5969  1.1978
14680TIP3    H265456   1.943   3.901  11.570  1.2083  0.3659  1.2947
14681TIP3   OH265457   5.234   6.217   2.184  0.2666 -0.4018 -0.3454
14681TIP3    H165458   5.167   6.265   2.136  1.6225 -0.6490 -2.6262
14681TIP3    H265459   5.233   6.130   2.146  1.1189 -0.7479  0.3962
14682TIP3   OH265460   1.267   6.023  11.316  0.1711 -0.8074 -0.7162
14682TIP3    H165461   1.290   5.963  11.387 -1.4756 -2.1945 -1.2876
14682TIP3    H265462   1.250   5.966  11.241 -0.8429  0.4172 -1.4488
14683TIP3   OH265463   0.490   0.104   0.801 -0.0610  0.3651 -0.3894
14683TIP3    H165464   0.444   0.094   0.884 -1.2633 -0.3071 -1.1150
14683TIP3    H265465   0.491   0.198   0.785  1.1279  0.6092  0.8768
14684TIP3   OH265466   2.444   2.780  12.502  0.0280 -0.1272  0.0222
14684TIP3    H165467   2.507   2.717  12.538  0.6219  0.3779 -0.1120
14684TIP3    H265468   2.483   2.808  12.419 -1.3455 -1.3130 -1.0834
14685TIP3   OH265469   6.108   1.023  11.296  0.3054 -0.3756 -0.3604
14685TIP3    H165470   6.116   1.053  11.386  0.5673 -1.1064 -0.1279
14685TIP3    H265471   6.069   0.936  11.303  0.8997 -0.6984 -0.9052
14686TIP3   OH265472   2.379   2.745   5.833 -0.3633 -0.4542  0.4893
14686TIP3    H165473   2.388   2.739   5.738  1.1206  0.2238  0.5568
14686TIP3    H265474   2.436   2.676   5.867  1.2382  1.0048  0.8999
14687TIP3   OH265475   1.978   5.542   3.895 -0.1414 -0.0944 -0.2358
14687TIP3    H165476   2.071   5.520   3.898 -0.2892 -0.6589  1.1756
14687TIP3    H265477   1.933   5.458   3.907 -0.8937 -0.0724 -2.4839
14688TIP3   OH265478   2.932   3.176  12.449  0.7849  0.0582  0.8942
14688TIP3    H165479   2.850   3.135  12.423  1.2441 -0.1862 -0.2432
14688TIP3    H265480   2.991   3.102  12.469  2.0633 -0.0120 -2.5397
14689TIP3   OH265481   5.201   6.467  13.905  0.3350 -0.2748  0.4613
14689TIP3    H165482   5.202   6.563  13.911 -0.8336 -0.1526 -0.7767
14689TIP3    H265483   5.231   6.448  13.817 -0.3644 -1.0050  0.3702
14690TIP3   OH265484   5.809   4.291  13.260 -0.2809 -0.6874 -0.2250
14690TIP3    H165485   5.749   4.350  13.306 -2.2525 -1.0562 -2.1576
14690TIP3    H265486   5.892   4.300  13.307 -1.0933  1.9173  0.9072
14691TIP3   OH265487   3.319   0.921   1.692 -0.1304  0.3923  0.2021
14691TIP3    H165488   3.328   0.863   1.767 -0.5527  1.1836  0.8789
14691TIP3    H265489   3.406   0.922   1.652  0.2766  0.4972  1.0691
14692TIP3   OH265490   0.337   1.177  13.991  0.3576  0.1675 -0.3936
14692TIP3    H165491   0.329   1.223  14.074  0.5328 -0.8550  0.1967
14692TIP3    H265492   0.370   1.243  13.930  4.5131 -0.0557  1.3319
14693TIP3   OH265493   6.264   1.603   0.260  0.2573  0.7754 -0.0114
14693TIP3    H165494   6.338   1.663   0.259 -0.3567  1.6420  1.8426
14693TIP3    H265495   6.261   1.567   0.171  1.9002  1.9237 -0.5793
14694TIP3   OH265496   1.527   4.350   1.324  0.2332 -0.7876  0.0882
14694TIP3    H165497   1.521   4.267   1.372  0.8922 -0.9071 -0.0279
14694TIP3    H265498   1.605   4.393   1.360 -0.2259 -0.1087  0.3088
14695TIP3   OH265499   4.484   3.989   3.849  0.4797  0.3862 -0.7385
14695TIP3    H165500   4.571   3.975   3.885 -0.0482 -0.6742  0.1881
14695TIP3    H265501   4.492   4.067   3.795  1.8560  0.6548 -0.1693
14696TIP3   OH265502   2.750   4.848  16.500 -0.5297 -0.3448 -0.2306
14696TIP3    H165503   2.816   4.778  16.501 -0.2842 -0.1199  0.8398
14696TIP3    H265504   2.669   4.804  16.473 -0.1657 -0.8441 -0.5269
14697TIP3   OH265505   4.605   6.210   2.087  0.0586  0.3562  0.1801
14697TIP3    H165506   4.688   6.170   2.061  0.1075 -1.4877  2.7526
14697TIP3    H265507   4.630   6.287   2.138  0.1935  0.0576  0.5696
14698TIP3   OH265508   5.679   3.996  15.761  0.3653 -0.5164 -0.1150
14698TIP3    H165509   5.727   3.917  15.787  0.1564 -1.2963 -1.9159
14698TIP3    H265510   5.636   3.972  15.679  0.9610  1.7310 -1.1634
14699TIP3   OH265511   4.120   6.399  13.798 -0.4515  0.0071 -0.3006
14699TIP3    H165512   4.186   6.369  13.736  0.2685 -0.6444  0.7525
14699TIP3    H265513   4.126   6.338  13.871  0.1134  1.8836  1.3022
14700TIP3   OH265514   3.588   6.129   0.473 -0.3463  0.1576  0.5448
14700TIP3    H165515   3.615   6.052   0.423 -0.1231 -0.7582  2.0255
14700TIP3    H265516   3.493   6.117   0.486 -0.3927  0.3631  0.4060
14701TIP3   OH265517   0.123   4.201  15.389  0.5211  0.6615  0.5187
14701TIP3    H165518   0.166   4.287  15.382  0.2801  0.7612  0.2182
14701TIP3    H265519   0.142   4.171  15.477  0.8925  0.8759  0.5136
14702TIP3   OH265520   6.559   3.211  15.762  0.2854  0.2765 -0.0881
14702TIP3    H165521   6.492   3.179  15.701  1.1914 -0.4767 -0.7181
14702TIP3    H265522   6.516   3.283  15.809 -1.3635 -0.9428  0.3825
14703TIP3   OH265523   6.614   0.525   0.517  0.3982  0.5866  0.5349
14703TIP3    H165524   6.572   0.442   0.538 -0.1840  0.6922 -0.2096
14703TIP3    H265525   6.675   0.505   0.446  0.1798  0.8130  0.2804
14704TIP3   OH265526   0.087   1.790  17.357 -0.5393  0.5822  0.0652
14704TIP3    H165527   0.170   1.747  17.378  0.1849  0.6427 -2.3980
14704TIP3    H265528   0.085   1.867  17.414  1.2848  0.7862 -0.1085
14705TIP3   OH265529   2.375   2.603   3.090 -0.6809  0.2203  0.2620
14705TIP3    H165530   2.365   2.531   3.028 -1.1343  0.3397  0.1976
14705TIP3    H265531   2.340   2.569   3.173  2.3051 -0.8976  1.1992
14706TIP3   OH265532   3.225   2.105  14.782 -0.1709 -0.3698 -0.2153
14706TIP3    H165533   3.301   2.154  14.748 -1.2746  0.7278 -1.2135
14706TIP3    H265534   3.215   2.032  14.721  1.0385 -1.5015  0.8634
14707TIP3   OH265535   0.069   2.753  13.281  0.0858  0.0849 -0.0637
14707TIP3    H165536   0.011   2.798  13.221 -0.9109 -0.2260  0.6398
14707TIP3    H265537   0.141   2.815  13.296 -0.8040  1.0963  0.1927
14708TIP3   OH265538   1.978   1.518  11.950  0.4248 -0.1860 -0.2144
14708TIP3    H165539   1.997   1.577  11.877  0.1721 -0.9447 -0.9085
14708TIP3    H265540   1.914   1.456  11.915 -0.7222  0.2172  1.0383
14709TIP3   OH265541   0.261   6.742   3.875 -0.1634 -0.0779  0.1972
14709TIP3    H165542   0.292   6.695   3.798 -0.7365  1.8787 -1.2954
14709TIP3    H265543   0.310   6.703   3.948 -0.3349 -2.6673 -0.9603
14710TIP3   OH265544   6.346   5.775  16.260 -0.0068 -0.3307 -0.1117
14710TIP3    H165545   6.412   5.708  16.278  1.2361  0.5538 -1.2525
14710TIP3    H265546   6.361   5.841  16.328  0.1050 -0.2560 -0.2089
14711TIP3   OH265547   0.059   5.040  12.901  0.0814 -0.3481  0.0088
14711TIP3    H165548  -0.030   5.065  12.878  0.1376  2.2918  2.2035
14711TIP3    H265549   0.105   5.123  12.915  2.6672 -1.6377 -0.1460
14712TIP3   OH265550   3.965   2.524   3.110 -0.0522 -0.1850 -0.6298
14712TIP3    H165551   3.985   2.468   3.184 -3.6201  0.6468  1.1862
14712TIP3    H265552   3.984   2.613   3.141 -2.7667  0.2941 -0.0828
14713TIP3   OH265553   4.654   5.107   2.809 -0.1484 -0.3263  0.8985
14713TIP3    H165554   4.629   5.057   2.731 -1.5113 -0.3407  1.3283
14713TIP3    H265555   4.683   5.041   2.871 -0.3941 -0.4423  0.8923
14714TIP3   OH265556   4.455   1.622  15.500  0.1985  0.6400  0.0457
14714TIP3    H165557   4.453   1.660  15.587 -0.6314 -1.2339  0.9013
14714TIP3    H265558   4.537   1.571  15.498 -0.4816 -0.4933  0.2881
14715TIP3   OH265559   4.776   1.491   2.067 -0.5362 -0.7024  0.0211
14715TIP3    H165560   4.808   1.529   1.984  0.4010 -1.1078  0.1880
14715TIP3    H265561   4.850   1.440   2.100 -1.2775 -1.4382  0.5680
14716TIP3   OH265562   0.980   0.632   5.532  0.3591  0.3027  0.1142
14716TIP3    H165563   1.062   0.601   5.570  0.6168  0.9728  0.1229
14716TIP3    H265564   0.927   0.658   5.607  0.2240  0.0902  0.0948
14717TIP3   OH265565   2.250   0.707  13.348 -0.1646 -0.3550 -0.3166
14717TIP3    H165566   2.217   0.737  13.264 -0.7172  1.1342  0.4065
14717TIP3    H265567   2.341   0.734  13.349 -0.6307  1.3177  0.2889
14718TIP3   OH265568   1.679   4.172  12.630  0.2331 -0.1394  0.0010
14718TIP3    H165569   1.610   4.238  12.626  1.3979  1.3734  2.3530
14718TIP3    H265570   1.643   4.102  12.685 -0.1236 -0.3327 -0.4688
14719TIP3   OH265571   4.806   5.562   1.567  0.3725  0.2533 -0.4712
14719TIP3    H165572   4.737   5.573   1.632 -0.4121  0.3738 -1.2978
14719TIP3    H265573   4.880   5.613   1.600  0.4065 -0.6273  0.8867
14720TIP3   OH265574   5.602   1.858  14.129 -0.3321 -0.0393  0.5685
14720TIP3    H165575   5.627   1.822  14.045 -0.6987 -1.4451  1.0362
14720TIP3    H265576   5.635   1.948  14.128  2.4690 -0.9777  0.1585
14721TIP3   OH265577   3.297   1.633   5.187 -0.9140  0.6961  0.0481
14721TIP3    H165578   3.262   1.689   5.257 -0.6956  0.4730  0.3397
14721TIP3    H265579   3.237   1.559   5.183  0.9696 -1.1368  2.4783
14722TIP3   OH265580   1.769   2.576   4.273  0.0323 -0.1624 -0.3853
14722TIP3    H165581   1.744   2.638   4.342  1.5213 -0.8476  0.8269
14722TIP3    H265582   1.734   2.615   4.193  0.5799  2.0674  0.3681
14723TIP3   OH265583   5.173   2.603  11.879 -0.2473 -0.1750 -0.1883
14723TIP3    H165584   5.175   2.536  11.810 -0.1791 -2.0309  1.5303
14723TIP3    H265585   5.125   2.562  11.951  0.3169  1.4258  1.1656
14724TIP3   OH265586   3.268   5.068   2.857  0.0568 -0.7703 -0.5832
14724TIP3    H165587   3.308   5.005   2.917 -1.0470  0.0331  1.0470
14724TIP3    H265588   3.229   5.135   2.913 -2.2784 -0.7231 -2.1046
14725TIP3   OH265589   1.596   6.154  16.992  0.1864  0.4775 -0.0818
14725TIP3    H165590   1.653   6.081  16.967 -1.0497 -0.8406  0.7778
14725TIP3    H265591   1.518   6.143  16.937  0.1505  1.4037 -0.2333
14726TIP3   OH265592   4.081   0.869  16.788 -0.1933 -0.5466 -0.2543
14726TIP3    H165593   3.986   0.857  16.791 -0.4192  1.1197  1.6088
14726TIP3    H265594   4.101   0.919  16.867  2.2219 -0.6507 -0.7254
14727TIP3   OH265595   4.545   1.731  13.585  1.0607 -0.2638  0.5002
14727TIP3    H165596   4.575   1.796  13.521 -0.9101 -0.4712 -0.7544
14727TIP3    H265597   4.510   1.783  13.658  1.3212  0.0453  0.4047
14728TIP3   OH265598   0.682   2.861   4.266  0.5098  0.3310  0.0259
14728TIP3    H165599   0.761   2.807   4.260  0.1152 -0.1115 -1.5047
14728TIP3    H265600   0.712   2.950   4.246  1.0323  0.6233  1.8697
14729TIP3   OH265601   2.661   2.199   2.876 -0.1518 -0.7810 -0.5142
14729TIP3    H165602   2.753   2.180   2.896 -0.2480  0.0650  0.8928
14729TIP3    H265603   2.656   2.193   2.781  2.0331  1.7663 -0.9240
14730TIP3   OH265604   5.045   0.137  17.381  0.4509 -0.0675  0.2563
14730TIP3    H165605   5.063   0.210  17.439  1.5447 -1.5474  1.8973
14730TIP3    H265606   4.998   0.175  17.307  0.1460  2.0991  1.5036
14731TIP3   OH265607   4.781   6.176   1.667 -1.0728  0.3453  1.0949
14731TIP3    H165608   4.757   6.266   1.646 -0.4172  0.3099  0.1154
14731TIP3    H265609   4.706   6.124   1.638 -0.2240  0.2991 -1.2969
14732TIP3   OH265610   1.245   1.802   1.711 -0.2693  0.1086 -0.0499
14732TIP3    H165611   1.259   1.710   1.687 -1.3149 -1.2349  3.7195
14732TIP3    H265612   1.318   1.824   1.768  0.9184  2.3604 -2.2168
14733TIP3   OH265613   2.583   0.950  11.655  0.0847  0.1467  0.4209
14733TIP3    H165614   2.503   1.000  11.675  0.6368  1.1191  0.2439
14733TIP3    H265615   2.647   0.980  11.720  0.2903 -0.6875  0.6110
14734TIP3   OH265616   3.774   6.697   6.123  0.5480 -0.2008 -0.2487
14734TIP3    H165617   3.810   6.782   6.098  1.4411 -0.2437  0.7926
14734TIP3    H265618   3.824   6.673   6.201  0.1323 -1.5657 -0.3873
14735TIP3   OH265619   1.709   0.174   4.471 -0.6453  0.0505  0.2935
14735TIP3    H165620   1.716   0.266   4.446 -0.3537  0.2218  0.9901
14735TIP3    H265621   1.717   0.126   4.388  0.7255  0.5855  0.0953
14736TIP3   OH265622   1.753   3.822   2.305  0.0522 -0.5545 -0.1395
14736TIP3    H165623   1.747   3.757   2.235 -0.0363  0.9183 -1.5483
14736TIP3    H265624   1.803   3.894   2.267  0.1738  0.2104  1.3923
14737TIP3   OH265625   2.592   3.917   5.519 -0.3161 -0.1427 -0.4933
14737TIP3    H165626   2.627   3.969   5.446 -0.8185  1.1417  0.1357
14737TIP3    H265627   2.662   3.857   5.542  0.5169  0.6481 -0.9018
14738TIP3   OH265628   1.187   2.300  14.235 -0.0932 -0.2811  0.4487
14738TIP3    H165629   1.214   2.218  14.277  1.3195  0.0789  0.2742
14738TIP3    H265630   1.240   2.367  14.277  1.5592  0.0836 -1.9900
14739TIP3   OH265631   5.815   0.620  13.533  0.3515  0.0192  0.7867
14739TIP3    H165632   5.901   0.605  13.495  0.0937  0.5812 -0.0591
14739TIP3    H265633   5.827   0.695  13.592  0.5393 -0.1968  1.0200
14740TIP3   OH265634   2.829   2.314  17.358  0.0228  0.3811 -0.1213
14740TIP3    H165635   2.899   2.320  17.293  0.3014 -0.0378  0.1372
14740TIP3    H265636   2.749   2.313  17.307  0.1959  0.9988 -0.4140
14741TIP3   OH265637   3.626   1.229  15.813  0.1340  0.2052 -0.4559
14741TIP3    H165638   3.691   1.164  15.840  0.1103 -0.1559 -1.2353
14741TIP3    H265639   3.550   1.177  15.786  0.0122  0.5703 -0.8293
14742TIP3   OH265640   0.721   5.465   3.815 -0.0235  0.1141 -0.6447
14742TIP3    H165641   0.703   5.559   3.816  0.7142  0.2586 -0.5446
14742TIP3    H265642   0.725   5.441   3.908 -1.6360 -0.3078 -0.6555
14743TIP3   OH265643   2.963   6.123  11.515 -0.0856 -0.3134 -0.2169
14743TIP3    H165644   2.869   6.127  11.533 -0.0605  2.6704 -0.3396
14743TIP3    H265645   2.976   6.184  11.443  1.8236 -1.6370 -1.0700
14744TIP3   OH265646   2.407   5.202  16.438  0.8633  0.5360 -0.4185
14744TIP3    H165647   2.488   5.156  16.460  0.0147  0.0398  2.0531
14744TIP3    H265648   2.413   5.286  16.483 -0.2480  0.2097  0.3940
14745TIP3   OH265649   6.387   1.645   1.019  0.5991 -0.0954 -0.6453
14745TIP3    H165650   6.307   1.682   1.055  0.1651 -1.0476 -0.6229
14745TIP3    H265651   6.442   1.627   1.095  0.0537 -1.2330 -0.4949
14746TIP3   OH265652   4.824   5.763  17.369 -0.1328 -0.0737 -0.0985
14746TIP3    H165653   4.790   5.682  17.331  0.1466 -0.8044  1.1693
14746TIP3    H265654   4.746   5.814  17.389 -0.3730 -0.5604  0.2328
14747TIP3   OH265655   6.177   5.412  17.189  0.3849  0.3210  0.2184
14747TIP3    H165656   6.244   5.423  17.257  2.9665 -0.6697 -1.9943
14747TIP3    H265657   6.168   5.317  17.180  0.5697  0.4138 -1.1976
14748TIP3   OH265658   4.574   1.131  13.151 -0.4625 -0.1953  0.4171
14748TIP3    H165659   4.613   1.072  13.215  0.9312 -0.3842 -0.5479
14748TIP3    H265660   4.646   1.190  13.126 -1.2643  0.5526 -0.1852
14749TIP3   OH265661   2.670   5.115  16.495  0.2465  0.2533  0.0173
14749TIP3    H165662   2.655   5.130  16.588  0.2274  0.0886  0.0425
14749TIP3    H265663   2.674   5.019  16.487  0.3817  0.2705 -0.1297
14750TIP3   OH265664   0.850   0.977   4.453 -0.6198  0.0970 -0.0545
14750TIP3    H165665   0.937   0.943   4.476 -1.4427  0.2501  3.7976
14750TIP3    H265666   0.866   1.069   4.430  0.0940  0.6570  2.4599
14751TIP3   OH265667   5.278   6.200  12.070 -0.2365 -0.4792  0.2591
14751TIP3    H165668   5.332   6.164  12.000  1.2633  0.2234  1.0064
14751TIP3    H265669   5.341   6.235  12.133 -1.5425  2.7956 -0.0651
14752TIP3   OH265670   3.017   4.513  12.601  0.4660 -0.2483  0.3240
14752TIP3    H165671   3.080   4.504  12.673  0.3140 -1.7132  0.3039
14752TIP3    H265672   3.069   4.497  12.522  0.5004  0.7263  0.1350
14753TIP3   OH265673   1.481   6.052   0.760  0.2103  0.2340 -0.3401
14753TIP3    H165674   1.550   6.013   0.814  0.3916  0.0134 -0.7262
14753TIP3    H265675   1.484   6.145   0.781 -1.0361 -0.0853  1.5040
14754TIP3   OH265676   0.637   6.672  13.052  0.2789  0.2340 -0.2401
14754TIP3    H165677   0.590   6.745  13.092 -0.5403  0.3437 -1.3327
14754TIP3    H265678   0.585   6.595  13.074 -1.1654  0.4826 -2.3984
14755TIP3   OH265679   0.021   4.178  12.423  0.0441 -0.1403  0.1076
14755TIP3    H165680   0.083   4.115  12.460  1.0760  1.2033  0.7484
14755TIP3    H265681  -0.053   4.177  12.484 -1.1496 -2.5692 -1.2521
14756TIP3   OH265682   4.613   1.860   4.834 -0.1257  0.1141 -0.3365
14756TIP3    H165683   4.635   1.898   4.919 -0.4664 -1.8157  0.6471
14756TIP3    H265684   4.651   1.773   4.835 -4.1398 -1.8299 -0.1772
14757TIP3   OH265685   0.222   3.685  13.958  0.3676 -0.1212 -0.1852
14757TIP3    H165686   0.211   3.729  14.043  2.0482  0.1607 -0.0842
14757TIP3    H265687   0.209   3.592  13.977 -4.7195  0.1711 -0.6497
14758TIP3   OH265688   0.804   1.263   3.316 -0.4970  0.2179 -0.6333
14758TIP3    H165689   0.865   1.197   3.285  0.8996  0.7185  0.8689
14758TIP3    H265690   0.795   1.325   3.243 -0.4939 -0.7018 -1.4319
14759TIP3   OH265691   3.572   0.952   1.567 -0.2748  0.4213  0.6101
14759TIP3    H165692   3.573   1.037   1.612 -0.1804 -0.2315  1.8820
14759TIP3    H265693   3.606   0.971   1.480 -0.9683  1.8308  0.6159
14760TIP3   OH265694   2.293   0.079  12.502 -0.2148  0.4773  0.1364
14760TIP3    H165695   2.218   0.132  12.474  0.6019  0.9978 -1.1417
14760TIP3    H265696   2.368   0.120  12.460  1.1610  1.3231  3.1166
14761TIP3   OH265697   5.772   5.940   1.004 -0.1154  0.5930  0.3136
14761TIP3    H165698   5.707   6.008   1.025 -0.1905  0.8617 -0.7744
14761TIP3    H265699   5.741   5.901   0.923  0.6645  0.1791  0.2047
14762TIP3   OH265700   6.544   0.827   0.851 -0.6585 -0.5362 -0.2181
14762TIP3    H165701   6.502   0.808   0.766  1.2826 -0.5210 -1.2299
14762TIP3    H265702   6.578   0.743   0.880 -1.4057 -0.5605  0.6359
14763TIP3   OH265703   0.659   2.229   0.693  0.1209 -0.3190 -0.3158
14763TIP3    H165704   0.691   2.299   0.637 -0.9178 -0.7604 -1.5132
14763TIP3    H265705   0.733   2.169   0.702  0.9989  0.8592  0.6699
14764TIP3   OH265706   4.328   4.724  12.775 -0.0902 -0.2863  0.4793
14764TIP3    H165707   4.338   4.633  12.804 -1.0482 -0.4951  0.1750
14764TIP3    H265708   4.309   4.773  12.855  0.7310 -0.2965  0.6873
14765TIP3   OH265709   3.924   3.067  15.676 -0.6464 -0.3350 -0.8622
14765TIP3    H165710   3.848   3.099  15.627 -1.7733 -0.8281  0.5282
14765TIP3    H265711   3.899   3.073  15.768  1.6842  1.2615 -0.2244
14766TIP3   OH265712   6.385   3.236   0.193  0.4569 -0.2840 -0.5855
14766TIP3    H165713   6.434   3.297   0.137  0.2811  0.5229  0.1270
14766TIP3    H265714   6.387   3.276   0.280  1.9335 -2.2097  0.3381
14767TIP3   OH265715   6.266   6.277  12.323 -0.1932  0.1732 -0.2052
14767TIP3    H165716   6.260   6.230  12.406  1.7667 -1.1792 -0.7551
14767TIP3    H265717   6.260   6.369  12.347 -3.8074 -0.2084  0.9422
14768TIP3   OH265718   4.516   4.756   2.011  0.5633 -0.0465  0.0651
14768TIP3    H165719   4.485   4.703   2.084  0.4940 -0.3961 -0.2148
14768TIP3    H265720   4.463   4.836   2.014 -0.1780 -0.5143 -0.2415
14769TIP3   OH265721   3.871   2.640  11.677 -0.0226  0.4765 -0.8281
14769TIP3    H165722   3.932   2.577  11.714 -2.3883 -1.6644 -0.2984
14769TIP3    H265723   3.893   2.723  11.720  0.7562 -0.7922  1.3627
14770TIP3   OH265724   2.755   1.115   3.663  0.2564  0.7912 -0.2554
14770TIP3    H165725   2.818   1.166   3.612  1.1457 -0.2404 -0.2320
14770TIP3    H265726   2.703   1.180   3.710  2.2640  1.6781  0.8713
14771TIP3   OH265727   1.357   4.216  11.767  0.0054  0.0179  0.0539
14771TIP3    H165728   1.261   4.222  11.773 -0.2573 -0.8486 -2.1657
14771TIP3    H265729   1.380   4.278  11.697  0.5472 -2.5438 -2.2012
14772TIP3   OH265730   1.057   4.685   4.117  0.1458 -0.6034  0.3363
14772TIP3    H165731   1.106   4.753   4.163 -0.8134  0.1837  0.2484
14772TIP3    H265732   1.045   4.616   4.182 -0.1811 -0.0107  0.9248
14773TIP3   OH265733   1.520   2.903  12.725 -0.2869  0.5516  0.0114
14773TIP3    H165734   1.462   2.866  12.659 -0.5537  0.2411  0.4137
14773TIP3    H265735   1.466   2.965  12.774 -0.4421 -0.1434  0.7410
14774TIP3   OH265736   5.738   1.199   5.706  0.4988 -0.0296  0.2653
14774TIP3    H165737   5.705   1.161   5.787 -0.0747  0.2423  0.1604
14774TIP3    H265738   5.704   1.142   5.637  0.7252 -0.0794  0.1943
14775TIP3   OH265739   0.260   6.086  16.090 -0.6436  0.6282  0.4107
14775TIP3    H165740   0.350   6.060  16.070 -0.6844 -0.6989  1.7477
14775TIP3    H265741   0.206   6.036  16.029 -0.6138 -1.1933  1.7794
14776TIP3   OH265742   1.406   0.397   0.665  0.0573 -0.2227 -0.5249
14776TIP3    H165743   1.477   0.440   0.712  0.5401  0.8116 -2.1037
14776TIP3    H265744   1.327   0.422   0.714  0.3069  2.6793 -1.4393
14777TIP3   OH265745   4.280   4.663   4.691 -0.0379  0.5053  0.1671
14777TIP3    H165746   4.207   4.682   4.632  0.2937 -0.6822 -0.6649
14777TIP3    H265747   4.353   4.641   4.632  0.2364 -0.9611  0.9972
14778TIP3   OH265748   5.765   0.185  13.235  0.3296  0.7267 -0.2788
14778TIP3    H165749   5.694   0.207  13.174  0.5752  1.0794 -0.4368
14778TIP3    H265750   5.770   0.089  13.232 -1.1910  0.5693  0.9137
14779TIP3   OH265751   5.931   4.155   1.922  0.6197 -0.3505 -0.1511
14779TIP3    H165752   6.015   4.114   1.903  0.1726 -1.8673  0.9902
14779TIP3    H265753   5.886   4.157   1.838  0.5927 -2.4091 -0.2163
14780TIP3   OH265754   3.687   5.511   1.614  0.4282  0.1154  0.0728
14780TIP3    H165755   3.773   5.495   1.654  0.1727 -0.7766  0.3050
14780TIP3    H265756   3.654   5.423   1.594 -0.9063  0.3787  0.9948
14781TIP3   OH265757   4.154   6.225  12.743 -0.4292  0.0507 -0.0286
14781TIP3    H165758   4.089   6.243  12.675 -0.2448  1.0303  0.0389
14781TIP3    H265759   4.115   6.154  12.794 -1.0332 -0.0013 -0.5390
14782TIP3   OH265760   3.413   1.982  11.651 -0.2912  0.5573 -0.4635
14782TIP3    H165761   3.440   1.891  11.664 -0.1691  0.7068  0.3361
14782TIP3    H265762   3.331   1.975  11.602 -2.4488 -0.1838  2.9105
14783TIP3   OH265763   4.067   1.323   1.895  0.1249 -0.3527  0.3332
14783TIP3    H165764   4.127   1.353   1.963  0.0694 -2.2452  1.2885
14783TIP3    H265765   4.123   1.277   1.832 -0.1291 -0.8768  0.4821
14784TIP3   OH265766   4.489   6.708   1.302  0.1214  0.0588 -0.4664
14784TIP3    H165767   4.444   6.630   1.336 -2.0869  2.1139  1.7577
14784TIP3    H265768   4.582   6.687   1.310 -0.3454 -2.8606 -1.3849
14785TIP3   OH265769   0.444   4.851  12.241 -0.0096 -0.0177  0.0808
14785TIP3    H165770   0.444   4.787  12.312 -0.4448  0.4218  0.4927
14785TIP3    H265771   0.482   4.805  12.167 -0.8715 -0.9489  0.1870
14786TIP3   OH265772   5.334   2.292  15.578  0.2937  0.7827  0.0303
14786TIP3    H165773   5.307   2.372  15.533  1.4049  0.8855 -0.4639
14786TIP3    H265774   5.374   2.323  15.659  2.0572  0.8334 -0.8250
14787TIP3   OH265775   5.063   0.698   3.100 -0.4721  0.2967 -0.5487
14787TIP3    H165776   5.070   0.639   3.025 -1.3565 -0.2345 -0.2300
14787TIP3    H265777   5.000   0.764   3.072  1.7140  2.0755 -1.5096
14788TIP3   OH265778   6.579   0.208   2.610 -0.2760 -0.0073 -0.1039
14788TIP3    H165779   6.672   0.208   2.588 -0.4360  0.5848 -0.8055
14788TIP3    H265780   6.575   0.165   2.696  0.5805 -0.5093 -0.2986
14789TIP3   OH265781   3.186   3.608  13.373 -0.1917  0.2273  0.2003
14789TIP3    H165782   3.148   3.523  13.352  0.4332 -0.2008  0.7807
14789TIP3    H265783   3.190   3.653  13.288 -0.6738 -0.2486 -0.0877
14790TIP3   OH265784   5.021   3.148   1.484  0.4573  0.1232  0.5837
14790TIP3    H165785   5.049   3.189   1.566 -0.7133 -0.0956  1.1015
14790TIP3    H265786   5.048   3.057   1.492  2.1242  0.4956 -0.1374
14791TIP3   OH265787   3.367   5.337  15.413  0.1498  0.0976  0.4229
14791TIP3    H165788   3.275   5.363  15.416 -0.1947 -1.0639  0.3742
14791TIP3    H265789   3.392   5.345  15.321 -0.7362 -2.2735 -0.0752
14792TIP3   OH265790   3.219   3.779  12.419 -0.4285 -0.4276 -0.3216
14792TIP3    H165791   3.243   3.858  12.370  0.4682 -0.5625 -0.1249
14792TIP3    H265792   3.139   3.803  12.466 -0.5154  0.1584 -0.7597
14793TIP3   OH265793   2.554   5.365   6.797 -0.4135 -0.0154 -0.4989
14793TIP3    H165794   2.474   5.417   6.795 -0.5381 -0.1620  0.3976
14793TIP3    H265795   2.622   5.425   6.766 -0.6939  0.4400 -0.2478
14794TIP3   OH265796   3.042   3.121  16.354 -0.3397 -0.1032  0.8675
14794TIP3    H165797   2.949   3.103  16.345  0.1163 -1.6700 -2.2048
14794TIP3    H265798   3.047   3.216  16.368 -2.3573  0.2566 -0.4646
14795TIP3   OH265799   1.523   3.115  11.551 -0.1611  0.1840 -0.0360
14795TIP3    H165800   1.479   3.142  11.470  0.1143  1.0022  0.0780
14795TIP3    H265801   1.588   3.050  11.522 -0.9209 -0.4787 -0.2966
14796TIP3   OH265802   2.142   1.946  11.418  0.2514  0.5748  0.1198
14796TIP3    H165803   2.069   1.973  11.473 -0.7419 -2.7528  0.6570
14796TIP3    H265804   2.102   1.923  11.334  0.6887 -0.8908  0.2797
14797TIP3   OH265805   4.252   3.759  14.623 -0.0644 -0.2569  0.1740
14797TIP3    H165806   4.227   3.770  14.714 -0.2212  0.2234  0.0775
14797TIP3    H265807   4.347   3.747  14.625  0.3287  2.2712  0.2394
14798TIP3   OH265808   3.616   6.477   2.381 -0.1178  0.4056  0.5555
14798TIP3    H165809   3.631   6.383   2.387  1.6899  0.6851  1.1341
14798TIP3    H265810   3.619   6.507   2.472  1.0103  1.2292  0.2670
14799TIP3   OH265811   5.428   2.348  14.642  0.5575  0.1130  0.1344
14799TIP3    H165812   5.391   2.267  14.677 -0.3047  0.9911  1.3451
14799TIP3    H265813   5.520   2.329  14.629  1.0217 -0.2437  3.1849
14800TIP3   OH265814   0.186   4.897  12.549  0.0681  0.1885  0.4166
14800TIP3    H165815   0.216   4.969  12.493 -0.5748  0.2822  0.1784
14800TIP3    H265816   0.169   4.825  12.488  1.3504 -0.4046  0.7236
14801TIP3   OH265817   0.039   3.387  17.156 -0.1412 -0.0677  0.5677
14801TIP3    H165818   0.124   3.415  17.189 -0.7030  2.4581  0.0756
14801TIP3    H265819   0.027   3.299  17.191  2.2200 -0.0997  1.4447
14802TIP3   OH265820   0.203   6.487  16.401 -0.3014 -0.5836 -0.2969
14802TIP3    H165821   0.266   6.473  16.473 -2.9046 -0.4216  2.2071
14802TIP3    H265822   0.218   6.577  16.374 -0.4367 -0.0193  1.3530
14803TIP3   OH265823   2.499   0.015   0.141 -0.0649  0.2534  0.5113
14803TIP3    H165824   2.555   0.090   0.121 -0.0955  1.0428  3.0624
14803TIP3    H265825   2.413   0.054   0.158 -1.1424 -0.8089 -1.9740
14804TIP3   OH265826   6.538   6.164   6.068 -0.5447  0.1474 -0.1546
14804TIP3    H165827   6.491   6.169   6.151 -0.3123 -2.2270  0.1747
14804TIP3    H265828   6.526   6.074   6.039  1.5316  0.2245 -1.4141
14805TIP3   OH265829   5.562   5.947   5.187  0.6413 -0.2630 -0.0872
14805TIP3    H165830   5.600   6.033   5.168  2.2017 -0.3309  2.2442
14805TIP3    H265831   5.537   5.912   5.102  1.1859  1.9345 -1.2293
14806TIP3   OH265832   4.767   3.408   2.745  0.2455  0.3172  0.0664
14806TIP3    H165833   4.736   3.319   2.730  2.1510 -0.5521  1.0058
14806TIP3    H265834   4.689   3.463   2.734 -1.0071 -1.4681 -0.3101
14807TIP3   OH265835   6.524   4.950   0.577 -0.2988 -0.0886 -1.0524
14807TIP3    H165836   6.614   4.945   0.609 -1.1642  0.3696  1.6994
14807TIP3    H265837   6.511   4.869   0.529  1.1019 -0.8977 -0.1408
14808TIP3   OH265838   3.257   3.759  13.802 -0.0755  0.3512 -0.4147
14808TIP3    H165839   3.174   3.764  13.754 -0.2719 -1.9306 -0.4167
14808TIP3    H265840   3.300   3.681  13.766  0.5019 -0.4983  1.9657
14809TIP3   OH265841   1.132   6.164  12.349 -0.0439  0.3104 -0.2521
14809TIP3    H165842   1.153   6.254  12.324 -0.3163  0.1503 -1.1001
14809TIP3    H265843   1.205   6.136  12.404  0.7388  0.5856 -1.1385
14810TIP3   OH265844   0.335   6.163   4.776  0.4086  0.3035 -0.2018
14810TIP3    H165845   0.239   6.155   4.777  0.3350  1.1118 -0.3364
14810TIP3    H265846   0.359   6.150   4.684  0.5571 -1.1675  0.0189
14811TIP3   OH265847   0.418   0.532  12.803  0.7133 -0.3231 -0.2022
14811TIP3    H165848   0.423   0.627  12.795 -0.6355 -0.0232  1.7926
14811TIP3    H265849   0.508   0.502  12.796  1.3992  1.3128  1.0369
14812TIP3   OH265850   3.526   6.511  15.093 -0.0110 -0.5564 -0.6444
14812TIP3    H165851   3.544   6.427  15.135 -1.9599 -0.2938  0.8592
14812TIP3    H265852   3.430   6.514  15.086 -0.1715  2.3299  1.1711
14813TIP3   OH265853   6.119   4.670   1.117 -0.2467 -0.2054 -0.2817
14813TIP3    H165854   6.030   4.698   1.098 -0.7323 -0.3970  1.4683
14813TIP3    H265855   6.144   4.615   1.043 -1.8181 -0.6346 -0.5332
14814TIP3   OH265856   1.194   3.506   0.049  0.5227  0.6854 -0.1025
14814TIP3    H165857   1.284   3.496   0.081 -0.8293 -1.7814  3.6092
14814TIP3    H265858   1.169   3.417   0.022 -1.0915  1.1330 -0.1567
14815TIP3   OH265859   4.255   1.273   2.384 -0.6237  0.2781  0.0118
14815TIP3    H165860   4.294   1.359   2.399  0.7684 -0.4727  0.9379
14815TIP3    H265861   4.187   1.265   2.452  1.6198 -0.7002  2.3009
14816TIP3   OH265862   4.625   0.954   1.374  0.1298  0.0678  0.1249
14816TIP3    H165863   4.669   1.034   1.402  1.2198 -0.9064  1.3319
14816TIP3    H265864   4.695   0.890   1.365 -0.9294 -1.4181  1.6477
14817TIP3   OH265865   3.885   5.321  14.327  0.2601  0.3939  0.0381
14817TIP3    H165866   3.835   5.378  14.268 -1.2987 -0.2292  0.7056
14817TIP3    H265867   3.975   5.324  14.294 -0.0670  2.1148 -0.7840
14818TIP3   OH265868   4.146   4.315   4.378  0.2144 -0.1008 -0.2643
14818TIP3    H165869   4.066   4.265   4.365  0.7590 -0.9262 -0.5245
14818TIP3    H265870   4.161   4.314   4.473  1.1345 -1.9177 -0.4004
14819TIP3   OH265871   2.900   6.532  14.691  0.9502  0.1431 -0.6763
14819TIP3    H165872   2.945   6.507  14.611 -0.4877  2.3770 -2.2951
14819TIP3    H265873   2.892   6.627  14.686 -2.6351  0.0399  0.1268
14820TIP3   OH265874   1.351   6.490   4.856  0.5405  0.1167  0.1468
14820TIP3    H165875   1.423   6.427   4.860  1.5203  1.0636 -1.3757
14820TIP3    H265876   1.314   6.477   4.768 -0.8972 -0.0625  0.7545
14821TIP3   OH265877   0.176   5.174  13.824  0.0610 -0.1425 -0.3290
14821TIP3    H165878   0.108   5.125  13.870  0.5620 -0.5052  0.0477
14821TIP3    H265879   0.182   5.257  13.870  0.1381 -0.2666 -0.1089
14822TIP3   OH265880   4.994   0.704  15.728 -0.8000  0.1147 -0.4446
14822TIP3    H165881   4.977   0.700  15.634 -1.2523  0.6885 -0.3892
14822TIP3    H265882   4.995   0.797  15.749 -0.0956  0.0097  0.0161
14823TIP3   OH265883   3.696   3.776  16.134 -0.6627 -0.3742  0.4988
14823TIP3    H165884   3.763   3.828  16.178 -0.1855 -1.4447  1.0442
14823TIP3    H265885   3.657   3.837  16.070 -0.1318  0.6550  1.1337
14824TIP3   OH265886   1.041   2.577  14.086 -0.1872 -0.3262 -0.3310
14824TIP3    H165887   1.100   2.502  14.080 -0.3210 -0.6641  1.8034
14824TIP3    H265888   1.049   2.607  14.177 -0.5596  1.9180 -0.9719
14825TIP3   OH265889   5.818   5.713   2.439  0.0375  0.0964 -0.2285
14825TIP3    H165890   5.897   5.766   2.447  1.8854 -2.5837  0.8038
14825TIP3    H265891   5.819   5.682   2.349  0.3779 -0.2388 -0.1099
14826TIP3   OH265892   6.271   5.031  16.945 -0.1131  0.8519 -0.0297
14826TIP3    H165893   6.297   5.067  17.030 -0.6099 -2.1765  1.5426
14826TIP3    H265894   6.221   5.102  16.904 -2.5585  1.5058  3.5763
14827TIP3   OH265895   4.019   0.658   2.540  0.2623 -0.5738 -0.0419
14827TIP3    H165896   4.069   0.609   2.605 -0.7066  0.1916  1.3229
14827TIP3    H265897   4.085   0.699   2.485  1.0936 -2.0762 -0.2272
14828TIP3   OH265898   5.678   6.196   5.139  0.3201  0.1637 -0.4487
14828TIP3    H165899   5.749   6.191   5.203  0.7649 -1.7635 -1.0469
14828TIP3    H265900   5.716   6.163   5.058 -0.6414  1.2479 -1.3831
14829TIP3   OH265901   5.620   3.339  14.760 -0.5906  0.1592  0.1417
14829TIP3    H165902   5.700   3.295  14.731 -1.0166 -1.1609  0.8544
14829TIP3    H265903   5.566   3.347  14.681 -0.0085  0.4989 -0.2232
14830TIP3   OH265904   4.818   4.401  16.440  0.1819 -0.4511 -0.0547
14830TIP3    H165905   4.828   4.374  16.531  1.5815 -2.5313 -0.7435
14830TIP3    H265906   4.875   4.478  16.430 -0.4062  0.1258  0.9217
14831TIP3   OH265907   2.238   4.704  11.699  0.2582 -0.0554  0.5407
14831TIP3    H165908   2.244   4.642  11.627  0.0135  0.6986 -0.1456
14831TIP3    H265909   2.150   4.742  11.691  0.8000  1.1848  0.2564
14832TIP3   OH265910   5.751   2.751  11.707 -0.0147 -0.0309 -0.6442
14832TIP3    H165911   5.674   2.786  11.661 -0.5096  0.2774  0.3884
14832TIP3    H265912   5.722   2.740  11.797  0.9573 -0.5731 -0.3830
14833TIP3   OH265913   1.898   1.800   0.879 -0.3063  0.1773  0.4584
14833TIP3    H165914   1.958   1.828   0.810  0.5620 -1.0975  0.6576
14833TIP3    H265915   1.931   1.714   0.906 -1.7115 -0.1658  1.1897
14834TIP3   OH265916   4.793   6.562   0.909 -0.0983 -0.0840 -0.2687
14834TIP3    H165917   4.725   6.495   0.918 -0.0079 -0.1393  0.0091
14834TIP3    H265918   4.834   6.543   0.825  1.5399 -1.9034  0.8472
14835TIP3   OH265919   3.062   5.008  17.105 -0.8347 -0.3118 -0.0309
14835TIP3    H165920   3.097   5.007  17.016 -0.2117 -0.6124  0.2144
14835TIP3    H265921   3.095   4.927  17.145 -2.6839 -1.1523 -0.1242
14836TIP3   OH265922   1.862   1.196   1.309  0.0355 -0.3152 -0.4374
14836TIP3    H165923   1.820   1.176   1.225 -0.9402  1.3103 -0.3861
14836TIP3    H265924   1.936   1.136   1.314  0.2565 -0.3044 -2.5713
14837TIP3   OH265925   3.693   5.078   0.938  0.6000  0.1318 -0.3890
14837TIP3    H165926   3.788   5.074   0.936  0.6090  0.1095  0.0760
14837TIP3    H265927   3.664   4.997   0.895  0.7916 -0.3607  0.3845
14838TIP3   OH265928   2.431   2.949  15.423  0.7514 -0.0772 -0.2397
14838TIP3    H165929   2.471   2.936  15.509  0.1156 -2.0559 -0.2001
14838TIP3    H265930   2.363   2.882  15.417  0.4198  0.3565 -2.0815
14839TIP3   OH265931   3.304   6.563  16.961  0.1438  0.6844 -0.3924
14839TIP3    H165932   3.257   6.630  17.012 -0.0670  1.0038 -0.9924
14839TIP3    H265933   3.271   6.574  16.872 -0.1630 -0.4758 -0.4336
14840TIP3   OH265934   1.464   2.647   1.019 -0.0920 -0.2410  0.4677
14840TIP3    H165935   1.552   2.615   0.997 -0.2803  0.0417 -0.7569
14840TIP3    H265936   1.480   2.716   1.084  0.7505  0.9244 -0.9154
14841TIP3   OH265937   4.752   4.344   6.536 -1.2124 -0.7776 -0.4738
14841TIP3    H165938   4.738   4.390   6.453  1.1804  0.0738 -0.5106
14841TIP3    H265939   4.824   4.392   6.577 -2.2506 -1.2648  2.0598
14842TIP3   OH265940   1.860   5.359  16.338 -0.4819 -0.1443  0.1616
14842TIP3    H165941   1.829   5.272  16.312 -2.8337  0.7132 -0.0859
14842TIP3    H265942   1.871   5.353  16.433  1.6503 -1.3317 -0.0921
14843TIP3   OH265943   6.147   3.595  13.321  0.4119 -1.0288 -0.2663
14843TIP3    H165944   6.159   3.610  13.415  0.4986 -0.9071 -0.2966
14843TIP3    H265945   6.065   3.546  13.315 -0.2623  0.0582 -0.2132
14844TIP3   OH265946   2.269   5.431   2.660  0.2102  0.3698 -0.2184
14844TIP3    H165947   2.340   5.469   2.608 -0.6248  0.8069 -1.0556
14844TIP3    H265948   2.248   5.349   2.616  1.2678 -0.5688  0.9605
14845TIP3   OH265949   2.712   5.163  14.878 -0.2898  0.3394 -0.2636
14845TIP3    H165950   2.803   5.177  14.853  0.5480  0.0130  2.3000
14845TIP3    H265951   2.701   5.068  14.879  0.0211  0.2885  1.4247
14846TIP3   OH265952   5.688   2.424  13.743  0.4217  0.0519 -0.0487
14846TIP3    H165953   5.665   2.416  13.836  0.2042 -1.9806 -0.2251
14846TIP3    H265954   5.605   2.426  13.697  0.3768  4.4229 -0.1198
14847TIP3   OH265955   0.950   4.533   1.019  0.3692  0.2223 -0.4118
14847TIP3    H165956   0.937   4.529   0.924  1.4772 -0.8581 -0.5472
14847TIP3    H265957   1.030   4.584   1.031  0.1441  0.4971 -0.0448
14848TIP3   OH265958   4.394   0.187   6.061 -0.3793  0.0901  0.0669
14848TIP3    H165959   4.334   0.211   6.133  0.2679  0.6226  0.4463
14848TIP3    H265960   4.459   0.131   6.103  0.1420  0.6063 -0.0455
14849TIP3   OH265961   6.314   1.259  16.764 -0.3656  0.1733  0.4466
14849TIP3    H165962   6.341   1.170  16.787  0.6625  0.5637  0.8358
14849TIP3    H265963   6.229   1.269  16.806  0.1151 -0.1800  1.5713
14850TIP3   OH265964   6.648   2.746   1.047 -0.1418  0.2599 -0.2557
14850TIP3    H165965   6.583   2.720   0.983  1.7173 -1.8414 -1.4417
14850TIP3    H265966   6.708   2.802   0.999  1.0972 -1.0873 -0.3717
14851TIP3   OH265967   4.196   2.940   6.390  0.0143  0.4058 -0.2228
14851TIP3    H165968   4.104   2.935   6.415  0.2027 -0.5154  0.3504
14851TIP3    H265969   4.241   2.973   6.468  0.4071 -1.0131  0.1786
14852TIP3   OH265970   4.678   2.884  15.771 -0.3598 -0.2236  0.3439
14852TIP3    H165971   4.676   2.946  15.845 -0.4042  1.0738 -0.7117
14852TIP3    H265972   4.590   2.847  15.769 -0.4547 -0.0310  0.7366
14853TIP3   OH265973   0.888   5.634  16.650 -0.5072 -0.5957  0.0864
14853TIP3    H165974   0.833   5.589  16.587 -0.9356  0.4160 -0.2824
14853TIP3    H265975   0.834   5.640  16.729 -0.4845 -0.6413  0.1062
14854TIP3   OH265976   0.444   5.917  11.858 -0.0623 -0.2552  0.0451
14854TIP3    H165977   0.433   5.959  11.773  0.9908  2.7941  1.2741
14854TIP3    H265978   0.537   5.930  11.880 -0.1481 -1.5741  1.3798
14855TIP3   OH265979   0.255   5.500   0.053 -0.3187  0.0648  0.3066
14855TIP3    H165980   0.300   5.568   0.003  0.0565  0.0373  0.5996
14855TIP3    H265981   0.260   5.531   0.144  0.2009 -0.5452  0.4902
14856TIP3   OH265982   2.097   1.078  13.758 -0.1200  0.1964 -0.1667
14856TIP3    H165983   2.156   1.013  13.796 -0.4530  0.4735  0.8904
14856TIP3    H265984   2.141   1.109  13.680  1.3656  0.7505  0.8534
14857TIP3   OH265985   1.017   1.673   5.542 -0.5204 -0.3695  0.3502
14857TIP3    H165986   1.096   1.630   5.576  0.4980  0.8840 -0.3428
14857TIP3    H265987   0.947   1.609   5.557  0.0772 -0.4374  3.5590
14858TIP3   OH265988   1.228   3.399   5.564 -0.4493  0.5609  0.1073
14858TIP3    H165989   1.163   3.391   5.494 -0.1057  3.4965 -0.6720
14858TIP3    H265990   1.312   3.381   5.522 -0.4009  0.6538  0.1636
14859TIP3   OH265991   1.509   6.291   3.692  0.1419  0.1836  0.0999
14859TIP3    H165992   1.448   6.307   3.765  2.0994  2.6447  1.3484
14859TIP3    H265993   1.566   6.221   3.723  0.0472  0.1944  0.3006
14860TIP3   OH265994   1.207   2.537   3.711  1.1567 -0.2383  0.2571
14860TIP3    H165995   1.147   2.605   3.678  0.7336 -0.8727 -0.3002
14860TIP3    H265996   1.266   2.584   3.770  2.0340  0.9718 -1.5121
14861TIP3   OH265997   0.757   6.360  16.384 -0.4214 -0.1143 -0.3043
14861TIP3    H165998   0.669   6.375  16.350 -0.2146 -0.6892 -1.1233
14861TIP3    H265999   0.774   6.267  16.368 -0.6515 -0.6858  2.2244
14862TIP3   OH266000   3.181   1.018  16.304 -0.0035 -0.4915 -0.2604
14862TIP3    H166001   3.095   1.030  16.264 -0.1694 -0.2466  0.1749
14862TIP3    H266002   3.213   0.936  16.266 -0.3386 -0.4756 -0.5798
14863TIP3   OH266003   4.287   5.010  11.794  0.1467  0.3611  0.0139
14863TIP3    H166004   4.213   5.051  11.751  0.9941  0.4208 -1.4532
14863TIP3    H266005   4.304   5.064  11.871 -1.1637  0.4753  0.2324
14864TIP3   OH266006   3.864   4.177   5.864 -0.1815  0.2343  0.0556
14864TIP3    H166007   3.769   4.189   5.863 -0.4004 -0.8648  2.1408
14864TIP3    H266008   3.878   4.098   5.811 -0.3104  0.8934 -0.9882
14865TIP3   OH266009   4.516   4.065  16.435  0.3385  0.4034 -0.3467
14865TIP3    H166010   4.537   4.008  16.362  0.1652  0.3047 -0.3177
14865TIP3    H266011   4.578   4.138  16.427 -0.7844  1.2652 -1.5750
14866TIP3   OH266012   4.295   3.072   4.398  0.8987 -0.3770 -1.0644
14866TIP3    H166013   4.312   3.162   4.371 -0.8066  0.0873 -0.7152
14866TIP3    H266014   4.342   3.062   4.480  2.2917 -0.2971 -1.8291
14867TIP3   OH266015   3.061   4.239  12.505 -0.4461 -0.2174 -0.6190
14867TIP3    H166016   2.981   4.188  12.495 -0.1522 -0.8255  0.0459
14867TIP3    H266017   3.090   4.222  12.595 -0.2614  1.0033 -0.4217
14868TIP3   OH266018   4.341   2.542   0.600 -0.1396 -0.0482  0.0548
14868TIP3    H166019   4.278   2.475   0.628 -0.4946  0.8167  1.4377
14868TIP3    H266020   4.290   2.601   0.545  0.1359 -0.8029 -1.0375
14869TIP3   OH266021   3.208   5.291   2.146 -0.3741 -0.0667 -0.7845
14869TIP3    H166022   3.128   5.327   2.107 -0.6777  0.9053  0.6643
14869TIP3    H266023   3.237   5.358   2.207  0.7436 -1.0412 -0.2144
14870TIP3   OH266024   3.311   3.113  13.008 -0.9436 -0.5415 -0.4853
14870TIP3    H166025   3.336   3.172  13.080  0.2455  1.0683 -2.1266
14870TIP3    H266026   3.251   3.051  13.049  2.2722 -1.9184  2.7277
14871TIP3   OH266027   0.988   0.255  16.408 -0.4478 -0.8385 -0.1431
14871TIP3    H166028   1.054   0.186  16.417  0.5885 -0.4031 -3.2474
14871TIP3    H266029   1.036   0.330  16.373 -1.8876  0.9552  1.4480
14872TIP3   OH266030   3.499   0.195   4.783 -0.7274  0.1632  0.0273
14872TIP3    H166031   3.544   0.110   4.775  0.5524  0.7263  0.9028
14872TIP3    H266032   3.417   0.175   4.827 -0.9299 -0.7589 -0.7216
14873TIP3   OH266033   1.026   5.477   3.838 -0.2725  0.4039  0.6038
14873TIP3    H166034   1.039   5.491   3.931 -1.5066 -0.4572  0.9298
14873TIP3    H266035   0.935   5.447   3.830 -0.3892  1.0450 -0.9347
14874TIP3   OH266036   4.789   6.007   1.134  0.0599 -0.1427  0.4424
14874TIP3    H166037   4.824   6.072   1.073 -1.3782  0.4313  0.1946
14874TIP3    H266038   4.848   6.011   1.210  0.6915  0.5708 -0.0741
14875TIP3   OH266039   6.736   6.558   3.611  0.2077 -0.2394 -0.0440
14875TIP3    H166040   6.805   6.609   3.654  0.6119 -0.8608  0.0568
14875TIP3    H266041   6.686   6.623   3.561  0.5576  0.2918  0.2842
14876TIP3   OH266042   2.622   2.700  12.729  0.1467 -0.0544 -0.5530
14876TIP3    H166043   2.643   2.607  12.734 -0.5589 -0.2338 -0.8769
14876TIP3    H266044   2.701   2.740  12.690  0.4313 -0.5183 -0.4553
14877TIP3   OH266045   2.920   4.809   1.018 -0.0418 -0.4576  0.4379
14877TIP3    H166046   2.865   4.796   1.095 -1.6766  0.8330 -0.4441
14877TIP3    H266047   2.869   4.773   0.945  1.8514 -2.4879 -0.0064
14878TIP3   OH266048   0.370   5.404   2.786  0.0666  0.0570 -0.1302
14878TIP3    H166049   0.340   5.478   2.839 -0.3743  0.1521 -0.5082
14878TIP3    H266050   0.304   5.395   2.718  1.2101  0.6799 -1.3787
14879TIP3   OH266051   0.271   3.324  14.908  0.2835  0.2280 -0.0581
14879TIP3    H166052   0.197   3.338  14.849 -0.2094  0.6405  0.6399
14879TIP3    H266053   0.233   3.282  14.985  1.1063 -1.3443 -0.4789
14880TIP3   OH266054   0.498   0.534  12.004  0.1500  0.1047 -0.2657
14880TIP3    H166055   0.570   0.475  12.024 -2.1981 -3.3060 -1.0121
14880TIP3    H266056   0.476   0.574  12.089  1.9675  0.1811  0.2082
14881TIP3   OH266057   3.200   0.258  12.742  0.6593 -0.3931  0.0878
14881TIP3    H166058   3.133   0.304  12.690  2.6849 -0.0276 -2.3986
14881TIP3    H266059   3.253   0.327  12.780  0.7795 -0.6825  0.4504
14882TIP3   OH266060   2.079   5.353  12.946 -0.7204  0.4916 -0.4612
14882TIP3    H166061   2.031   5.348  12.863 -0.5242  0.4443 -0.5727
14882TIP3    H266062   2.167   5.383  12.921 -0.3366 -0.5408 -0.4056
14883TIP3   OH266063   5.705   1.857  12.251 -0.2009  0.2180  0.3563
14883TIP3    H166064   5.725   1.941  12.210 -0.9733  0.5877  0.7299
14883TIP3    H266065   5.773   1.846  12.318 -0.5266  0.9053  0.8152
14884TIP3   OH266066   2.579   3.773  13.272  0.0296  0.6875 -0.3138
14884TIP3    H166067   2.659   3.809  13.308 -1.0252  1.0656  1.8152
14884TIP3    H266068   2.509   3.817  13.320 -1.3870 -1.7962  0.0617
14885TIP3   OH266069   0.152   4.847   0.220  0.4280  0.1291  0.0758
14885TIP3    H166070   0.088   4.875   0.155  0.7929 -0.4939 -0.5602
14885TIP3    H266071   0.233   4.832   0.171  1.7532  3.0500  1.1669
14886TIP3   OH266072   3.172   4.756   6.852 -0.2542 -0.3576  0.6845
14886TIP3    H166073   3.260   4.722   6.872  0.1401 -0.3484 -0.8771
14886TIP3    H266074   3.151   4.812   6.927  1.2205 -0.0951  0.9490
14887TIP3   OH266075   1.707   4.793   2.242 -0.3764  0.9268 -0.0109
14887TIP3    H166076   1.703   4.876   2.291  0.3766 -0.1091  1.9314
14887TIP3    H266077   1.772   4.741   2.289 -0.7280 -0.7354 -1.2725
14888TIP3   OH266078   3.298   3.936   1.159 -0.3824 -0.0201  0.3847
14888TIP3    H166079   3.315   3.895   1.243 -0.5564 -1.6695 -0.3467
14888TIP3    H266080   3.322   3.870   1.094  0.8555  1.6248 -0.9179
14889TIP3   OH266081   3.458   1.723  11.384 -0.4671  0.0846  0.1270
14889TIP3    H166082   3.547   1.690  11.382 -0.1849  0.7236  1.1699
14889TIP3    H266083   3.451   1.780  11.307  0.0746  0.1492  0.1261
14890TIP3   OH266084   2.828   3.082   4.712 -0.0750 -0.0513 -0.0657
14890TIP3    H166085   2.865   3.007   4.665 -0.4189 -1.4880  1.8481
14890TIP3    H266086   2.733   3.072   4.703 -0.1102  0.7965 -0.7281
14891TIP3   OH266087   1.422   2.678  11.735  0.3854  0.1584  0.1587
14891TIP3    H166088   1.399   2.585  11.729 -0.2188  0.0554  2.7611
14891TIP3    H266089   1.399   2.714  11.649  0.9666 -2.1344 -1.0466
14892TIP3   OH266090   0.693   3.620  11.456 -0.0029  0.2519 -0.0204
14892TIP3    H166091   0.635   3.692  11.483 -2.3479 -1.9333  1.1376
14892TIP3    H266092   0.646   3.576  11.385  1.4272 -0.1605 -0.7671
14893TIP3   OH266093   0.195   3.848  13.710 -0.3607 -0.2730 -0.5367
14893TIP3    H166094   0.204   3.844  13.805 -1.3593  0.8712 -0.3633
14893TIP3    H266095   0.274   3.806  13.676  0.1768 -0.3838  0.7930
14894TIP3   OH266096   0.291   1.949   1.674 -0.5505 -0.2296  0.5349
14894TIP3    H166097   0.334   1.908   1.599 -1.4854 -0.8450  0.3211
14894TIP3    H266098   0.361   1.997   1.719 -0.2197  1.3521 -1.5044
14895TIP3   OH266099   0.717   3.664   4.551 -0.0909  0.1477  0.6286
14895TIP3    H166100   0.697   3.573   4.528  0.1690 -0.0731  1.2399
14895TIP3    H266101   0.738   3.706   4.468  0.8781 -0.6441  0.4478
14896TIP3   OH266102   1.623   2.507  16.707  0.4480 -0.2720  0.2598
14896TIP3    H166103   1.657   2.419  16.692 -0.0133 -0.5522  0.8006
14896TIP3    H266104   1.626   2.518  16.802  0.9042  0.4662  0.1710
14897TIP3   OH266105   6.205   4.843   6.285 -0.1812 -0.3225 -0.4834
14897TIP3    H166106   6.197   4.925   6.236  0.5612  0.0830  0.0479
14897TIP3    H266107   6.172   4.865   6.373 -0.7475 -0.8206 -0.5651
14898TIP3   OH266108   5.214   2.339   3.947  0.2963 -0.6396 -0.9225
14898TIP3    H166109   5.209   2.285   3.868  0.6086  1.4990 -2.5083
14898TIP3    H266110   5.294   2.391   3.935 -0.9831  1.5575 -0.4801
14899TIP3   OH266111   1.152   3.021  12.683  0.4300 -0.0282 -0.3842
14899TIP3    H166112   1.170   2.943  12.631  0.8612 -2.0900  2.5831
14899TIP3    H266113   1.100   3.077  12.626  0.0714 -2.4891 -2.6496
14900TIP3   OH266114   2.032   2.553   2.493  0.6922 -0.7045 -0.2417
14900TIP3    H166115   2.115   2.581   2.454  1.0607 -1.5881 -0.1117
14900TIP3    H266116   2.055   2.526   2.582  0.0886 -0.0342  0.1322
14901TIP3   OH266117   6.598   0.270  17.391  0.0470 -0.7906  0.3517
14901TIP3    H166118   6.551   0.308  17.465 -1.0515 -1.8330  0.2179
14901TIP3    H266119   6.648   0.198  17.429  0.3785 -0.6177  0.2499
14902TIP3   OH266120   5.426   3.363   2.566 -0.4514 -0.2639 -0.1621
14902TIP3    H166121   5.499   3.305   2.544 -0.5246 -0.7467  0.7923
14902TIP3    H266122   5.448   3.446   2.523 -1.0540 -1.3617 -2.7779
14903TIP3   OH266123   3.894   2.525  14.920 -0.0185 -0.2183  0.9285
14903TIP3    H166124   3.940   2.500  15.000  0.8274  0.9457  0.8522
14903TIP3    H266125   3.822   2.581  14.949  0.5055  0.5017  0.8778
14904TIP3   OH266126   4.829   0.318  16.845 -0.3047 -0.4212 -0.5139
14904TIP3    H166127   4.897   0.360  16.793  1.4153 -1.9022  0.4203
14904TIP3    H266128   4.783   0.391  16.888  1.1762  0.6026 -0.5971
14905TIP3   OH266129   5.268   6.508  16.458 -0.4720 -0.0204 -0.0799
14905TIP3    H166130   5.179   6.473  16.469  0.4664 -2.8820 -0.7751
14905TIP3    H266131   5.301   6.516  16.547 -1.0764  0.1214  0.1425
14906TIP3   OH266132   3.553   4.340  12.312  0.0078  0.3378 -0.6281
14906TIP3    H166133   3.519   4.266  12.362  1.6775 -0.2990 -0.3620
14906TIP3    H266134   3.525   4.322  12.222  0.4330 -0.6487 -0.5725
14907TIP3   OH266135   1.209   1.600   1.079  0.4949  0.2370 -0.3666
14907TIP3    H166136   1.171   1.553   1.154  2.2168 -1.0265 -0.2211
14907TIP3    H266137   1.275   1.540   1.045  1.9275  2.0820 -0.9592
14908TIP3   OH266138   3.423   0.736   1.413 -0.1366 -0.0568  0.3540
14908TIP3    H166139   3.483   0.786   1.468  1.7275  0.6010 -2.0970
14908TIP3    H266140   3.468   0.653   1.398 -0.4074 -0.0548 -0.5107
14909TIP3   OH266141   2.120   2.037  15.570 -0.5934 -0.0498  0.1449
14909TIP3    H166142   2.128   2.129  15.545  0.7716 -0.4725 -1.1289
14909TIP3    H266143   2.031   2.029  15.604 -1.0843  1.5222 -0.6606
14910TIP3   OH266144   0.974   4.564  13.353 -0.0030 -0.3531  0.6413
14910TIP3    H166145   1.034   4.506  13.400 -0.7560 -0.9114  0.9320
14910TIP3    H266146   0.888   4.542  13.388 -0.3108  0.9137  0.7214
14911TIP3   OH266147   0.099   6.677   4.389  0.8911  0.5372  1.0365
14911TIP3    H166148   0.189   6.699   4.365  1.5387 -1.1814  1.7341
14911TIP3    H266149   0.046   6.718   4.321  2.2286  1.1573  0.3228
14912TIP3   OH266150   0.678   5.332  14.411 -0.2107  0.1756  0.1766
14912TIP3    H166151   0.689   5.322  14.316 -0.3530  0.1308  0.1640
14912TIP3    H266152   0.587   5.360  14.421 -0.8470 -1.8190  0.4270
14913TIP3   OH266153   5.536   1.963   5.290 -0.2473  0.0516 -0.1450
14913TIP3    H166154   5.623   1.964   5.250  0.7569  0.7316  1.9205
14913TIP3    H266155   5.477   1.943   5.217  1.5915 -0.2236 -1.6531
14914TIP3   OH266156   2.570   1.614  11.903 -0.1291  0.1124 -0.3125
14914TIP3    H166157   2.527   1.561  11.971  0.6277 -0.1877 -0.0562
14914TIP3    H266158   2.606   1.689  11.951  1.7209 -0.8546 -0.0981
14915TIP3   OH266159   1.518   4.138  15.508 -0.4117 -0.2950 -0.1434
14915TIP3    H166160   1.605   4.102  15.523 -0.6073 -0.7769 -0.1122
14915TIP3    H266161   1.520   4.172  15.419 -0.0178  0.2173  0.0636
14916TIP3   OH266162   1.452   4.547  15.186  0.1791  0.3972  0.1873
14916TIP3    H166163   1.477   4.582  15.272  3.0827 -1.8384  0.3827
14916TIP3    H266164   1.472   4.618  15.124  0.1146  1.2347  1.0963
14917TIP3   OH266165   0.158   3.421   6.186 -0.0219  0.0585  0.0306
14917TIP3    H166166   0.172   3.327   6.173 -2.9024 -0.4727  0.1887
14917TIP3    H266167   0.246   3.455   6.202  1.1743 -2.5294 -0.3656
14918TIP3   OH266168   0.380   6.112   3.170 -0.3390 -0.8898  0.1157
14918TIP3    H166169   0.331   6.074   3.243 -1.2175  1.3510  0.7749
14918TIP3    H266170   0.399   6.202   3.198  0.6320 -0.4522 -1.7956
14919TIP3   OH266171   4.154   4.855  15.601  0.1042  0.3300 -0.4061
14919TIP3    H166172   4.201   4.880  15.681 -2.7390  0.2819  1.4426
14919TIP3    H266173   4.147   4.760  15.607  0.3705  0.2658 -1.0492
14920TIP3   OH266174   1.270   3.479   3.290 -0.5397  0.2173 -0.6946
14920TIP3    H166175   1.204   3.424   3.333 -0.8308 -0.8068 -2.3810
14920TIP3    H266176   1.286   3.550   3.353 -1.1006 -1.0722  0.9830
14921TIP3   OH266177   3.160   3.236   5.671  0.1404  0.8699 -0.1314
14921TIP3    H166178   3.150   3.193   5.586  0.1361  1.6427 -0.5392
14921TIP3    H266179   3.075   3.278   5.686 -0.2559 -0.2321  0.8264
14922TIP3   OH266180   2.914   6.174  15.213  0.2283 -0.3824 -0.1423
14922TIP3    H166181   2.930   6.101  15.273 -0.1647  1.2397  2.0199
14922TIP3    H266182   2.823   6.198  15.228  0.6228  1.1685 -0.1129
14923TIP3   OH266183   2.162   1.796  13.517  0.3392  0.1900 -0.4599
14923TIP3    H166184   2.238   1.845  13.485  1.0817 -2.4236 -3.2187
14923TIP3    H266185   2.090   1.858  13.514  1.6760  1.7864 -1.3095
14924TIP3   OH266186   4.019   5.603   4.880 -0.0357  0.4380 -0.0738
14924TIP3    H166187   3.948   5.620   4.818  0.1233 -1.4912 -0.8682
14924TIP3    H266188   4.042   5.511   4.865 -0.4810 -0.3795  3.3599
14925TIP3   OH266189   5.157   6.294   2.693 -0.4158  0.0161 -0.1882
14925TIP3    H166190   5.134   6.357   2.625  0.9629  2.8739  1.8151
14925TIP3    H266191   5.239   6.327   2.730 -1.0861 -1.3782  2.8345
14926TIP3   OH266192   3.925   0.384   4.660  0.3160  0.1948  0.1929
14926TIP3    H166193   3.858   0.316   4.667  0.2687 -0.0081 -1.6186
14926TIP3    H266194   3.889   0.459   4.707 -0.4650 -0.4353  0.6191
14927TIP3   OH266195   6.493   3.488   2.724 -0.1276  0.0847  0.7935
14927TIP3    H166196   6.553   3.425   2.684 -0.3204  0.4422 -0.0783
14927TIP3    H266197   6.428   3.434   2.769  0.5104 -0.3128  1.2528
14928TIP3   OH266198   4.819   4.107   0.772  0.2921 -0.7864 -0.0674
14928TIP3    H166199   4.809   4.192   0.815  2.1143 -1.0621  0.9675
14928TIP3    H266200   4.824   4.128   0.679  0.4133  0.2083  0.1518
14929TIP3   OH266201   5.295   0.624   0.644 -0.2750 -0.8261 -0.1564
14929TIP3    H166202   5.337   0.653   0.563 -0.3919  2.0920  0.7120
14929TIP3    H266203   5.217   0.576   0.616  0.7159 -1.6098 -1.7270
14930TIP3   OH266204   0.968   4.108   1.643  0.5140 -0.3971  0.3475
14930TIP3    H166205   0.984   4.151   1.559 -3.0093 -0.0194 -0.2745
14930TIP3    H266206   0.995   4.173   1.709  3.7855 -0.8869 -0.3581
14931TIP3   OH266207   3.410   5.581   4.249  0.0892  0.1692  0.4501
14931TIP3    H166208   3.432   5.635   4.325  2.3482 -1.3129  0.9766
14931TIP3    H266209   3.433   5.634   4.173  1.2159  0.3683  0.9185
14932TIP3   OH266210   4.418   6.530   0.645  0.3173 -0.0565  0.0559
14932TIP3    H166211   4.411   6.555   0.737 -0.1640  0.6679 -0.1666
14932TIP3    H266212   4.512   6.534   0.626  0.6607 -2.2521  1.0426
14933TIP3   OH266213   1.503   1.075   5.527 -0.2541 -0.5368  0.4451
14933TIP3    H166214   1.582   1.119   5.495 -0.2597 -1.4543 -0.8997
14933TIP3    H266215   1.446   1.147   5.554  1.0701  0.1352  1.5923
14934TIP3   OH266216   3.034   2.990   4.910  0.1813  0.2477 -0.2689
14934TIP3    H166217   3.009   2.914   4.857 -1.8392 -0.2595  1.2843
14934TIP3    H266218   3.097   2.954   4.973  2.8459  0.9202 -2.3831
14935TIP3   OH266219   0.500   1.687  14.265  0.3439 -0.3381 -0.1072
14935TIP3    H166220   0.522   1.665  14.174 -0.2339  0.8419 -0.5612
14935TIP3    H266221   0.566   1.751  14.291  0.9518 -1.2189  0.5798
14936TIP3   OH266222   0.334   2.926  11.185  0.1130 -0.4451  0.5426
14936TIP3    H166223   0.271   2.862  11.154 -1.8905  0.5335  2.2924
14936TIP3    H266224   0.306   3.009  11.146  1.1103 -0.2019  0.3150
14937TIP3   OH266225   1.494   0.845   5.919 -0.2601 -0.0710 -0.3678
14937TIP3    H166226   1.500   0.833   6.014 -0.8661 -0.6048 -0.3889
14937TIP3    H266227   1.412   0.892   5.906  0.4884  1.2331 -0.5399
14938TIP3   OH266228   6.257   5.859   3.002 -0.2196  0.2219  0.2303
14938TIP3    H166229   6.350   5.839   3.003 -0.4412 -1.0824 -1.1451
14938TIP3    H266230   6.249   5.934   2.943 -0.2424 -1.3473 -1.9182
14939TIP3   OH266231   5.430   1.545  15.473  0.1291  0.0172  0.1548
14939TIP3    H166232   5.360   1.610  15.465  0.8411  0.8575  0.6562
14939TIP3    H266233   5.427   1.517  15.565  0.7574  0.4102  0.2983
14940TIP3   OH266234   1.826   0.860  11.306  0.5357 -0.9211  0.2162
14940TIP3    H166235   1.913   0.841  11.340  0.6605 -2.6698 -0.9909
14940TIP3    H266236   1.837   0.866  11.211 -0.3717  0.6358  0.1633
14941TIP3   OH266237   2.981   1.010   1.837  0.0738  0.3080 -0.0306
14941TIP3    H166238   2.973   1.095   1.793  2.0187 -0.1793 -1.4315
14941TIP3    H266239   3.063   1.016   1.886 -0.9006 -0.0040  1.7156
14942TIP3   OH266240   3.058   5.580   5.529 -0.2989  1.0265 -0.1813
14942TIP3    H166241   3.066   5.581   5.624  1.5859 -0.6202 -0.2584
14942TIP3    H266242   3.109   5.504   5.501 -0.3344  1.7807 -2.5454
14943TIP3   OH266243   3.710   0.790  14.717 -0.2510  0.4206  0.2613
14943TIP3    H166244   3.701   0.869  14.663 -1.5152  1.1911  1.5431
14943TIP3    H266245   3.786   0.808  14.772  1.1135 -0.4146 -1.2620
14944TIP3   OH266246   0.377   1.417   3.593 -0.2325  0.3227 -0.0574
14944TIP3    H166247   0.328   1.346   3.554 -2.5506  1.5001  0.5171
14944TIP3    H266248   0.403   1.472   3.520  2.1151 -1.3157 -0.5731
14945TIP3   OH266249   2.585   1.030   5.007  0.5757 -0.4916 -0.6897
14945TIP3    H166250   2.632   0.987   4.936 -0.0646 -0.0133 -1.4186
14945TIP3    H266251   2.606   1.123   4.996  0.8868 -0.4660  0.0698
14946TIP3   OH266252   0.762   1.312   5.882 -0.7335  0.4135 -0.2555
14946TIP3    H166253   0.787   1.372   5.812 -2.3289  0.9667 -0.3861
14946TIP3    H266254   0.670   1.331   5.900 -1.0957 -1.4836  0.2192
14947TIP3   OH266255   6.103   0.381  16.749  0.0770 -0.0521  0.0870
14947TIP3    H166256   6.066   0.398  16.835  1.4920  0.7594  0.5782
14947TIP3    H266257   6.039   0.417  16.688 -1.4589 -1.5840  0.7059
14948TIP3   OH266258   2.609   1.917   5.484 -0.0272  0.0266 -0.3212
14948TIP3    H166259   2.551   1.992   5.497  1.1113  1.3091 -2.0774
14948TIP3    H266260   2.682   1.952   5.433  1.9848 -1.6645  1.2069
14949TIP3   OH266261   5.184   6.006  15.076  0.0246 -0.5397 -0.1794
14949TIP3    H166262   5.168   5.967  14.990 -1.4196  1.2656 -0.7986
14949TIP3    H266263   5.099   6.006  15.119 -0.2994  2.5828 -0.5693
14950TIP3   OH266264   1.766   5.218  12.011 -0.5784 -0.2884 -0.3934
14950TIP3    H166265   1.727   5.220  11.924 -0.1018  1.2488 -0.6070
14950TIP3    H266266   1.806   5.305  12.021 -0.4625 -0.5031  1.2807
14951TIP3   OH266267   5.848   6.697   5.038 -0.1057 -0.0255 -0.3676
14951TIP3    H166268   5.828   6.614   4.996  1.1071 -0.0853 -0.8694
14951TIP3    H266269   5.776   6.711   5.100 -1.8302 -0.0517 -2.2745
14952TIP3   OH266270   4.206   5.459  14.553  0.3800  0.4574 -0.6183
14952TIP3    H166271   4.220   5.438  14.461 -1.6280  0.3497 -0.9635
14952TIP3    H266272   4.197   5.374  14.596 -1.0300  0.5001 -0.7833
14953TIP3   OH266273   1.623   3.544   1.158  0.2480  0.3738  0.4483
14953TIP3    H166274   1.687   3.483   1.193  0.2000  0.4960  0.7554
14953TIP3    H266275   1.631   3.536   1.063  0.6221  0.2925  0.4858
14954TIP3   OH266276   6.182   2.035   3.501  0.2534 -0.1165 -0.1248
14954TIP3    H166277   6.149   1.958   3.455 -0.2579  0.7373 -1.2411
14954TIP3    H266278   6.267   2.053   3.460  1.2294 -1.1227  1.3698
14955TIP3   OH266279   4.817   6.704   3.995 -0.8084 -0.0521 -0.5633
14955TIP3    H166280   4.816   6.763   4.070 -0.0513  0.8370 -1.2367
14955TIP3    H266281   4.901   6.719   3.953  0.2915 -3.0022  0.3044
14956TIP3   OH266282   5.364   5.993  16.071  0.1458  0.4547 -0.1494
14956TIP3    H166283   5.297   6.004  16.138 -1.0386 -0.4038 -1.1304
14956TIP3    H266284   5.426   6.063  16.087 -0.2775  0.4713  1.6211
14957TIP3   OH266285   4.593   4.168   3.661 -0.2086 -0.5111  0.4952
14957TIP3    H166286   4.521   4.203   3.608  0.1015  0.2933  0.5969
14957TIP3    H266287   4.668   4.166   3.601  0.1202  0.3107  0.8594
14958TIP3   OH266288   4.356   3.064  11.332  0.0034 -0.0267  0.4216
14958TIP3    H166289   4.431   3.111  11.295 -0.4861 -0.0209 -0.6125
14958TIP3    H266290   4.345   2.989  11.274 -4.7145  3.1783 -3.7257
14959TIP3   OH266291   1.503   0.809   0.867  0.1593  0.1192 -0.4121
14959TIP3    H166292   1.560   0.848   0.800 -0.8379  0.8915 -0.8456
14959TIP3    H266293   1.547   0.829   0.950  1.7453 -1.4002 -0.8147
14960TIP3   OH266294   3.118   2.070  12.620  0.6710  0.1180 -0.0241
14960TIP3    H166295   3.128   2.079  12.715  1.4994 -2.0171  0.1298
14960TIP3    H266296   3.083   1.982  12.607  0.2979  0.4752 -1.6952
14961TIP3   OH266297   4.041   3.508  10.899  0.5223 -0.1098  0.6921
14961TIP3    H166298   4.105   3.444  10.867 -0.6970 -0.5813 -0.9664
14961TIP3    H266299   3.959   3.460  10.904 -0.5876  1.4174 -1.2454
14962TIP3   OH266300   1.909   1.599  17.170  0.2465  0.4704 -0.2252
14962TIP3    H166301   1.836   1.659  17.187  0.2306  0.2760  0.4379
14962TIP3    H266302   1.974   1.653  17.126 -0.6669  0.4110 -1.6903
14963TIP3   OH266303   6.093   0.081  13.038 -0.0140 -0.8019  0.0044
14963TIP3    H166304   6.186   0.067  13.020  0.0426 -1.6253  0.8673
14963TIP3    H266305   6.081   0.176  13.028  0.8633 -0.7156 -0.3293
14964TIP3   OH266306   1.197   2.437  17.209  0.0744  0.7597  0.2616
14964TIP3    H166307   1.174   2.470  17.123 -0.0445  0.2608  0.0993
14964TIP3    H266308   1.215   2.344  17.196  0.6146  0.7935  0.6723
14965TIP3   OH266309   1.470   3.372  17.124 -0.6577  0.2546 -0.7359
14965TIP3    H166310   1.461   3.442  17.188  1.1058 -0.1407  0.0023
14965TIP3    H266311   1.564   3.351  17.124 -0.7460 -0.3822 -2.7780
14966TIP3   OH266312   6.554   0.582   3.108  0.0707  0.6506 -0.7879
14966TIP3    H166313   6.509   0.540   3.181 -0.9946  0.9946 -1.2175
14966TIP3    H266314   6.512   0.546   3.030  2.2415 -0.9147 -1.3376
14967TIP3   OH266315   1.459   3.025  13.278 -0.1886  0.1173  0.2399
14967TIP3    H166316   1.470   2.935  13.247  1.0119  0.1612  0.4803
14967TIP3    H266317   1.514   3.030  13.356  1.1655  1.5202 -0.7293
14968TIP3   OH266318   1.263   5.691   5.570 -0.0473 -0.2329 -0.3086
14968TIP3    H166319   1.296   5.605   5.596 -1.1836 -1.2827 -2.0859
14968TIP3    H266320   1.196   5.712   5.634 -1.0132 -1.5460 -0.8462
14969TIP3   OH266321   6.635   5.932   0.131  1.1565  0.1192 -0.3919
14969TIP3    H166322   6.718   5.900   0.097  1.3756  1.8211 -1.6062
14969TIP3    H266323   6.589   5.966   0.054 -1.4711 -2.3165 -0.0779
14970TIP3   OH266324   1.530   6.711   5.881  0.5768  0.3338  0.4224
14970TIP3    H166325   1.472   6.787   5.884  0.5324  0.2976  0.5212
14970TIP3    H266326   1.617   6.747   5.870  0.2687  0.3004 -3.5947
14971TIP3   OH266327   1.529   1.787   3.845 -0.4793 -0.4603 -0.2302
14971TIP3    H166328   1.457   1.849   3.850 -0.2841 -0.2778  0.3383
14971TIP3    H266329   1.530   1.743   3.930 -0.6041 -1.2380 -0.6163
14972TIP3   OH266330   6.122   6.711   2.109  0.1698 -0.2976  0.3730
14972TIP3    H166331   6.034   6.690   2.076 -0.4019  1.4355  0.6633
14972TIP3    H266332   6.179   6.702   2.033 -1.1273  3.7115 -1.3409
14973TIP3   OH266333   2.511   3.778  15.290  0.9464  0.0925  0.1571
14973TIP3    H166334   2.524   3.689  15.323  0.1909 -0.6987 -1.5102
14973TIP3    H266335   2.492   3.830  15.367 -0.6655 -1.6195  0.9989
14974TIP3   OH266336   3.024   1.246  13.071 -0.1608 -0.1907  0.3802
14974TIP3    H166337   3.062   1.271  13.156  0.0545 -0.0983  0.2571
14974TIP3    H266338   3.044   1.153  13.062 -1.5753 -0.5932  1.1650
14975TIP3   OH266339   2.083   3.443   1.814 -0.2791 -0.6072  0.7097
14975TIP3    H166340   2.070   3.537   1.827 -0.7745 -0.5358 -0.1987
14975TIP3    H266341   2.137   3.416   1.888  0.0717  0.4357  0.8581
14976TIP3   OH266342   4.721   2.952  13.163 -0.3401 -0.2161  0.0845
14976TIP3    H166343   4.679   3.018  13.218  0.1622  0.3452 -0.1983
14976TIP3    H266344   4.814   2.961  13.182 -0.0823  0.4848 -1.3785
14977TIP3   OH266345   4.299   0.568  14.946  0.7406 -0.6124  0.1179
14977TIP3    H166346   4.276   0.479  14.918  1.1909 -0.7471  0.1614
14977TIP3    H266347   4.392   0.562  14.968  0.4224 -0.4992  1.5979
14978TIP3   OH266348   5.286   2.174  13.754  0.0842 -0.0593  0.0475
14978TIP3    H166349   5.379   2.198  13.757 -0.1310  0.7512  1.0298
14978TIP3    H266350   5.273   2.137  13.667  1.0582  0.9529 -0.5510
14979TIP3   OH266351   1.840   1.030  15.475 -0.0479  0.6484  0.5048
14979TIP3    H166352   1.902   1.098  15.450  0.9902 -0.7154 -0.8021
14979TIP3    H266353   1.796   1.007  15.393 -0.3345 -0.2825  0.9091
14980TIP3   OH266354   1.909   4.081  15.577 -1.0738  0.3662  0.5265
14980TIP3    H166355   1.940   4.012  15.518  2.0643 -0.3879  2.7956
14980TIP3    H266356   1.871   4.147  15.519 -0.7938 -1.5667 -2.0361
14981TIP3   OH266357   3.354   0.234   5.326 -0.1656 -0.1844 -0.3419
14981TIP3    H166358   3.363   0.315   5.276  0.4050 -0.6721 -1.0487
14981TIP3    H266359   3.413   0.172   5.283  2.2868  0.0398  2.3687
14982TIP3   OH266360   0.059   6.177   4.157  0.0143  0.0058 -0.3792
14982TIP3    H166361   0.011   6.151   4.235 -1.0888  1.4932 -0.5126
14982TIP3    H266362   0.056   6.100   4.100  0.7012 -1.0429  0.9341
14983TIP3   OH266363   1.492   1.330  11.808 -0.5411  0.3642  0.3503
14983TIP3    H166364   1.417   1.375  11.847 -0.9153 -1.7072  2.2144
14983TIP3    H266365   1.516   1.384  11.732 -1.2489  3.3872  2.1083
14984TIP3   OH266366   6.611   4.402   3.679  0.3109 -0.2258  0.0881
14984TIP3    H166367   6.580   4.313   3.666 -0.4736  0.1926 -1.1904
14984TIP3    H266368   6.661   4.422   3.599  0.4307  0.4763  0.3284
14985TIP3   OH266369   0.218   0.149   5.904 -0.3326  0.3121 -0.3644
14985TIP3    H166370   0.144   0.088   5.899 -0.2187  0.1253  0.1132
14985TIP3    H266371   0.286   0.099   5.950 -0.9119  1.4317  1.8673
14986TIP3   OH266372   2.339   2.452  14.492  0.0275 -0.3958 -0.0995
14986TIP3    H166373   2.327   2.407  14.408 -1.0318 -0.8847  0.3008
14986TIP3    H266374   2.289   2.533  14.483 -0.5192 -0.6858  0.2237
14987TIP3   OH266375   4.150   6.050  16.691 -0.4026 -0.4015  0.2635
14987TIP3    H166376   4.134   6.122  16.631 -0.9568 -0.5037  0.2829
14987TIP3    H266377   4.067   6.038  16.737  0.4942  0.8388  2.3255
14988TIP3   OH266378   2.023   1.637  13.339 -0.5413 -0.7083  0.1466
14988TIP3    H166379   1.941   1.686  13.332 -0.6941 -0.9011  0.5277
14988TIP3    H266380   2.071   1.681  13.409  0.9322  1.1548 -1.8841
14989TIP3   OH266381   1.829   4.734   1.548 -0.2838  0.6820 -0.0864
14989TIP3    H166382   1.834   4.821   1.508  0.0076  0.8387  0.2741
14989TIP3    H266383   1.762   4.743   1.616 -0.3278  0.5947 -0.1183
14990TIP3   OH266384   3.579   4.946   5.584  0.1080 -0.7091  0.1156
14990TIP3    H166385   3.659   4.985   5.549 -0.8388  1.3593  0.1222
14990TIP3    H266386   3.596   4.939   5.678  0.4485 -0.6815  0.0594
14991TIP3   OH266387   6.508   0.749  15.264  0.1784 -0.5758 -0.0544
14991TIP3    H166388   6.576   0.806  15.229  2.4357 -2.8223  0.3992
14991TIP3    H266389   6.444   0.743  15.193  0.7780  1.0118 -0.7853
14992TIP3   OH266390   2.039   4.990   4.672  0.4100  0.3186 -0.0376
14992TIP3    H166391   2.009   4.908   4.711 -2.2353  1.2770  0.1097
14992TIP3    H266392   2.116   5.015   4.723  0.6647 -1.5447  0.5460
14993TIP3   OH266393   4.518   0.807  15.271  0.3632  0.1550  0.1826
14993TIP3    H166394   4.612   0.822  15.259  0.3004 -0.3485 -1.1739
14993TIP3    H266395   4.509   0.712  15.271 -0.1893  0.2069 -0.1835
14994TIP3   OH266396   0.761   2.549   5.788 -0.5806  0.3727  0.0485
14994TIP3    H166397   0.706   2.582   5.716 -1.4218  0.2921  0.6325
14994TIP3    H266398   0.698   2.523   5.856  0.1874  0.2293  0.7215
14995TIP3   OH266399   4.778   2.971   3.994 -0.0418  0.4153  0.3244
14995TIP3    H166400   4.778   2.894   3.938 -1.5479 -0.3933  1.3413
14995TIP3    H266401   4.751   3.043   3.937  1.1587  0.1709 -0.5808
14996TIP3   OH266402   1.917   4.435  15.265  0.0738  0.6936 -0.4076
14996TIP3    H166403   1.953   4.347  15.252 -1.5165 -0.2187  1.0238
14996TIP3    H266404   1.846   4.442  15.200  0.2252  0.9573 -0.5494
14997TIP3   OH266405   1.983   5.473   5.812 -0.4281 -0.0623 -0.7573
14997TIP3    H166406   1.936   5.423   5.878 -0.5365 -0.7649 -1.3593
14997TIP3    H266407   2.058   5.511   5.860 -1.0918  0.3330 -0.0005
14998TIP3   OH266408   0.296   5.928   2.040  0.3247 -0.6907 -0.1086
14998TIP3    H166409   0.205   5.920   2.070  1.0020  1.6214  3.0532
14998TIP3    H266410   0.291   5.981   1.960 -1.0798 -0.3756  0.1699
14999TIP3   OH266411   2.436   4.448  14.378 -0.7499 -0.4034  0.3556
14999TIP3    H166412   2.475   4.530  14.346 -0.3067 -0.1828  1.4161
14999TIP3    H266413   2.353   4.474  14.417 -0.7220 -0.4886  0.4738
15000TIP3   OH266414   1.577   2.117  14.892 -0.1654 -0.3971 -0.6961
15000TIP3    H166415   1.612   2.044  14.943 -1.3841 -1.8981 -1.9231
15000TIP3    H266416   1.637   2.125  14.818  1.1708  1.2895  0.4858
15001TIP3   OH266417   2.580   5.929  15.277 -0.0713  0.2360 -0.5586
15001TIP3    H166418   2.510   5.863  15.278  0.0153  0.1135  1.7584
15001TIP3    H266419   2.548   5.999  15.334  1.4926  0.3825  0.1957
15002TIP3   OH266420   0.676   1.228  16.885 -0.4798  0.5378 -0.5495
15002TIP3    H166421   0.582   1.248  16.883 -0.3864  0.9262 -1.2026
15002TIP3    H266422   0.713   1.295  16.943 -1.0428 -1.6025  2.5554
15003TIP3   OH266423   2.130   6.712   1.655  0.3004  0.4525 -0.1916
15003TIP3    H166424   2.167   6.624   1.658 -0.3848  0.1330 -0.7225
15003TIP3    H266425   2.090   6.718   1.568  1.1025  1.6126 -0.5047
15004TIP3   OH266426   1.338   6.159   4.552  0.3181  0.3939 -0.0103
15004TIP3    H166427   1.382   6.080   4.519 -0.0659 -0.3040  1.1049
15004TIP3    H266428   1.270   6.177   4.487 -0.1545 -0.7135  0.1491
15005TIP3   OH266429   4.731   3.176   4.494  0.3588 -0.2636 -0.1804
15005TIP3    H166430   4.766   3.263   4.474  0.0117  0.2647  1.4188
15005TIP3    H266431   4.680   3.153   4.416  0.4478  0.9571 -0.6287
15006TIP3   OH266432   4.252   4.218  14.005  0.1025  0.2928  0.4313
15006TIP3    H166433   4.317   4.286  13.987 -0.8943  1.5147  1.3247
15006TIP3    H266434   4.178   4.240  13.948  0.4507 -1.1051 -0.6037
15007TIP3   OH266435   2.435   3.652  11.093  0.2534 -0.3892  0.2050
15007TIP3    H166436   2.454   3.664  11.000 -1.2133 -0.4789 -0.1294
15007TIP3    H266437   2.504   3.594  11.124  0.4531 -0.8083 -0.9689
15008TIP3   OH266438   4.347   3.160   5.439 -0.0220 -0.2566 -0.2454
15008TIP3    H166439   4.393   3.170   5.523 -1.6852 -1.7715  0.9217
15008TIP3    H266440   4.360   3.069   5.415 -0.0739  0.0186 -1.3403
15009TIP3   OH266441   0.368   4.703  16.401  0.7480  0.2348  0.1005
15009TIP3    H166442   0.381   4.795  16.422  2.1611  0.2556 -0.7296
15009TIP3    H266443   0.400   4.694  16.311  0.7111 -1.0777  0.1968
15010TIP3   OH266444   5.083   0.368   5.075 -0.1582  0.2881  0.1037
15010TIP3    H166445   5.106   0.316   5.152  0.3564 -1.8485 -1.4114
15010TIP3    H266446   4.991   0.350   5.060  0.0481 -0.3051 -0.4895
15011TIP3   OH266447   2.725   2.859   3.420 -0.3635  0.0248 -0.1400
15011TIP3    H166448   2.657   2.791   3.429 -1.0961  0.5950 -1.1680
15011TIP3    H266449   2.696   2.929   3.479  0.1008 -0.3063  0.4988
15012TIP3   OH266450   5.681   6.739  13.948  0.5779  0.3066 -0.7692
15012TIP3    H166451   5.610   6.753  13.885  1.9188  0.6016 -2.2798
15012TIP3    H266452   5.692   6.823  13.992  0.7409  0.5855 -1.3438
15013TIP3   OH266453   6.631   0.593  13.821 -0.3773 -0.6492 -0.0550
15013TIP3    H166454   6.593   0.679  13.840 -0.6180 -0.5749 -0.8069
15013TIP3    H266455   6.571   0.555  13.756  0.4969 -0.7929 -0.7966
15014TIP3   OH266456   1.324   3.299  12.497  0.1548 -0.3959  0.2212
15014TIP3    H166457   1.403   3.263  12.538  1.0627  0.2052 -0.9362
15014TIP3    H266458   1.346   3.305  12.404 -1.5958 -1.0723 -0.2817
15015TIP3   OH266459   6.264   1.779  11.532  0.1616 -0.2669  0.1109
15015TIP3    H166460   6.313   1.764  11.613  1.9385  0.0253 -0.8501
15015TIP3    H266461   6.307   1.855  11.492  0.0494 -1.0553 -1.6142
15016TIP3   OH266462   1.772   2.092  11.002  0.1065  0.5541  0.1700
15016TIP3    H166463   1.773   2.003  10.966 -0.7349  0.3352  0.6484
15016TIP3    H266464   1.814   2.145  10.935  1.4667 -0.3392  0.2731
15017TIP3   OH266465   5.585   1.207  13.030 -0.3682  0.4238  0.5337
15017TIP3    H166466   5.531   1.269  12.980 -0.0509 -0.8655 -1.5405
15017TIP3    H266467   5.672   1.215  12.992 -0.0755 -0.5230  0.9763
15018TIP3   OH266468   6.439   6.527   2.115  0.4441 -0.7229 -0.4857
15018TIP3    H166469   6.451   6.602   2.056  0.9220 -1.0223 -0.7822
15018TIP3    H266470   6.505   6.539   2.183 -0.3956 -0.1486  0.2372
15019TIP3   OH266471   3.757   3.808   1.688 -0.3984  0.4746 -0.5203
15019TIP3    H166472   3.686   3.852   1.643  0.3146  1.2972 -0.8636
15019TIP3    H266473   3.836   3.836   1.642  0.2239  0.2201  0.3620
15020TIP3   OH266474   2.522   3.444  15.128 -0.2593  0.2319 -0.3014
15020TIP3    H166475   2.541   3.486  15.044  0.4375 -0.1879 -0.3669
15020TIP3    H266476   2.454   3.380  15.108  1.0063 -0.9927 -0.9052
15021TIP3   OH266477   3.357   3.827   6.865  0.6103 -0.0505  0.5521
15021TIP3    H166478   3.371   3.908   6.914  0.0334  1.2481 -1.3567
15021TIP3    H266479   3.430   3.770   6.891  1.6666  1.4882  1.0663
15022TIP3   OH266480   1.531   0.535  15.198 -0.7362  0.1017  0.6926
15022TIP3    H166481   1.502   0.444  15.191  0.4025 -0.2118 -0.3196
15022TIP3    H266482   1.509   0.560  15.288 -0.1245 -1.5194  1.3440
15023TIP3   OH266483   0.345   2.613  12.743 -0.3014  0.0666 -0.3630
15023TIP3    H166484   0.357   2.674  12.670 -0.8880 -0.6684 -1.0940
15023TIP3    H266485   0.433   2.593  12.774  0.0148 -0.4048 -1.5449
15024TIP3   OH266486   2.433   6.175  15.384 -0.7892 -0.5238 -0.2653
15024TIP3    H166487   2.367   6.106  15.394 -1.1939 -0.0734  0.3002
15024TIP3    H266488   2.382   6.256  15.380 -0.3952 -0.3403 -2.2655
15025TIP3   OH266489   0.197   6.393  13.349 -0.2978 -0.4672  0.0873
15025TIP3    H166490   0.290   6.373  13.336 -0.1951 -1.5360  2.1506
15025TIP3    H266491   0.152   6.311  13.331 -0.8742  0.0563 -0.9350
15026TIP3   OH266492   5.663   4.203   0.120 -0.3255  0.0063 -0.4045
15026TIP3    H166493   5.672   4.252   0.038 -0.1427 -0.5528 -0.7230
15026TIP3    H266494   5.730   4.134   0.114 -0.1282  0.1247  0.3349
15027TIP3   OH266495   3.446   1.862  14.767 -0.5330  0.1801  0.4688
15027TIP3    H166496   3.364   1.879  14.721  0.0029  1.4561 -0.0607
15027TIP3    H266497   3.500   1.815  14.703 -0.6028 -0.0455  0.5761
15028TIP3   OH266498   2.826   2.881  16.094  0.2781  0.2054 -0.2188
15028TIP3    H166499   2.815   2.871  16.000 -0.3515 -2.1922  0.0408
15028TIP3    H266500   2.907   2.834  16.114  0.0635  0.1321  0.5157
15029TIP3   OH266501   3.289   2.414  16.207 -0.2857  0.2586 -0.3102
15029TIP3    H166502   3.197   2.409  16.236 -0.6194 -1.0026 -1.4769
15029TIP3    H266503   3.330   2.338  16.249 -0.0686  0.1424 -0.7288
15030TIP3   OH266504   2.719   1.112   4.087  0.3768  0.4684 -0.3434
15030TIP3    H166505   2.764   1.170   4.025  1.3326 -1.2712 -1.3660
15030TIP3    H266506   2.727   1.025   4.048  0.1707 -0.5627  1.7817
15031TIP3   OH266507   3.795   4.303  14.832 -0.1835 -0.1898  0.4275
15031TIP3    H166508   3.855   4.239  14.870 -0.0543 -1.0113 -1.0716
15031TIP3    H266509   3.831   4.388  14.858  0.4720 -0.7011  1.2385
15032TIP3   OH266510   5.323   0.950  14.238  0.5583  0.3312 -0.4328
15032TIP3    H166511   5.235   0.979  14.265 -0.8079  0.3461 -4.2660
15032TIP3    H266512   5.356   0.900  14.313 -3.4810 -1.1716  0.6198
15033TIP3   OH266513   4.198   5.317   1.463  0.0138 -0.1500 -0.1396
15033TIP3    H166514   4.133   5.298   1.530  0.9591  1.4998  1.3365
15033TIP3    H266515   4.151   5.368   1.397 -0.3896  0.3069  0.4944
15034TIP3   OH266516   0.472   4.619   6.241  0.7162  1.2731 -0.3757
15034TIP3    H166517   0.401   4.565   6.278  2.1044  0.0499  0.6081
15034TIP3    H266518   0.433   4.705   6.231 -1.1542  0.4545 -0.6028
15035TIP3   OH266519   4.660   6.517  13.627 -0.0819  0.4847 -0.6890
15035TIP3    H166520   4.635   6.540  13.538 -0.5379 -0.9243 -0.9662
15035TIP3    H266521   4.706   6.594  13.661  0.3329  0.9465 -2.2211
15036TIP3   OH266522   0.076   5.848  11.574 -0.4577  0.1200 -0.0258
15036TIP3    H166523   0.127   5.923  11.604 -1.1610 -0.3366  2.6048
15036TIP3    H266524   0.100   5.838  11.482 -0.2211  3.4228 -0.4442
15037TIP3   OH266525   4.766   1.213  12.093  0.9871 -0.2666  0.2941
15037TIP3    H166526   4.803   1.270  12.161 -0.7996  0.6021  0.5857
15037TIP3    H266527   4.841   1.160  12.064  2.0265  0.0213  2.2243
15038TIP3   OH266528   1.223   3.581   2.993  0.0754 -0.1989 -0.1092
15038TIP3    H166529   1.318   3.592   2.989  0.0553  0.2351  0.4975
15038TIP3    H266530   1.208   3.531   3.073 -0.3409  1.5310  0.9432
15039TIP3   OH266531   4.180   2.846   5.195  0.2091 -0.0903  0.4745
15039TIP3    H166532   4.245   2.777   5.190  0.2247  0.0135 -1.6600
15039TIP3    H266533   4.195   2.899   5.116 -1.2711  0.9947  0.8783
15040TIP3   OH266534   5.985   4.248  14.327  0.4415  0.6720  0.1383
15040TIP3    H166535   5.940   4.241  14.411  0.9969 -0.2012  0.3772
15040TIP3    H266536   6.045   4.174  14.326  1.1518  1.2449 -0.6066
15041TIP3   OH266537   3.156   1.395   2.946  0.3713  0.0215 -0.1338
15041TIP3    H166538   3.135   1.412   3.037  3.7764 -3.1201  1.5242
15041TIP3    H266539   3.111   1.313   2.926 -1.3231  1.2810 -1.7977
15042TIP3   OH266540   0.967   5.066   3.239  0.0070  0.5825  0.2716
15042TIP3    H166541   0.890   5.121   3.252 -0.2041  0.3463  0.0330
15042TIP3    H266542   0.933   4.976   3.242  0.4399  0.4387  1.2663
15043TIP3   OH266543   5.869   4.944   3.485  0.3185  0.0098 -0.0761
15043TIP3    H166544   5.845   5.001   3.412 -2.0714 -0.0891  0.5655
15043TIP3    H266545   5.910   4.868   3.443 -0.4961  0.2124 -1.2870
15044TIP3   OH266546   0.547   6.480  13.844 -0.1555 -0.0861 -0.0366
15044TIP3    H166547   0.552   6.448  13.754  0.4742 -0.0829 -0.0059
15044TIP3    H266548   0.619   6.435  13.889  0.7595  1.3596  0.0064
15045TIP3   OH266549   4.529   2.920  13.422  0.4260 -0.0358 -1.1712
15045TIP3    H166550   4.543   2.976  13.498 -1.5178 -0.4775 -0.4374
15045TIP3    H266551   4.565   2.835  13.448 -1.1100 -0.4648 -0.2933
15046TIP3   OH266552   0.765   1.990  13.671 -0.0896 -0.3362  0.6646
15046TIP3    H166553   0.815   2.026  13.598 -3.9989 -1.0060 -2.6938
15046TIP3    H266554   0.747   2.066  13.727 -0.1811  1.0594 -1.1487
15047TIP3   OH266555   3.154   2.146   4.980 -0.7389 -0.6961  0.6504
15047TIP3    H166556   3.241   2.159   4.944 -1.4377  0.1003 -0.8433
15047TIP3    H266557   3.129   2.057   4.954 -1.9336  0.4339 -2.5923
15048TIP3   OH266558   2.868   2.143   1.968 -0.4557  0.5427 -0.3320
15048TIP3    H166559   2.947   2.124   2.017  0.5083  1.2055 -1.5757
15048TIP3    H266560   2.884   2.229   1.928 -1.3767  0.2311 -1.4240
15049TIP3   OH266561   0.694   4.854   3.449  0.0870 -0.1006 -0.0302
15049TIP3    H166562   0.754   4.882   3.517  1.0560  0.3129 -1.0300
15049TIP3    H266563   0.749   4.841   3.371 -1.1592  0.8312 -1.1260
15050TIP3   OH266564   6.051   2.050  15.536  0.0043  0.3802  0.5189
15050TIP3    H166565   6.012   2.022  15.453  0.2833  1.1634  0.1059
15050TIP3    H266566   5.977   2.082  15.588  0.0089  1.4740 -0.1031
15051TIP3   OH266567   5.372   0.950  13.829 -0.1541 -0.0369 -0.4941
15051TIP3    H166568   5.372   0.966  13.735 -1.0922  0.1192 -0.4878
15051TIP3    H266569   5.461   0.970  13.858  0.5615 -1.5353 -1.5615
15052TIP3   OH266570   6.692   4.806  16.872  0.3602  0.1470 -0.5187
15052TIP3    H166571   6.635   4.771  16.940 -0.1978  0.6819 -0.7044
15052TIP3    H266572   6.632   4.834  16.802  0.8928  0.0090 -1.0435
15053TIP3   OH266573   2.916   0.810  12.508  0.1397 -0.1780 -0.1580
15053TIP3    H166574   2.981   0.801  12.438  0.1650 -0.7350 -0.0740
15053TIP3    H266575   2.917   0.724  12.552 -1.5514 -0.6482 -0.9419
15054TIP3   OH266576   4.281   4.739  15.283 -0.1293 -0.4671  0.0102
15054TIP3    H166577   4.247   4.693  15.360 -2.5003  1.3013  0.1621
15054TIP3    H266578   4.301   4.827  15.315  1.1245 -0.3888 -0.9329
15055TIP3   OH266579   1.199   2.911   2.547 -0.2134 -0.2006 -0.5089
15055TIP3    H166580   1.177   2.995   2.506 -0.4959  0.2524  0.5186
15055TIP3    H266581   1.270   2.933   2.608 -0.5916 -0.6115  0.0890
15056TIP3   OH266582   3.797   5.643  14.791  0.3812 -0.3120 -0.3211
15056TIP3    H166583   3.745   5.605  14.719 -0.0567 -0.7929  0.2397
15056TIP3    H266584   3.798   5.737  14.773 -1.0256 -0.2440 -0.1440
15057TIP3   OH266585   5.751   3.825  16.526 -0.1221 -0.4664  0.3877
15057TIP3    H166586   5.744   3.787  16.439 -1.7677  2.5874 -0.9939
15057TIP3    H266587   5.760   3.919  16.511  1.0599  0.0678  3.5241
15058TIP3   OH266588   5.524   5.218  11.424  0.2355 -0.4161  0.0588
15058TIP3    H166589   5.593   5.166  11.464  0.1379  0.4991  1.5016
15058TIP3    H266590   5.444   5.169  11.441  0.3914 -0.9096 -0.6036
15059TIP3   OH266591   0.103   2.362   5.587 -0.2926  0.4510  0.5095
15059TIP3    H166592   0.101   2.330   5.678 -0.2267  0.1139  0.3938
15059TIP3    H266593   0.196   2.365   5.565 -0.3436 -0.4759  0.1067
15060TIP3   OH266594   4.520   6.577   2.501 -0.4168  0.5383  0.2776
15060TIP3    H166595   4.589   6.643   2.511  0.0079  0.0324  0.8167
15060TIP3    H266596   4.517   6.534   2.587 -0.4255 -0.3901 -0.1831
15061TIP3   OH266597   6.319   3.808   4.265  0.3938  0.1258  0.2277
15061TIP3    H166598   6.313   3.818   4.170 -2.0958  1.2564  0.4439
15061TIP3    H266599   6.387   3.871   4.291 -0.6165  1.6086 -0.5810
15062TIP3   OH266600   3.427   5.308  16.848  0.1736 -0.1274 -0.0163
15062TIP3    H166601   3.339   5.271  16.846  1.0494 -2.4821  0.5325
15062TIP3    H266602   3.450   5.322  16.756 -0.9791  1.1270 -0.1323
15063TIP3   OH266603   4.599   5.232   5.858  0.1929 -0.1004  0.7616
15063TIP3    H166604   4.600   5.256   5.766  0.9430  1.3470  1.1290
15063TIP3    H266605   4.691   5.227   5.883  0.0136 -1.3191  1.2392
15064TIP3   OH266606   4.373   3.113   2.233 -0.1022 -0.0105  0.4076
15064TIP3    H166607   4.412   3.199   2.249  0.2986  0.1653 -1.3067
15064TIP3    H266608   4.287   3.117   2.275 -0.6187  1.7069 -0.7330
15065TIP3   OH266609   1.139   1.699  16.510 -0.1880 -0.6311 -0.2410
15065TIP3    H166610   1.173   1.777  16.467  1.6421 -0.0284  2.0612
15065TIP3    H266611   1.161   1.627  16.452 -0.5953  0.3945 -1.7211
15066TIP3   OH266612   3.083   3.338   3.475 -0.2676  0.2830  0.1465
15066TIP3    H166613   2.999   3.310   3.438  1.4368 -0.4754 -3.7671
15066TIP3    H266614   3.107   3.268   3.536 -2.1501  0.1860  0.8196
15067TIP3   OH266615   4.206   2.609  12.211  0.3648  0.1123 -0.3012
15067TIP3    H166616   4.179   2.673  12.277 -0.1376  0.3462 -0.7243
15067TIP3    H266617   4.232   2.532  12.261  1.9956  0.9833  0.2754
15068TIP3   OH266618   0.650   0.573  14.878 -0.5762 -0.5270  0.4355
15068TIP3    H166619   0.626   0.644  14.819 -2.3301 -0.9253  0.6180
15068TIP3    H266620   0.631   0.493  14.828  1.0324 -0.9005  0.3573
15069TIP3   OH266621   3.865   0.609   3.295 -0.1926  0.3792  0.0960
15069TIP3    H166622   3.804   0.536   3.296  0.3072 -0.1349 -1.7066
15069TIP3    H266623   3.926   0.591   3.366  0.2775 -1.3257 -0.6708
15070TIP3   OH266624   5.509   1.350  16.262 -0.0319 -0.1034  0.3403
15070TIP3    H166625   5.464   1.331  16.180 -0.8599  2.4527  0.0971
15070TIP3    H266626   5.446   1.328  16.330 -1.4876  2.6260  0.0261
15071TIP3   OH266627   2.804   3.527   4.273  0.0005  0.4117  0.2322
15071TIP3    H166628   2.871   3.591   4.296  1.4420 -0.5623 -1.0493
15071TIP3    H266629   2.838   3.444   4.307 -0.3524 -0.1618 -0.7720
15072TIP3   OH266630   5.517   3.153   0.423 -0.3422 -0.7783  0.3957
15072TIP3    H166631   5.578   3.159   0.349 -0.4868 -1.4176  0.2127
15072TIP3    H266632   5.448   3.094   0.392 -1.8626  1.0856  0.0619
15073TIP3   OH266633   6.268   1.776   2.509  0.3802 -0.1228  0.0292
15073TIP3    H166634   6.287   1.847   2.571  1.8433  0.6631 -1.2458
15073TIP3    H266635   6.236   1.704   2.564 -0.8745  1.3928  1.3990
15074TIP3   OH266636   5.334   3.623  14.214 -0.1869 -1.1412 -0.2474
15074TIP3    H166637   5.334   3.528  14.224  0.4163 -1.0037  1.3456
15074TIP3    H266638   5.313   3.657  14.301 -2.1863  0.1879 -1.1780
15075TIP3   OH266639   1.316   2.241   0.834  0.1561  1.1093 -0.3377
15075TIP3    H166640   1.270   2.182   0.774  0.2299  1.1065 -0.3923
15075TIP3    H266641   1.409   2.223   0.818  0.1891 -0.1359  0.9896
15076TIP3   OH266642   0.321   1.571   2.577  0.1927  0.4536 -0.1250
15076TIP3    H166643   0.405   1.541   2.544  0.3330 -0.6208  1.1105
15076TIP3    H266644   0.336   1.588   2.670 -0.9012  0.4505  0.0716
15077TIP3   OH266645   5.640   0.984   4.046  0.1171 -0.0856 -0.6803
15077TIP3    H166646   5.659   0.947   3.960 -1.9912  0.3978 -1.4273
15077TIP3    H266647   5.617   0.909   4.101  2.4042 -0.4989 -0.2059
15078TIP3   OH266648   3.068   6.719   4.729  0.5824 -0.5070  0.1060
15078TIP3    H166649   3.005   6.673   4.785 -1.2500  0.2787 -1.1888
15078TIP3    H266650   3.078   6.661   4.653 -1.3077  0.8623 -1.2754
15079TIP3   OH266651   1.258   6.424   4.594  0.0424  0.4007 -0.3218
15079TIP3    H166652   1.290   6.340   4.559 -2.0925 -1.8006  2.4813
15079TIP3    H266653   1.199   6.457   4.527 -0.4132 -1.2603 -0.7841
15080TIP3   OH266654   2.189   5.417  14.429 -0.0622 -0.1196 -0.2741
15080TIP3    H166655   2.186   5.494  14.372 -3.2460 -1.3092 -1.9730
15080TIP3    H266656   2.228   5.348  14.376 -2.2901 -1.0222 -0.8465
15081TIP3   OH266657   0.675   2.472  12.188  0.3703  0.1983 -0.5796
15081TIP3    H166658   0.683   2.449  12.095 -0.6133  3.3650 -1.5737
15081TIP3    H266659   0.581   2.484  12.201  0.3804 -1.2618  1.1760
15082TIP3   OH266660   5.671   3.113   4.181  0.0519 -1.0132 -0.1114
15082TIP3    H166661   5.731   3.039   4.186 -1.7289 -2.4557  1.1566
15082TIP3    H266662   5.590   3.081   4.220 -1.8863  0.5438 -2.5280
15083TIP3   OH266663   2.590   5.126   0.786 -0.2070 -0.3669 -0.2784
15083TIP3    H166664   2.676   5.161   0.808 -0.0409 -0.2441 -1.0713
15083TIP3    H266665   2.575   5.056   0.849 -0.1704  0.5681  0.7939
15084TIP3   OH266666   1.875   2.448  13.034 -0.3534 -0.4058  0.5854
15084TIP3    H166667   1.853   2.518  13.095  0.5636 -0.0459  0.5179
15084TIP3    H266668   1.792   2.429  12.989 -0.4953  1.0690  0.1653
15085TIP3   OH266669   3.947   1.179  14.460 -0.0714 -0.1849  0.4832
15085TIP3    H166670   3.998   1.236  14.517 -0.0245  0.8554 -0.5525
15085TIP3    H266671   4.008   1.110  14.434  0.3307  0.1393  0.5489
15086TIP3   OH266672   4.088   3.232   3.733 -0.8037  0.2778  0.5021
15086TIP3    H166673   4.128   3.300   3.786 -0.0975  1.9993 -2.0426
15086TIP3    H266674   4.153   3.211   3.666 -3.5424  2.7123 -3.4035
15087TIP3   OH266675   2.403   0.131   4.976 -0.0513 -0.2778 -0.3416
15087TIP3    H166676   2.470   0.200   4.976  0.1452 -0.4557  0.7265
15087TIP3    H266677   2.449   0.054   4.942  0.1752 -0.2987  0.0112
15088TIP3   OH266678   5.770   5.283  11.933  0.0790  0.1520 -0.1733
15088TIP3    H166679   5.691   5.329  11.904 -1.2646 -1.1784  1.1765
15088TIP3    H266680   5.782   5.213  11.869  0.4540  0.6487 -0.6495
15089TIP3   OH266681   3.191   4.662  10.667 -0.4493 -0.3066 -0.0791
15089TIP3    H166682   3.147   4.714  10.734  1.4306  0.4585  0.6365
15089TIP3    H266683   3.186   4.572  10.700 -0.9482 -0.1606  0.2694
15090TIP3   OH266684   2.676   5.142   4.661  0.0762 -0.1317  0.1363
15090TIP3    H166685   2.607   5.122   4.724  0.5085 -1.5506  0.1916
15090TIP3    H266686   2.757   5.117   4.705  0.4858 -0.0047 -0.5312
15091TIP3   OH266687   3.480   4.678   1.833  0.3851 -0.4136 -0.7543
15091TIP3    H166688   3.528   4.627   1.898 -0.4128 -0.3021 -0.0661
15091TIP3    H266689   3.473   4.620   1.757  1.0912 -0.6421 -0.6481
15092TIP3   OH266690   5.117   2.351   2.278  0.0881 -0.0803 -0.2904
15092TIP3    H166691   5.193   2.377   2.329 -0.5832  0.7492  0.3100
15092TIP3    H266692   5.151   2.335   2.190  0.8047  1.1578 -0.2549
15093TIP3   OH266693   4.914   2.860   0.846  0.3898  0.6010 -0.1049
15093TIP3    H166694   4.834   2.824   0.805 -0.4444  0.1697  1.7883
15093TIP3    H266695   4.919   2.950   0.815 -0.0432  0.2114 -1.3575
15094TIP3   OH266696   3.155   1.392   4.061  0.5633 -0.7804 -0.3193
15094TIP3    H166697   3.241   1.419   4.094 -0.2531  1.2837  0.3000
15094TIP3    H266698   3.139   1.308   4.103  2.5945 -1.6072 -1.0810
15095TIP3   OH266699   1.224   3.732   6.134 -0.2114 -0.3930 -1.1596
15095TIP3    H166700   1.274   3.709   6.212 -1.1349 -1.9381 -0.9841
15095TIP3    H266701   1.163   3.799   6.164  0.8354  0.5556 -1.0743
15096TIP3   OH266702   4.568   6.611  11.412  0.2271 -0.1704  0.0412
15096TIP3    H166703   4.601   6.648  11.330 -3.0200  0.6900 -1.0296
15096TIP3    H266704   4.542   6.521  11.390 -0.3570 -0.0476  0.2154
15097TIP3   OH266705   2.298   5.717  13.507 -0.2832 -0.2207 -0.5343
15097TIP3    H166706   2.290   5.705  13.602 -0.8188 -0.6971 -0.6394
15097TIP3    H266707   2.385   5.685  13.487  0.6410  1.7143  0.0811
15098TIP3   OH266708   2.251   4.639  15.394 -0.0784 -0.3824  0.7223
15098TIP3    H166709   2.280   4.566  15.449 -0.5672 -1.4805 -0.4356
15098TIP3    H266710   2.256   4.715  15.451  0.6413 -1.2833  1.9061
15099TIP3   OH266711   3.412   5.044  16.337  0.1854 -0.1858  0.0794
15099TIP3    H166712   3.345   4.998  16.286 -0.5631  2.1732 -1.1860
15099TIP3    H266713   3.420   4.992  16.417 -1.4910 -1.8051 -0.7186
15100TIP3   OH266714   0.770   3.268  13.412 -0.3992  0.2967 -0.2222
15100TIP3    H166715   0.678   3.293  13.400 -0.4286  0.1831 -0.2371
15100TIP3    H266716   0.796   3.231  13.328 -1.2159 -2.4205  0.5997
15101TIP3   OH266717   0.207   1.365   4.963  0.9010  0.5594 -0.7031
15101TIP3    H166718   0.209   1.272   4.982  0.2571  0.3689 -1.5030
15101TIP3    H266719   0.222   1.408   5.047 -0.4586 -0.2477 -0.0123
15102TIP3   OH266720   5.335   3.100   0.832  0.1833 -0.4805  0.6617
15102TIP3    H166721   5.410   3.134   0.785  1.0624  0.2289  2.5009
15102TIP3    H266722   5.314   3.018   0.787  1.5063 -0.2681 -0.4019
15103TIP3   OH266723   5.325   1.041  14.665 -0.0485 -0.0610  0.3961
15103TIP3    H166724   5.383   1.117  14.667  0.7383 -0.6079 -0.7155
15103TIP3    H266725   5.313   1.017  14.757  1.9666 -0.2681  0.6464
15104TIP3   OH266726   4.047   3.586  13.335  0.5220  0.2039 -0.0956
15104TIP3    H166727   3.959   3.623  13.323 -0.4010 -1.6267  0.4456
15104TIP3    H266728   4.105   3.644  13.287 -1.3195  0.1134 -2.6497
15105TIP3   OH266729   2.240   1.068  15.764  0.4240 -0.3070  0.0422
15105TIP3    H166730   2.163   1.081  15.708 -0.8685 -0.5909  1.6646
15105TIP3    H266731   2.217   0.992  15.818  2.0704 -0.7047  0.2420
15106TIP3   OH266732   6.694   4.772   3.034  0.3330  0.0996  0.0723
15106TIP3    H166733   6.701   4.696   2.977 -0.1394 -0.4530  0.7520
15106TIP3    H266734   6.609   4.811   3.013 -0.5208 -0.9571  1.4281
15107TIP3   OH266735   4.181   5.461  13.545  0.1378 -0.0594  0.0805
15107TIP3    H166736   4.265   5.499  13.519 -0.1527  0.1445 -0.5959
15107TIP3    H266737   4.138   5.531  13.594  0.3082 -0.1235  0.3261
15108TIP3   OH266738   0.729   3.202  10.964 -0.6206  0.2873  0.2067
15108TIP3    H166739   0.642   3.163  10.963 -0.5028 -0.1666  2.5652
15108TIP3    H266740   0.786   3.136  10.925 -1.2156  0.3934 -0.8927
15109TIP3   OH266741   6.722   3.346  10.961 -0.0310  0.0464 -0.0488
15109TIP3    H166742   6.655   3.340  10.893  0.4662 -2.6039 -0.4287
15109TIP3    H266743   6.804   3.331  10.914  0.3928 -1.0088  0.9674
15110TIP3   OH266744   0.414   3.149   2.444  0.0902 -0.9888  0.0185
15110TIP3    H166745   0.404   3.241   2.468  2.4208 -1.3615  2.9079
15110TIP3    H266746   0.388   3.146   2.352 -0.4337  2.4572 -0.0883
15111TIP3   OH266747   1.037   6.512  14.142 -0.4512 -0.0793 -0.0225
15111TIP3    H166748   1.123   6.471  14.132 -0.9938 -1.1712 -0.3507
15111TIP3    H266749   1.009   6.531  14.052 -1.6090 -2.0300 -0.1394
15112TIP3   OH266750   2.502   4.391  14.631  0.5507  0.2806  0.2874
15112TIP3    H166751   2.433   4.431  14.684  0.0747 -0.6609  0.4021
15112TIP3    H266752   2.472   4.403  14.540  1.1146  1.4371  0.2444
15113TIP3   OH266753   5.510   4.199  13.456  0.3325  0.2060 -0.4861
15113TIP3    H166754   5.526   4.283  13.412  1.1798  0.7662  0.8116
15113TIP3    H266755   5.461   4.223  13.535  0.2949 -0.5680 -0.2719
15114TIP3   OH266756   6.360   2.307  13.684 -0.4918  0.2508 -0.4793
15114TIP3    H166757   6.282   2.341  13.728 -0.1918  0.9296 -0.4656
15114TIP3    H266758   6.422   2.289  13.755 -0.2695  0.6698 -0.5640
15115TIP3   OH266759   1.364   1.082   1.317  0.1997 -0.9695 -0.7497
15115TIP3    H166760   1.396   1.120   1.235 -0.9436 -0.2815 -0.9031
15115TIP3    H266761   1.423   1.117   1.384  2.8856 -3.6705 -1.4755
15116TIP3   OH266762   6.676   3.132  11.483  0.0598 -0.1439  1.0345
15116TIP3    H166763   6.712   3.175  11.405  1.2917  0.6552  1.9988
15116TIP3    H266764   6.614   3.068  11.449  0.5041  0.2476 -0.5960
15117TIP3   OH266765   1.435   4.197  15.903 -0.6297 -0.3484 -0.2240
15117TIP3    H166766   1.516   4.157  15.872 -0.9251 -0.7210 -0.5194
15117TIP3    H266767   1.442   4.289  15.875 -0.5210 -0.4895 -0.6655
15118TIP3   OH266768   3.118   4.501   1.060  0.1596 -0.1890  0.1333
15118TIP3    H166769   3.128   4.443   1.135  1.9898 -1.1349 -0.7673
15118TIP3    H266770   3.127   4.589   1.095 -0.4247 -0.5438  1.2051
15119TIP3   OH266771   5.287   5.813  16.445  0.0807  0.4524 -0.0739
15119TIP3    H166772   5.277   5.719  16.427  2.4896  0.4680 -2.0711
15119TIP3    H266773   5.331   5.816  16.530 -1.1295 -0.1191  0.6081
15120TIP3   OH266774   4.274   0.727   0.532 -0.2371  0.1715 -0.0260
15120TIP3    H166775   4.343   0.758   0.473  1.3333 -1.2267  0.9665
15120TIP3    H266776   4.306   0.750   0.619 -1.1562 -0.2720  0.4380
15121TIP3   OH266777   3.010   4.967   2.032 -0.4001 -0.2188 -0.8826
15121TIP3    H166778   3.008   5.023   1.954 -0.1097  0.4359 -0.4260
15121TIP3    H266779   3.098   4.978   2.068 -1.5454  2.2698  1.5127
15122TIP3   OH266780   2.274   1.695   1.038  0.1031 -0.2682 -0.5896
15122TIP3    H166781   2.340   1.639   0.997  0.1463  0.9425 -2.2719
15122TIP3    H266782   2.254   1.762   0.972 -1.1634  0.7245  0.7225
15123TIP3   OH266783   6.151   5.184   5.363 -0.1886  0.9453 -0.3780
15123TIP3    H166784   6.209   5.108   5.364 -0.5092  0.7003 -0.1463
15123TIP3    H266785   6.065   5.149   5.386  0.0503  1.7262  1.9401
15124TIP3   OH266786   4.704   5.766   5.245 -0.4508 -0.0056 -0.2227
15124TIP3    H166787   4.609   5.780   5.247 -0.5168 -0.4716  1.7729
15124TIP3    H266788   4.740   5.835   5.301  0.1921 -0.9950  0.6164
15125TIP3   OH266789   2.688   6.391  15.856  0.1957  0.1955  0.4468
15125TIP3    H166790   2.692   6.295  15.863  2.1151 -0.0538 -2.4980
15125TIP3    H266791   2.602   6.409  15.819 -0.4622 -0.2759  1.6704
15126TIP3   OH266792   3.816   5.872   5.848 -0.2477 -0.1729  0.4501
15126TIP3    H166793   3.753   5.929   5.891  0.0001  0.5457 -0.1181
15126TIP3    H266794   3.763   5.822   5.785 -0.1646  1.0368 -0.6378
15127TIP3   OH266795   1.397   4.249  16.752  0.0254 -0.6221  0.2694
15127TIP3    H166796   1.475   4.298  16.778  2.4831 -2.4392 -3.0284
15127TIP3    H266797   1.330   4.316  16.738  2.4291  1.6133 -1.4482
15128TIP3   OH266798   6.220   5.216  13.609  0.3850  0.1144  0.2751
15128TIP3    H166799   6.171   5.170  13.677 -1.2284  0.7123 -0.4279
15128TIP3    H266800   6.267   5.285  13.655 -1.1278  0.8676  0.7790
15129TIP3   OH266801   4.254   2.161   3.020 -0.0954 -0.1528 -0.4258
15129TIP3    H166802   4.256   2.070   2.991 -1.3733  0.0141 -1.1381
15129TIP3    H266803   4.164   2.190   3.002 -0.8215  0.2234  3.0876
15130TIP3   OH266804   0.788   1.982  11.355 -0.6443 -0.8141  0.2049
15130TIP3    H166805   0.853   2.016  11.293 -1.4237  2.3685  0.9953
15130TIP3    H266806   0.704   1.995  11.311 -1.0012 -1.4291  0.6949
15131TIP3   OH266807   1.866   2.732  13.597 -0.0259 -0.8543 -0.1323
15131TIP3    H166808   1.784   2.711  13.553 -0.1132 -0.5988 -0.0982
15131TIP3    H266809   1.846   2.725  13.690  0.2883 -1.8641 -0.1370
15132TIP3   OH266810   1.429   4.601  14.153 -0.1949 -0.1116  0.1497
15132TIP3    H166811   1.511   4.609  14.105  0.9491  0.5926  2.0999
15132TIP3    H266812   1.385   4.685  14.141 -1.4188 -0.9922 -2.1219
15133TIP3   OH266813   4.878   6.482  12.903  0.7726 -0.1503  0.0177
15133TIP3    H166814   4.787   6.476  12.933  0.1378  0.4771 -1.6890
15133TIP3    H266815   4.872   6.490  12.808  2.6945 -1.8177 -0.3163
15134TIP3   OH266816   3.716   0.346  11.132  0.1818  0.7555 -0.1161
15134TIP3    H166817   3.761   0.430  11.130 -0.7308  1.2511 -0.5573
15134TIP3    H266818   3.786   0.281  11.144  0.9332  1.5379 -0.1710
15135TIP3   OH266819   6.719   4.739   5.123 -0.1443  0.4334  0.1614
15135TIP3    H166820   6.766   4.655   5.117  0.1383  0.5446  0.7683
15135TIP3    H266821   6.691   4.756   5.033  1.3220  0.5557 -0.3138
15136TIP3   OH266822   6.361   0.039   2.570 -0.0217 -0.1161  0.1560
15136TIP3    H166823   6.446   0.083   2.574  1.2660 -2.4467 -0.2936
15136TIP3    H266824   6.353  -0.005   2.654 -1.3445  0.9427  0.6329
15137TIP3   OH266825   4.618   3.312   0.853  0.1572  0.3759 -0.7406
15137TIP3    H166826   4.547   3.375   0.865  1.4190  1.7926 -0.4996
15137TIP3    H266827   4.655   3.333   0.768  0.3482 -0.2945 -0.8271
15138TIP3   OH266828   5.145   5.963   0.668 -0.1124 -0.0834  0.1448
15138TIP3    H166829   5.220   6.017   0.690  0.6268 -0.6876 -0.7991
15138TIP3    H266830   5.123   5.988   0.578  0.1371 -1.2059 -0.2455
15139TIP3   OH266831   3.753   1.971  16.147  0.1190 -0.4737  0.0193
15139TIP3    H166832   3.750   1.885  16.190  0.7849 -1.7193 -2.2343
15139TIP3    H266833   3.701   1.960  16.067 -0.5999  1.5572  0.1483
15140TIP3   OH266834   5.817   2.176  14.896 -0.1234  0.5295 -0.4408
15140TIP3    H166835   5.733   2.133  14.881  0.1463  0.1117 -0.8064
15140TIP3    H266836   5.858   2.124  14.965  0.2708  0.0911 -0.9938
15141TIP3   OH266837   1.732   0.684   5.771 -0.3115 -0.0518 -0.0034
15141TIP3    H166838   1.811   0.737   5.761 -0.2173 -0.4269 -1.4974
15141TIP3    H266839   1.662   0.748   5.786  0.0683  0.3799 -0.0447
15142TIP3   OH266840   3.148   1.526   4.701  0.3345  0.0549  0.2191
15142TIP3    H166841   3.207   1.473   4.647  0.7488 -0.4164  1.1220
15142TIP3    H266842   3.192   1.610   4.709  0.1935  0.1813 -0.3102
15143TIP3   OH266843   6.028   4.814  12.971  0.2498 -0.3037  0.1973
15143TIP3    H166844   6.078   4.741  12.933 -1.0930  0.0902 -2.6177
15143TIP3    H266845   6.083   4.891  12.955 -0.1557 -0.1865 -0.6903
15144TIP3   OH266846   3.170   0.396   3.696 -0.1905 -0.4346 -0.0791
15144TIP3    H166847   3.112   0.472   3.707  0.7570  0.5447 -1.5648
15144TIP3    H266848   3.257   0.430   3.716  0.1664 -1.3118 -0.1342
15145TIP3   OH266849   6.724   4.082  16.866 -0.8782  0.2998  0.2724
15145TIP3    H166850   6.793   4.145  16.844  0.2759 -0.8176  0.5536
15145TIP3    H266851   6.664   4.130  16.923 -0.6420  1.4644 -0.4462
15146TIP3   OH266852   4.105   1.761   0.123 -0.0067  0.0385 -0.0580
15146TIP3    H166853   4.156   1.838   0.097  0.7210  0.8787  3.3547
15146TIP3    H266854   4.014   1.784   0.101  0.2646  1.6584  0.3544
15147TIP3   OH266855   5.701   1.180  14.951  0.0593 -0.0158  0.4909
15147TIP3    H166856   5.779   1.201  15.002  0.5245 -1.1237  0.2607
15147TIP3    H266857   5.661   1.265  14.933  0.9888  0.5383  0.9502
15148TIP3   OH266858   6.041   0.344  12.982 -0.0271  0.6065  0.1651
15148TIP3    H166859   6.000   0.287  12.917  0.9881 -1.8051  1.5148
15148TIP3    H266860   5.969   0.369  13.040 -0.6862  1.7042 -1.0552
15149TIP3   OH266861   4.476   5.489  13.552  0.1634  0.0462 -0.7807
15149TIP3    H166862   4.428   5.456  13.628  0.7086 -0.4935 -0.6618
15149TIP3    H266863   4.555   5.529  13.590  0.0950  0.4095 -1.0155
15150TIP3   OH266864   2.432   0.664   5.125 -0.1496 -0.2439 -0.2096
15150TIP3    H166865   2.523   0.674   5.152 -0.2848 -1.1645  0.6575
15150TIP3    H266866   2.381   0.679   5.205 -1.0348  3.6150 -1.3149
15151TIP3   OH266867   6.191   3.873  16.865  0.2558  0.6489  0.6851
15151TIP3    H166868   6.134   3.916  16.928  1.2552  1.8896  0.7659
15151TIP3    H266869   6.177   3.921  16.783 -0.2409 -0.2820  0.1920
15152TIP3   OH266870   1.309   4.790   5.825  0.1481 -0.3088  0.2746
15152TIP3    H166871   1.271   4.714   5.783 -1.6374 -0.0676  1.3272
15152TIP3    H266872   1.242   4.819   5.887  0.5468  2.4189 -0.4482
15153TIP3   OH266873   3.706   1.193   1.654  0.6361 -0.3371 -0.0597
15153TIP3    H166874   3.752   1.110   1.658  1.5350  0.1425 -0.0701
15153TIP3    H266875   3.769   1.257   1.690  0.9326  0.7247 -2.2975
15154TIP3   OH266876   1.421   0.995  13.702  0.1364  0.0023  0.1251
15154TIP3    H166877   1.402   1.087  13.683 -0.5836  0.4804  2.6888
15154TIP3    H266878   1.459   0.961  13.622  0.1932  2.4743 -0.9938
15155TIP3   OH266879   3.163   5.275  16.377  0.1820 -0.4068 -0.4772
15155TIP3    H166880   3.080   5.322  16.390  0.7114  1.0652 -1.9964
15155TIP3    H266881   3.148   5.223  16.297  0.5455 -0.5709 -0.4396
15156TIP3   OH266882   6.000   0.726  14.481  0.3556 -0.0949  0.8211
15156TIP3    H166883   5.977   0.783  14.554 -0.4327 -0.5379  0.9318
15156TIP3    H266884   5.994   0.637  14.516  0.9775 -0.2720  0.4883
15157TIP3   OH266885   6.584   0.757  12.272 -0.0899  0.2729  0.2264
15157TIP3    H166886   6.567   0.815  12.347  0.4345 -0.2657  0.7716
15157TIP3    H266887   6.581   0.815  12.196 -1.0393  0.7679  0.6129
15158TIP3   OH266888   3.133   0.070  13.311 -0.0709  0.0418 -0.2606
15158TIP3    H166889   3.109   0.161  13.329  1.6829  0.4966  0.0333
15158TIP3    H266890   3.188   0.075  13.233  1.7141 -0.4650  0.8997
15159TIP3   OH266891   0.705   0.920   4.233  0.1134  0.3949  0.0716
15159TIP3    H166892   0.740   0.948   4.318  1.4310 -0.0315 -0.3132
15159TIP3    H266893   0.772   0.862   4.197 -0.9089 -0.2768 -0.7990
15160TIP3   OH266894   6.212   6.086  15.453  0.0696  0.2487 -0.0315
15160TIP3    H166895   6.152   6.134  15.395  0.4285 -0.6997 -1.2345
15160TIP3    H266896   6.163   6.007  15.478  0.0862  0.4374  0.6103
15161TIP3   OH266897   5.258   1.542  11.621  0.5477  0.0296  0.1278
15161TIP3    H166898   5.233   1.487  11.547 -3.3858  0.5402  0.8389
15161TIP3    H266899   5.248   1.485  11.697 -1.7927  1.0725  0.7046
15162TIP3   OH266900   4.847   0.944   1.801 -0.0570  0.1891  0.5282
15162TIP3    H166901   4.917   0.880   1.816 -2.4269 -2.1178  2.8574
15162TIP3    H266902   4.807   0.916   1.718 -0.0115 -0.3091  0.6678
15163TIP3   OH266903   0.966   2.111   3.536 -0.2585 -0.0744  0.2902
15163TIP3    H166904   0.880   2.124   3.496 -0.3362 -0.2989  0.3851
15163TIP3    H266905   1.010   2.196   3.527 -0.5804  0.1091  0.4558
15164TIP3   OH266906   6.539   6.157  12.980  0.1587  0.0815 -0.4964
15164TIP3    H166907   6.453   6.144  12.939  0.6070 -1.1160 -1.0955
15164TIP3    H266908   6.573   6.236  12.938 -0.1432 -0.1283 -1.1579
15165TIP3   OH266909   2.231   2.050   0.600 -0.1666 -0.3489  0.3803
15165TIP3    H166910   2.311   1.998   0.596  0.5349  0.7541 -0.2712
15165TIP3    H266911   2.243   2.119   0.536 -1.5330  0.0087  0.4672
15166TIP3   OH266912   6.213   6.237  13.321  0.3084  0.4033  0.0421
15166TIP3    H166913   6.289   6.267  13.372 -0.4851  0.2499  1.3796
15166TIP3    H266914   6.149   6.307  13.330  0.4851  0.8024 -1.5896
15167TIP3   OH266915   0.588   0.498  14.459  0.0287 -0.3382 -0.0435
15167TIP3    H166916   0.620   0.456  14.379  0.0586  0.4802 -0.4715
15167TIP3    H266917   0.642   0.462  14.529 -0.5641 -1.7192 -0.2650
15168TIP3   OH266918   0.468   3.278   5.097 -0.5029  0.1237  0.2976
15168TIP3    H166919   0.433   3.343   5.158 -0.2776 -1.1243  1.8166
15168TIP3    H266920   0.563   3.283   5.108 -0.5219 -1.1714  1.2353
15169TIP3   OH266921   1.597   2.050   1.308 -0.2944  0.3524  0.3493
15169TIP3    H166922   1.579   2.000   1.229  1.2673  2.1127 -1.2290
15169TIP3    H266923   1.687   2.028   1.330 -0.4562  0.4859  1.1714
15170TIP3   OH266924   6.574   5.815  16.650 -0.2048  0.0904 -0.3580
15170TIP3    H166925   6.630   5.737  16.650 -0.6077 -0.2032 -0.3402
15170TIP3    H266926   6.564   5.838  16.558 -1.6418 -1.0249 -0.5171
15171TIP3   OH266927   4.679   6.093   0.050  0.1801 -0.7573 -0.1215
15171TIP3    H166928   4.595   6.134   0.067  0.0681 -1.2085  0.4554
15171TIP3    H266929   4.671   6.057  -0.038 -0.2752 -0.8937 -0.0269
15172TIP3   OH266930   1.268   6.182  13.521  0.3345 -0.4175 -0.5465
15172TIP3    H166931   1.307   6.268  13.539  1.8526 -0.8909 -1.4186
15172TIP3    H266932   1.259   6.142  13.608  0.1066  0.4105 -0.1793
15173TIP3   OH266933   5.391   0.542  14.310 -0.3427 -0.2178  0.3458
15173TIP3    H166934   5.451   0.481  14.268 -0.8091 -1.4570  1.3991
15173TIP3    H266935   5.443   0.583  14.379  0.0320  0.7565 -0.5054
15174TIP3   OH266936   0.870   6.058  13.178 -0.3841  0.2108 -0.0277
15174TIP3    H166937   0.868   6.000  13.254  0.0796 -0.7462 -0.7311
15174TIP3    H266938   0.957   6.047  13.141 -1.2770 -0.9402 -1.8978
15175TIP3   OH266939   1.337   0.542   6.293  0.0927 -0.0629  0.1057
15175TIP3    H166940   1.307   0.608   6.355 -0.1267  0.2714 -0.3467
15175TIP3    H266941   1.364   0.468   6.347  2.1222  1.0802  0.7510
15176TIP3   OH266942   4.731   0.800  12.524  0.0058  0.1885  0.3908
15176TIP3    H166943   4.692   0.772  12.606 -0.8786  1.2840  0.3647
15176TIP3    H266944   4.696   0.888  12.509  0.7861  0.3332 -0.7469
15177TIP3   OH266945   2.678   0.234   4.774  0.0908  0.0097 -0.6753
15177TIP3    H166946   2.668   0.143   4.746 -0.3151 -1.4319  3.5130
15177TIP3    H266947   2.761   0.236   4.821 -0.6716  1.3610  0.6917
15178TIP3   OH266948   2.419   2.517   6.063  0.1322  0.1545 -0.1303
15178TIP3    H166949   2.402   2.425   6.080  0.4338  0.2426  0.6957
15178TIP3    H266950   2.515   2.523   6.059  0.1288  0.5122  0.2885
15179TIP3   OH266951   1.688   2.154  11.489 -0.0087  0.0151  0.3665
15179TIP3    H166952   1.779   2.170  11.465 -0.0296 -2.6495 -2.0247
15179TIP3    H266953   1.693   2.104  11.571  0.3297  3.6683  2.8303
15180TIP3   OH266954   1.279   2.982   5.307  0.1004  0.2148 -0.0421
15180TIP3    H166955   1.191   3.019   5.300  0.7842  1.7855 -0.8972
15180TIP3    H266956   1.312   3.016   5.390  0.5362  1.1079 -0.5737
15181TIP3   OH266957   6.720   2.544  13.763  0.2341 -0.0902  0.1037
15181TIP3    H166958   6.710   2.620  13.705 -1.1598  0.0470  0.4946
15181TIP3    H266959   6.672   2.474  13.718  3.3846 -1.4731 -1.4168
15182TIP3   OH266960   0.985   1.890  12.106  0.0119  0.1793  0.2682
15182TIP3    H166961   1.058   1.942  12.141 -0.6754 -0.0802  2.2439
15182TIP3    H266962   1.022   1.803  12.093 -0.0805 -0.1616  2.0151
15183TIP3   OH266963   3.040   6.335   0.860 -0.1910 -0.5893 -0.4128
15183TIP3    H166964   2.999   6.418   0.839  0.9588  0.2215  0.4465
15183TIP3    H266965   3.048   6.291   0.775 -0.2794  0.4253 -0.9620
15184TIP3   OH266966   5.190   2.001  11.215 -0.0365  0.2410 -0.5158
15184TIP3    H166967   5.146   2.085  11.207  0.7436  0.5155 -2.4816
15184TIP3    H266968   5.279   2.017  11.185 -0.1008 -1.4364 -1.7805
15185TIP3   OH266969   5.469   2.681   0.577  0.3056 -0.1129 -0.3074
15185TIP3    H166970   5.510   2.717   0.656  1.3734 -2.0453  0.0645
15185TIP3    H266971   5.520   2.603   0.556 -0.1808  0.1198 -2.7182
15186TIP3   OH266972   2.886   1.419  13.789  0.2176  0.2948 -0.6864
15186TIP3    H166973   2.795   1.405  13.816  0.6850 -1.8229 -0.0588
15186TIP3    H266974   2.885   1.504  13.745 -2.0143  0.4186 -0.4965
15187TIP3   OH266975   0.967   6.545  12.848 -0.3246 -0.8863 -0.2564
15187TIP3    H166976   0.929   6.582  12.768 -0.0470  0.8872  0.4005
15187TIP3    H266977   0.914   6.467  12.866 -1.5708 -0.2619 -1.1312
15188TIP3   OH266978   2.110   3.578  12.201 -0.2690  0.0551 -0.5106
15188TIP3    H166979   2.035   3.532  12.162 -0.2699  0.6727 -1.2504
15188TIP3    H266980   2.168   3.595  12.127 -0.0850  0.9035 -0.1764
15189TIP3   OH266981   4.195   0.259  15.512  0.0637 -0.1394  0.3245
15189TIP3    H166982   4.122   0.201  15.492  0.8092 -1.9129  2.4306
15189TIP3    H266983   4.155   0.335  15.554 -0.5159 -1.9308  3.2221
15190TIP3   OH266984   2.729   1.614   4.873  0.4770 -0.2820  0.2460
15190TIP3    H166985   2.700   1.643   4.786  1.9650  1.2592  0.2094
15190TIP3    H266986   2.684   1.673   4.934  0.6878 -0.2977  0.4176
15191TIP3   OH266987   1.244   6.509  14.978 -0.3903 -0.4477  0.4529
15191TIP3    H166988   1.229   6.455  15.055  1.0090 -2.8432 -0.8272
15191TIP3    H266989   1.174   6.484  14.917  0.6858 -1.4560 -0.4205
15192TIP3   OH266990   3.679   0.634   1.662 -0.0429 -0.0220 -0.4283
15192TIP3    H166991   3.625   0.559   1.685 -0.4947  0.4771  0.1822
15192TIP3    H266992   3.728   0.655   1.742 -2.2527  2.2538  0.4608
15193TIP3   OH266993   4.081   6.123   3.855  0.0296  0.1351 -0.1436
15193TIP3    H166994   3.987   6.141   3.863 -0.1640 -0.6695 -0.4756
15193TIP3    H266995   4.089   6.030   3.876  0.5180 -0.2116 -1.7437
15194TIP3   OH266996   2.704   6.051   2.557  0.0520 -0.0722 -0.5698
15194TIP3    H166997   2.727   6.142   2.577 -0.3650 -0.1157  0.1356
15194TIP3    H266998   2.735   6.001   2.632  2.7475 -0.9338 -2.1213
15195TIP3   OH266999   0.521   1.569   5.547 -0.2504  0.1519  0.5147
15195TIP3    H167000   0.606   1.535   5.576 -0.1906  0.3515  0.5766
15195TIP3    H267001   0.499   1.637   5.611  0.1212  0.9469 -0.1810
15196TIP3   OH267002   0.546   1.358  13.305 -0.6935 -0.2467  0.5478
15196TIP3    H167003   0.551   1.411  13.385 -1.1934 -0.3665  0.6599
15196TIP3    H267004   0.500   1.278  13.332 -0.4594 -0.4865  0.2433
15197TIP3   OH267005   1.681   5.648  13.825  0.2112 -0.0447 -0.2939
15197TIP3    H167006   1.643   5.718  13.771 -0.5856 -0.4161 -0.2207
15197TIP3    H267007   1.686   5.686  13.913 -1.8550 -0.6506  0.1206
15198TIP3   OH267008   0.783   3.554   5.092 -0.2500  0.0164  0.1914
15198TIP3    H167009   0.803   3.461   5.106 -2.7193 -0.3850  1.6987
15198TIP3    H267010   0.777   3.562   4.996 -1.7159 -1.8537  0.0558
15199TIP3   OH267011   4.020   1.709  11.733 -0.2370 -0.0471  0.2204
15199TIP3    H167012   3.951   1.756  11.687 -0.6048 -1.0377 -0.2660
15199TIP3    H267013   4.000   1.722  11.826  0.3531  1.7304  0.1464
15200TIP3   OH267014   0.719   4.046  14.594 -0.2583  0.2723 -0.6526
15200TIP3    H167015   0.710   4.095  14.676 -2.4049  2.0269 -1.8477
15200TIP3    H267016   0.708   4.112  14.525 -0.3736 -1.4476 -2.3563
15201TIP3   OH267017   1.414   6.743   3.716  0.3667 -0.7119  0.6809
15201TIP3    H167018   1.469   6.669   3.689 -1.0679 -1.6965  0.3798
15201TIP3    H267019   1.359   6.707   3.786 -1.4298 -0.4131 -0.5104
15202TIP3   OH267020   0.861   3.451  12.477  0.0123  0.4663  0.5867
15202TIP3    H167021   0.948   3.464  12.514  0.4226  0.7367 -0.4586
15202TIP3    H267022   0.809   3.525  12.511  0.6037  1.1815 -0.0306
15203TIP3   OH267023   4.335   2.961   3.303 -0.1114 -0.1853  0.3001
15203TIP3    H167024   4.419   2.970   3.348  0.9396  0.0986 -1.6035
15203TIP3    H267025   4.317   3.049   3.268 -0.3043 -0.6377 -0.7840
15204TIP3   OH267026   1.226   3.769   5.734  0.2074  0.5739 -0.0349
15204TIP3    H167027   1.248   3.730   5.649 -0.0556  0.9079 -0.2602
15204TIP3    H267028   1.252   3.860   5.726  2.2020  0.1539  1.0149
15205TIP3   OH267029   5.774   5.468   3.212 -0.3684  0.2030  0.0448
15205TIP3    H167030   5.744   5.415   3.138 -1.1464 -0.9088  1.1433
15205TIP3    H267031   5.754   5.417   3.289 -0.1094  1.6112  1.0886
15206TIP3   OH267032   0.368   5.005  16.584  0.2759  0.0240  0.0030
15206TIP3    H167033   0.410   5.008  16.498  0.4806 -0.0111  0.1001
15206TIP3    H267034   0.388   5.089  16.624 -0.0118  0.1297 -0.0723
15207TIP3   OH267035   6.094   3.263  12.547 -0.1353  0.0819 -0.8244
15207TIP3    H167036   6.017   3.235  12.596  0.9944  0.2066  1.1413
15207TIP3    H267037   6.065   3.269  12.456 -2.4712  0.3093 -0.1108
15208TIP3   OH267038   0.624   5.584   5.288  0.8787  0.0238  0.1898
15208TIP3    H167039   0.563   5.648   5.326 -0.0589 -0.2466 -0.7968
15208TIP3    H267040   0.688   5.637   5.241 -0.1007  0.2829 -0.9311
15209TIP3   OH267041   4.816   1.932   1.672  0.1896 -0.0737  0.1581
15209TIP3    H167042   4.772   2.015   1.652 -0.3318  0.2222  2.2714
15209TIP3    H267043   4.893   1.958   1.724  3.1462 -0.5470 -3.5403
15210TIP3   OH267044   4.463   2.208  14.051  0.1426  0.5065 -0.0819
15210TIP3    H167045   4.537   2.253  14.093  0.8582  0.9049 -1.6678
15210TIP3    H267046   4.463   2.121  14.089  2.2903  0.0661 -0.9490
15211TIP3   OH267047   6.290   6.724  15.633  0.4560  0.3325  0.0774
15211TIP3    H167048   6.275   6.643  15.583  0.5048  0.1504  0.3557
15211TIP3    H267049   6.279   6.794  15.569 -1.8099  0.2331  0.2538
15212TIP3   OH267050   6.178   4.446  14.298  0.3487  0.4306  0.4673
15212TIP3    H167051   6.140   4.478  14.217  1.5390  1.3220  0.2248
15212TIP3    H267052   6.110   4.392  14.338 -0.2451 -0.0513 -1.1329
15213TIP3   OH267053   5.702   1.917   3.695 -0.0447  0.1517 -0.1791
15213TIP3    H167054   5.674   1.862   3.620  0.2870  0.7501 -0.7484
15213TIP3    H267055   5.781   1.960   3.664 -1.1142  2.1370 -0.3194
15214TIP3   OH267056   4.754   3.091  13.903  0.4344  0.2930  0.2413
15214TIP3    H167057   4.772   3.019  13.843  0.6804 -1.1654  1.9868
15214TIP3    H267058   4.675   3.064  13.949  0.2726  1.3622  0.6054
15215TIP3   OH267059   4.545   6.463  12.649 -0.0782  0.0530 -0.5822
15215TIP3    H167060   4.468   6.503  12.609  0.3366  0.4782 -0.9621
15215TIP3    H267061   4.572   6.395  12.587  1.2008  1.4170 -1.5912
15216TIP3   OH267062   3.814   1.549   4.859  0.1933 -0.0350 -0.5168
15216TIP3    H167063   3.725   1.528   4.833 -0.0906 -0.2965  0.6046
15216TIP3    H267064   3.857   1.464   4.873  0.4481  0.0893 -0.5245
15217TIP3   OH267065   5.119   4.993   4.817 -1.1258  0.0571 -0.1896
15217TIP3    H167066   5.086   5.059   4.878 -0.9085  0.7047 -0.7445
15217TIP3    H267067   5.182   5.041   4.762  0.5755 -1.0825  0.6800
15218TIP3   OH267068   1.865   5.807   3.020  0.5747  0.1603 -0.3464
15218TIP3    H167069   1.820   5.851   3.093 -1.2596 -0.6791 -0.8930
15218TIP3    H267070   1.906   5.877   2.971 -0.1010  0.9831  0.2301
15219TIP3   OH267071   3.448   6.230  13.432 -0.0952  0.4525  0.4946
15219TIP3    H167072   3.359   6.200  13.413 -0.5993  1.7015  0.7809
15219TIP3    H267073   3.504   6.168  13.386 -1.1529  0.6311 -1.1243
15220TIP3   OH267074   1.123   5.795  17.321  0.0691  0.1841 -0.7079
15220TIP3    H167075   1.084   5.764  17.403 -0.4796  0.3938 -0.8846
15220TIP3    H267076   1.198   5.738  17.308 -0.7147 -0.8594 -0.8365
15221TIP3   OH267077   2.332   3.826   1.371  0.2011 -0.0355  0.4650
15221TIP3    H167078   2.356   3.870   1.290  0.9573 -2.4960 -0.7379
15221TIP3    H267079   2.295   3.895   1.426 -1.7456  1.4610 -2.4976
15222TIP3   OH267080   5.296   4.716  12.964 -0.4600  0.4660  0.1729
15222TIP3    H167081   5.292   4.802  13.006 -3.0694  0.5051 -0.0071
15222TIP3    H267082   5.209   4.679  12.975  0.1430 -1.5220 -1.1204
15223TIP3   OH267083   0.304   1.261   0.079 -0.4572  0.1378  0.0885
15223TIP3    H167084   0.305   1.317   0.002 -0.5464  2.3434  1.5833
15223TIP3    H267085   0.397   1.249   0.100 -0.4377 -0.2295 -0.2151
15224TIP3   OH267086   0.029   0.961   1.942 -0.0182 -0.5490  0.3468
15224TIP3    H167087   0.048   0.867   1.935  2.1695 -0.0764 -1.4389
15224TIP3    H267088   0.101   1.003   1.894 -0.7074  2.0748  1.4463
15225TIP3   OH267089   6.095   3.743  15.425 -0.2588  0.2240  0.3018
15225TIP3    H167090   6.127   3.653  15.431  0.7808  0.5365 -0.1612
15225TIP3    H267091   6.005   3.739  15.458 -0.2359 -0.9778  0.2844
15226TIP3   OH267092   3.588   4.457  14.955 -0.2738  0.2861 -0.4068
15226TIP3    H167093   3.643   4.388  14.918 -1.1549  0.0456 -1.2911
15226TIP3    H267094   3.499   4.434  14.930 -0.9112  0.2491  1.6764
15227TIP3   OH267095   6.623   0.953  14.848  0.3708  0.2608 -0.2107
15227TIP3    H167096   6.705   0.910  14.823  0.7971  2.8227 -4.0534
15227TIP3    H267097   6.557   0.908  14.795 -0.4622 -0.5217  1.4377
15228TIP3   OH267098   2.720   3.060  15.285  0.5552  0.0144 -0.0509
15228TIP3    H167099   2.630   3.072  15.313  0.7583 -0.4203  0.8194
15228TIP3    H267100   2.759   3.147  15.290 -0.1744  0.4833 -1.8032
15229TIP3   OH267101   2.328   5.341  11.722  0.4537 -0.1309 -0.0228
15229TIP3    H167102   2.303   5.314  11.810  0.3964 -0.1942 -0.0582
15229TIP3    H267103   2.296   5.272  11.665 -0.5774  0.4828 -0.2189
15230TIP3   OH267104   3.465   2.685   2.088 -0.1970 -0.7655  0.1939
15230TIP3    H167105   3.541   2.625   2.085  0.3106 -0.1054 -0.5142
15230TIP3    H267106   3.434   2.688   1.997  1.2698  1.8817 -0.3100
15231TIP3   OH267107   4.638   3.166  11.437 -0.2692  0.1709  0.3021
15231TIP3    H167108   4.696   3.195  11.507 -1.9843  0.2870  1.7117
15231TIP3    H267109   4.582   3.241  11.419 -0.3622 -0.1152 -0.6710
15232TIP3   OH267110   6.373   1.404   1.386  0.1613 -0.1840  0.0197
15232TIP3    H167111   6.434   1.433   1.318  2.0230  0.6753  1.9129
15232TIP3    H267112   6.311   1.347   1.341  0.9413  0.7974 -2.4684
15233TIP3   OH267113   0.277   6.462   3.634  0.0204  0.3659  0.7653
15233TIP3    H167114   0.274   6.398   3.705  1.5860 -0.7728 -0.1163
15233TIP3    H267115   0.205   6.437   3.576  0.5189 -0.5360  0.5122
15234TIP3   OH267116   4.520   4.880  12.714 -0.5654  0.1112 -0.0248
15234TIP3    H167117   4.450   4.817  12.731 -0.5199 -0.2169 -1.0069
15234TIP3    H267118   4.555   4.900  12.801 -1.3420 -0.3305  0.4042
15235TIP3   OH267119   2.129   6.627  17.290 -0.3113 -0.6777  0.2313
15235TIP3    H167120   2.174   6.599  17.370  0.7682  0.3333 -0.0044
15235TIP3    H267121   2.179   6.587  17.219  0.2077  0.4089 -0.0328
15236TIP3   OH267122   4.293   6.107   6.409  0.7510  0.6682  0.4163
15236TIP3    H167123   4.268   6.194   6.439 -0.9443 -0.4887  2.6447
15236TIP3    H267124   4.385   6.099   6.435  0.3200  1.0338  2.2232
15237TIP3   OH267125   3.790   0.012   2.649  0.0129  0.3972 -0.2345
15237TIP3    H167126   3.758   0.040   2.563 -0.1549 -0.9026 -0.6262
15237TIP3    H267127   3.755   0.076   2.710 -0.9231  0.6324 -0.9980
15238TIP3   OH267128   0.459   6.292  15.791 -0.1027 -0.3275 -0.1573
15238TIP3    H167129   0.394   6.275  15.859  0.7715 -0.9235  0.5469
15238TIP3    H267130   0.542   6.294  15.838  0.2850  1.8880 -0.8002
15239TIP3   OH267131   2.091   5.197  14.104  0.1014 -0.1522 -0.3278
15239TIP3    H167132   2.164   5.258  14.113  0.1962 -0.4338  0.9185
15239TIP3    H267133   2.037   5.212  14.181  0.4089 -1.9859  0.2995
15240TIP3   OH267134   1.838   1.471   5.401 -0.6885 -0.1268 -0.0142
15240TIP3    H167135   1.818   1.564   5.398 -0.6789 -0.1447 -0.9155
15240TIP3    H267136   1.881   1.453   5.318 -2.4458 -1.3292 -0.7247
15241TIP3   OH267137   3.286   4.108  16.017 -0.1746 -0.2460 -0.0874
15241TIP3    H167138   3.314   4.028  16.062 -0.2543  1.1790  2.6907
15241TIP3    H267139   3.367   4.156  16.002 -0.1451 -0.7229 -1.6268
15242TIP3   OH267140   3.245   2.125   5.704 -0.1785 -0.1504 -0.4527
15242TIP3    H167141   3.301   2.175   5.764 -0.4272  0.9194 -1.0731
15242TIP3    H267142   3.157   2.133   5.741 -0.3981  0.8629 -1.1543
15243TIP3   OH267143   3.786   0.024   5.516 -0.0741  0.0703  0.1527
15243TIP3    H167144   3.763   0.068   5.434  1.5389  0.9323  0.1158
15243TIP3    H267145   3.706   0.028   5.568 -0.5034  1.4913 -0.5502
15244TIP3   OH267146   1.023   4.563  15.655 -0.2579  0.3234  0.3848
15244TIP3    H167147   1.115   4.591  15.650  0.1538 -0.4077  2.7106
15244TIP3    H267148   0.988   4.582  15.568  2.2817 -0.0776 -0.8293
15245TIP3   OH267149   4.143   3.880  16.318  0.3068 -0.4289  0.2813
15245TIP3    H167150   4.182   3.875  16.231 -1.3807 -0.9735 -0.4760
15245TIP3    H267151   4.152   3.792  16.354 -3.5138 -1.7429 -1.4622
15246TIP3   OH267152   5.492   5.470  12.415 -0.0613  0.1228  0.6629
15246TIP3    H167153   5.480   5.553  12.461 -1.9328  1.2220 -1.5621
15246TIP3    H267154   5.407   5.427  12.422  0.0106 -0.2594 -0.6193
15247TIP3   OH267155   5.005   4.895   3.919  0.2494  0.2309 -0.0402
15247TIP3    H167156   4.930   4.934   3.875  1.6212  2.1159 -0.8150
15247TIP3    H267157   5.080   4.916   3.863  1.2830 -2.3887  0.2270
15248TIP3   OH267158   1.566   2.120  11.849 -0.2634 -0.0121  0.7167
15248TIP3    H167159   1.633   2.053  11.858 -0.6370 -0.7641 -1.4806
15248TIP3    H267160   1.518   2.096  11.770 -2.8217  0.7915  1.9163
15249TIP3   OH267161   1.785   0.436  16.870  0.2081 -0.3945 -0.3090
15249TIP3    H167162   1.862   0.394  16.909  0.3926  0.7112  0.5592
15249TIP3    H267163   1.818   0.475  16.789  0.4354 -0.4200 -0.2307
15250TIP3   OH267164   5.224   1.286  11.459  0.0414 -0.0876 -0.1671
15250TIP3    H167165   5.270   1.271  11.541  2.1521  0.9732 -1.0772
15250TIP3    H267166   5.257   1.218  11.400 -0.1150  0.2291 -0.6282
15251TIP3   OH267167   1.552   5.380  11.141  0.6575  0.0274 -0.3031
15251TIP3    H167168   1.542   5.291  11.108 -2.1449 -0.6254  1.9036
15251TIP3    H267169   1.587   5.369  11.229  0.1376  1.0627  0.0503
15252TIP3   OH267170   4.870   2.362  15.921 -0.0616 -0.4265  0.0494
15252TIP3    H167171   4.836   2.450  15.902  2.2297  0.2701 -1.1417
15252TIP3    H267172   4.924   2.374  15.999 -1.0268 -1.1450  0.8493
15253TIP3   OH267173   2.535   3.155  17.332  0.0242 -0.0430  0.4250
15253TIP3    H167174   2.536   3.250  17.339  1.7886  0.1377 -1.3567
15253TIP3    H267175   2.442   3.132  17.327 -0.4887  2.0260 -3.1987
15254TIP3   OH267176   6.657   1.845  12.079 -0.3618  0.4291  0.1190
15254TIP3    H167177   6.636   1.771  12.022 -1.2890  0.0812  0.8913
15254TIP3    H267178   6.753   1.847  12.082 -0.2963  0.4046 -1.3653
15255TIP3   OH267179   5.559   4.067   2.887 -0.3147  0.0101 -0.3992
15255TIP3    H167180   5.503   4.143   2.868  0.8319  0.7886 -0.8465
15255TIP3    H267181   5.519   4.025   2.963 -1.1843  0.8546 -0.3706
15256TIP3   OH267182   3.875   3.883   5.275 -0.8233  0.4270 -0.5638
15256TIP3    H167183   3.925   3.819   5.326 -0.3087  0.3510 -1.1610
15256TIP3    H267184   3.898   3.968   5.315 -0.0922  0.4079 -0.9348
15257TIP3   OH267185   6.529   2.227   4.119 -0.9466  0.1248 -0.5482
15257TIP3    H167186   6.558   2.301   4.171 -0.3958 -1.1273  1.0172
15257TIP3    H267187   6.436   2.245   4.101 -0.7837  1.2390 -0.3256
15258TIP3   OH267188   4.522   3.424  11.490  0.2432 -0.8592 -0.6052
15258TIP3    H167189   4.593   3.460  11.543  0.5359 -2.8118  0.4230
15258TIP3    H267190   4.539   3.455  11.401  0.9969  0.6651  0.0492
15259TIP3   OH267191   6.343   4.810   4.174  0.4462 -0.2695  0.2627
15259TIP3    H167192   6.276   4.743   4.161  1.5229 -1.6235  1.4154
15259TIP3    H267193   6.426   4.763   4.164  1.2429  1.1701 -0.1883
15260TIP3   OH267194   3.203   4.486  13.277 -0.5949 -0.6265 -0.7188
15260TIP3    H167195   3.123   4.537  13.287  0.9527  1.9821 -0.4185
15260TIP3    H267196   3.236   4.475  13.367  0.7606  0.9125 -0.9587
15261TIP3   OH267197   0.550   6.470  14.567  0.5534  0.5457 -0.3427
15261TIP3    H167198   0.607   6.547  14.565 -2.5424  3.0177 -2.4628
15261TIP3    H267199   0.462   6.505  14.572 -1.0230 -3.0500  3.5861
15262TIP3   OH267200   1.224   4.081  12.915  0.4629  0.2578 -0.4833
15262TIP3    H167201   1.223   4.177  12.915 -1.3597  0.2895 -1.8650
15262TIP3    H267202   1.252   4.057  13.003  1.9914  2.0224 -0.4184
15263TIP3   OH267203   4.456   1.867   1.751 -0.0914 -0.2098  0.3697
15263TIP3    H167204   4.383   1.905   1.703  1.2213  0.5092 -1.1564
15263TIP3    H267205   4.528   1.928   1.738  0.8045 -0.8891  1.8415
15264TIP3   OH267206   5.206   3.798  12.816  0.2556 -0.3673 -0.0209
15264TIP3    H167207   5.138   3.791  12.748 -0.5244 -1.3834  0.8290
15264TIP3    H267208   5.180   3.875  12.868  0.5294  0.0614 -0.5081
15265TIP3   OH267209   6.211   5.789  17.315 -1.0993 -0.3927  0.1824
15265TIP3    H167210   6.221   5.712  17.370 -1.5510  0.9411  2.2611
15265TIP3    H267211   6.151   5.846  17.364 -1.1098  1.1135 -1.4570
15266TIP3   OH267212   1.901   5.020  11.751 -0.2744 -0.6232 -0.5838
15266TIP3    H167213   1.844   5.074  11.698  2.0623  1.9631 -0.7130
15266TIP3    H267214   1.952   4.970  11.688 -1.0299 -1.4745 -0.5367
15267TIP3   OH267215   2.196   0.505  15.250 -0.1397 -0.1175  0.1305
15267TIP3    H167216   2.168   0.597  15.250  1.3217  0.3633  0.1930
15267TIP3    H267217   2.188   0.477  15.159 -2.3375 -0.5302  0.4047
15268TIP3   OH267218   4.597   3.493  11.223 -0.2594  0.1315 -0.2486
15268TIP3    H167219   4.515   3.467  11.181 -1.0496  2.5993 -0.3926
15268TIP3    H267220   4.665   3.448  11.173 -1.4838 -2.6039  0.3565
15269TIP3   OH267221   1.730   4.311  14.641  0.2261 -0.6154 -0.3579
15269TIP3    H167222   1.700   4.221  14.625  1.9239 -1.1353 -0.8115
15269TIP3    H267223   1.672   4.343  14.710 -0.7078 -1.8878 -0.5009
15270TIP3   OH267224   4.275   5.568  15.216  0.2088 -0.2197  0.4126
15270TIP3    H167225   4.280   5.504  15.287  0.0911 -1.1758 -0.4247
15270TIP3    H267226   4.262   5.516  15.137 -2.5229  0.9204 -0.0053
15271TIP3   OH267227   5.828   0.596  15.516 -0.4557  0.3285  0.5038
15271TIP3    H167228   5.880   0.656  15.462 -0.8334 -0.8241 -1.2258
15271TIP3    H267229   5.877   0.513  15.513 -2.4274 -0.8912 -1.4323
15272TIP3   OH267230   5.022   1.614   0.968 -0.4266  0.3714  0.0123
15272TIP3    H167231   4.952   1.662   1.012 -1.3153  1.0264 -1.9528
15272TIP3    H267232   4.993   1.609   0.877  1.6919 -0.1099 -0.6995
15273TIP3   OH267233   3.524   3.566   1.221 -0.7675 -0.8007  0.2307
15273TIP3    H167234   3.483   3.515   1.290 -2.8225 -0.6699 -0.8087
15273TIP3    H267235   3.605   3.600   1.260 -2.0325 -0.4090  2.6523
15274TIP3   OH267236   6.171   2.405  13.854 -0.8744  0.2968  0.4312
15274TIP3    H167237   6.117   2.485  13.853 -2.8122 -0.9487 -1.3369
15274TIP3    H267238   6.122   2.345  13.910 -0.8146 -0.5138 -0.3774
15275TIP3   OH267239   2.994   4.185  14.679  0.1824  0.2839 -0.1137
15275TIP3    H167240   2.952   4.102  14.702 -1.3414  0.8312 -0.7905
15275TIP3    H267241   3.038   4.168  14.596  1.4029 -0.3027  0.6172
15276TIP3   OH267242   2.639   2.202  14.073 -0.0337  0.2624 -0.2392
15276TIP3    H167243   2.550   2.232  14.059 -0.7365 -1.3603  0.4667
15276TIP3    H267244   2.671   2.257  14.145 -0.8069  0.2286  0.1441
15277TIP3   OH267245   0.358   4.474  14.443  0.1233  0.0101  0.2764
15277TIP3    H167246   0.427   4.449  14.504  0.7931  1.2746  0.0699
15277TIP3    H267247   0.279   4.478  14.496  0.6079  0.6316  0.9652
15278TIP3   OH267248   5.523   0.420   0.550 -0.2687  0.5596 -0.3361
15278TIP3    H167249   5.546   0.498   0.601  0.9531 -0.0176  0.0360
15278TIP3    H267250   5.470   0.453   0.478  1.0460  1.8851 -0.7581
15279TIP3   OH267251   1.934   3.413   2.258  0.4183 -0.0294 -0.6006
15279TIP3    H167252   2.008   3.385   2.311 -0.5719 -1.2463  0.2058
15279TIP3    H267253   1.871   3.341   2.265 -2.4638  2.4435  1.8638
15280TIP3   OH267254   5.608   1.056   1.058  0.5276  0.1753 -0.0855
15280TIP3    H167255   5.647   1.090   1.139  0.5302 -0.9747  0.4312
15280TIP3    H267256   5.676   0.999   1.022 -0.9369 -2.7620  1.4180
15281TIP3   OH267257   0.916   0.461   2.778 -0.2627 -0.6480  0.0105
15281TIP3    H167258   0.886   0.431   2.692  0.6709 -1.6273  0.0037
15281TIP3    H267259   0.913   0.383   2.833  0.4804 -0.3402  0.4982
15282TIP3   OH267260   4.971   0.164   4.876 -0.7115 -0.2794  0.1065
15282TIP3    H167261   4.958   0.084   4.927 -0.7953 -0.4489 -0.1783
15282TIP3    H267262   4.924   0.232   4.924  0.9171  0.0127  1.3875
15283TIP3   OH267263   3.178   3.313   0.484 -0.0083 -0.5402 -0.2758
15283TIP3    H167264   3.271   3.293   0.495 -0.2028 -1.9867 -0.9795
15283TIP3    H267265   3.174   3.364   0.403  0.1860 -0.3390 -0.1598
15284TIP3   OH267266   5.993   4.681  11.741 -0.0328  0.0573  0.4533
15284TIP3    H167267   6.081   4.654  11.715 -0.2431 -0.9024  0.7321
15284TIP3    H267268   5.951   4.707  11.659 -0.0058 -0.9675  0.1113
15285TIP3   OH267269   5.581   4.855  11.607  0.1453 -0.3802  0.4041
15285TIP3    H167270   5.494   4.895  11.608  0.6409  0.7139  0.9018
15285TIP3    H267271   5.580   4.799  11.529 -0.8774 -0.1192  0.2047
15286TIP3   OH267272   4.756   4.256  15.831 -0.0585  0.1826 -0.2282
15286TIP3    H167273   4.839   4.220  15.863  1.1619  1.0462 -2.2483
15286TIP3    H267274   4.770   4.351  15.827 -1.2456  0.3733 -0.3306
15287TIP3   OH267275   0.287   5.140  12.702  0.6480 -0.1018  0.3315
15287TIP3    H167276   0.229   5.071  12.670  0.3013  0.3526 -0.0384
15287TIP3    H267277   0.228   5.203  12.743  0.8489  0.5130 -0.3146
15288TIP3   OH267278   5.946   6.278   4.427  0.1991 -0.6867 -0.2040
15288TIP3    H167279   5.999   6.357   4.439  1.2518 -1.1270 -1.6782
15288TIP3    H267280   5.977   6.241   4.345 -2.1898 -1.1804 -0.9463
15289TIP3   OH267281   4.453   0.625   0.126  0.1685 -0.4471  0.2386
15289TIP3    H167282   4.372   0.598   0.084  0.5522 -0.8965 -0.2272
15289TIP3    H267283   4.457   0.574   0.206 -1.3688  1.5714  1.7044
15290TIP3   OH267284   6.450   2.722   1.680  0.5608 -0.5251  0.4291
15290TIP3    H167285   6.534   2.732   1.726  1.6504  1.6602 -1.8084
15290TIP3    H267286   6.454   2.634   1.644  1.3394 -0.8982  1.3631
15291TIP3   OH267287   1.662   6.063   0.543  0.0632 -0.3860 -0.2494
15291TIP3    H167288   1.735   6.004   0.560 -0.0882 -0.4029  0.3479
15291TIP3    H267289   1.621   6.077   0.628 -1.0361 -0.9043 -0.6665
15292TIP3   OH267290   4.100   5.423  12.847 -0.0033 -0.1452 -0.2866
15292TIP3    H167291   4.146   5.455  12.769 -0.2785 -0.2297 -0.4867
15292TIP3    H267292   4.058   5.501  12.884 -0.8146 -0.2889 -0.8712
15293TIP3   OH267293   4.315   6.751   5.433  0.1884  0.1888  0.3151
15293TIP3    H167294   4.383   6.689   5.460 -0.2214  0.4267  2.0111
15293TIP3    H267295   4.356   6.837   5.445  0.3822  0.2958 -0.9776
15294TIP3   OH267296   4.891   4.341  13.383  0.0744 -0.0197 -0.3199
15294TIP3    H167297   4.960   4.281  13.411 -0.2434 -0.7451 -1.0372
15294TIP3    H267298   4.854   4.375  13.465 -0.2249 -1.3765  0.1435
15295TIP3   OH267299   0.531   5.036  13.896 -0.5474  0.1199 -0.2713
15295TIP3    H167300   0.478   5.025  13.818  0.5371  2.6952 -1.5016
15295TIP3    H267301   0.621   5.026  13.866 -0.1741 -0.9756  1.1118
15296TIP3   OH267302   1.476   5.561  12.791 -0.4529  0.0990  0.1915
15296TIP3    H167303   1.507   5.473  12.812  1.7086  1.1013  1.4995
15296TIP3    H267304   1.554   5.615  12.793 -1.6891  2.0399 -0.8575
15297TIP3   OH267305   4.671   4.266  13.248 -0.0951  0.3876 -0.3241
15297TIP3    H167306   4.753   4.287  13.293  0.9997 -0.9254 -1.6269
15297TIP3    H267307   4.607   4.326  13.287  1.3801  1.1947  0.9892
15298TIP3   OH267308   0.403   6.637   4.078 -0.4210  0.1530 -0.4784
15298TIP3    H167309   0.385   6.573   4.146 -1.6655 -0.8982 -1.7329
15298TIP3    H267310   0.476   6.688   4.112 -0.4239 -0.9022  1.2388
15299TIP3   OH267311   0.232   5.353  15.127  0.3391 -0.4135 -0.1741
15299TIP3    H167312   0.215   5.290  15.057 -0.9698 -0.1395 -0.1123
15299TIP3    H267313   0.256   5.299  15.202  0.8384 -0.7450 -0.5603
15300TIP3   OH267314   2.869   2.021  14.720  0.4995 -0.2345 -0.8201
15300TIP3    H167315   2.928   2.022  14.795 -0.3053 -0.4144 -0.1723
15300TIP3    H267316   2.880   2.107  14.680  0.3032  0.1881  0.0085
15301TIP3   OH267317   4.974   3.328  15.512  0.4459 -0.1981  0.1870
15301TIP3    H167318   4.899   3.360  15.461  0.4760  0.0367  0.2862
15301TIP3    H267319   4.935   3.287  15.589  0.4192  3.0763  2.1407
15302TIP3   OH267320   2.256   3.612  14.782  0.1413  0.7151  0.0617
15302TIP3    H167321   2.320   3.662  14.732 -0.1522  0.6690 -0.3661
15302TIP3    H267322   2.176   3.616  14.730  0.1070 -0.1797  0.0157
15303TIP3   OH267323   4.291   4.519  11.113  0.7199  0.0452 -0.3050
15303TIP3    H167324   4.336   4.476  11.041  0.5930  0.9474 -0.9310
15303TIP3    H267325   4.234   4.583  11.072  0.8429  0.7696  0.6104
15304TIP3   OH267326   3.278   5.368   0.824 -0.0750  0.1595  0.1176
15304TIP3    H167327   3.316   5.289   0.862 -1.5674  0.7620  3.1969
15304TIP3    H267328   3.184   5.350   0.821 -0.1440  0.6216 -2.3568
15305TIP3   OH267329   5.362   4.738   0.854 -0.4531 -0.4097 -0.0464
15305TIP3    H167330   5.288   4.798   0.845  0.6601  1.2353  1.1031
15305TIP3    H267331   5.438   4.796   0.858  0.7100 -1.9506  0.8083
15306TIP3   OH267332   0.588   4.464  11.164 -0.1922 -0.7123 -0.3412
15306TIP3    H167333   0.510   4.494  11.117 -1.2480 -1.9324  0.5705
15306TIP3    H267334   0.610   4.380  11.123  2.6485  0.9987 -2.7737
15307TIP3   OH267335   3.783   1.716   1.396 -0.5878 -0.0075  0.2415
15307TIP3    H167336   3.765   1.761   1.479 -0.0289 -0.0186  0.3759
15307TIP3    H267337   3.788   1.623   1.420  0.3347  0.0537  0.3452
15308TIP3   OH267338   4.157   5.132   0.143 -0.1090 -0.3747 -0.1977
15308TIP3    H167339   4.139   5.094   0.057  0.5925  1.5939 -1.2652
15308TIP3    H267340   4.233   5.188   0.129 -0.4384  0.5651  1.5512
15309TIP3   OH267341   4.353   2.006   6.578  0.4609 -0.0854 -0.0328
15309TIP3    H167342   4.258   2.003   6.564  0.2306  1.5627  0.8902
15309TIP3    H267343   4.365   1.976   6.668  1.0722 -2.3182 -0.7918
15310TIP3   OH267344   1.365   5.508  10.986 -0.1231  0.1092 -0.3951
15310TIP3    H167345   1.306   5.434  10.970 -0.2547 -0.4528  2.1672
15310TIP3    H267346   1.439   5.469  11.034  0.5598  1.4028 -0.3495
15311TIP3   OH267347   0.407   0.303  16.094 -0.0914  0.1435 -0.0877
15311TIP3    H167348   0.502   0.293  16.084  0.1527  1.9487  0.1437
15311TIP3    H267349   0.373   0.214  16.085  1.8173 -0.9570  2.3582
15312TIP3   OH267350   6.127   0.694  17.035  0.4505 -0.1450 -0.0327
15312TIP3    H167351   6.219   0.715  17.017  0.4965  0.7306  1.1276
15312TIP3    H267352   6.078   0.768  17.000  0.2115 -0.4700 -0.3844
15313TIP3   OH267353   0.475   3.070  15.205 -0.0240 -0.2652  0.0981
15313TIP3    H167354   0.393   3.098  15.245  0.8983  0.1312  1.7953
15313TIP3    H267355   0.510   3.004  15.264 -0.1275 -2.0662 -1.7282
15314TIP3   OH267356   5.127   6.150   0.983 -0.4963  0.1416 -0.3479
15314TIP3    H167357   5.110   6.059   0.956 -0.3202  0.4418 -1.5359
15314TIP3    H267358   5.040   6.191   0.983 -0.5504  0.0317 -0.0106
15315TIP3   OH267359   0.913   5.303  11.280 -0.0200 -0.2728 -0.3096
15315TIP3    H167360   0.950   5.380  11.236 -0.7844  0.1429 -0.2371
15315TIP3    H267361   0.899   5.240  11.209  1.2778 -0.6282 -0.2694
15316TIP3   OH267362   1.569   2.062   1.854 -0.4092  0.0147  0.1100
15316TIP3    H167363   1.632   2.046   1.925 -0.2445 -0.3677 -0.1191
15316TIP3    H267364   1.605   2.014   1.779 -0.6492  0.3142 -0.1966
15317TIP3   OH267365   3.433   6.046   4.372 -0.5630 -0.5970 -0.0727
15317TIP3    H167366   3.382   6.093   4.439 -1.5793 -1.2900 -0.3352
15317TIP3    H267367   3.382   6.057   4.292  0.4425 -0.1131 -0.6549
15318TIP3   OH267368   2.723   4.539  17.164 -0.1899 -0.1582  0.1641
15318TIP3    H167369   2.667   4.616  17.173  0.9741  0.6050  1.2384
15318TIP3    H267370   2.774   4.555  17.084 -0.1749  0.0329  0.2119
15319TIP3   OH267371   5.758   5.275  15.986 -0.2674  0.1692 -0.1210
15319TIP3    H167372   5.797   5.358  16.016 -0.7681  0.3115  0.1528
15319TIP3    H267373   5.832   5.215  15.979 -0.2124 -0.2592  2.6787
15320TIP3   OH267374   0.777   2.911  15.752 -0.3054  0.6574  0.4935
15320TIP3    H167375   0.863   2.953  15.758 -0.3471  0.5603  2.1052
15320TIP3    H267376   0.732   2.937  15.833 -1.2802 -0.4124  0.3102
15321TIP3   OH267377   3.953   3.679  12.655 -0.2860  0.0186  0.3071
15321TIP3    H167378   3.995   3.659  12.739 -0.0339  0.6307  0.3393
15321TIP3    H267379   3.875   3.624  12.653 -0.4066  0.1424  1.0406
15322TIP3   OH267380   6.711   0.603   2.115  0.1609  0.5744 -0.1853
15322TIP3    H167381   6.765   0.622   2.038 -1.8584 -1.4309 -2.2492
15322TIP3    H267382   6.729   0.511   2.135 -0.2414  0.7387  1.0100
15323TIP3   OH267383   2.036   3.058  11.581 -0.5379  0.7143  0.2168
15323TIP3    H167384   1.969   3.034  11.645 -0.6047  1.4642  0.4356
15323TIP3    H267385   1.988   3.079  11.501 -0.4773  0.1063  0.0155
15324TIP3   OH267386   1.727   6.584  13.748 -0.6185 -0.6947 -0.6442
15324TIP3    H167387   1.655   6.638  13.716  0.6805  2.0691  0.6969
15324TIP3    H267388   1.791   6.584  13.676  0.3181  1.5981  0.0806
15325TIP3   OH267389   5.611   3.595   2.834  0.4147  0.4001  0.4404
15325TIP3    H167390   5.527   3.582   2.877 -1.6174 -0.5364 -3.3703
15325TIP3    H267391   5.604   3.681   2.793  2.2453  1.2461  1.7782
15326TIP3   OH267392   0.439   2.833  15.553  0.8096 -0.2621  0.0444
15326TIP3    H167393   0.497   2.908  15.541 -0.9575  1.2481  0.4449
15326TIP3    H267394   0.377   2.839  15.480  0.8297 -1.5436 -0.0986
15327TIP3   OH267395   4.171   2.540   4.741 -0.1811  0.2802  0.4817
15327TIP3    H167396   4.231   2.466   4.756  1.7469  1.7214  0.2928
15327TIP3    H267397   4.112   2.509   4.672 -1.3740 -2.0966  2.3876
15328TIP3   OH267398   4.163   5.212  13.005 -0.1398 -0.4125 -0.2738
15328TIP3    H167399   4.087   5.224  13.062  0.7373  1.2615  0.6163
15328TIP3    H267400   4.158   5.286  12.944  0.2073 -0.8866 -0.8824
15329TIP3   OH267401   5.105   1.130  14.968 -0.3083  0.4197  0.0258
15329TIP3    H167402   5.107   1.063  15.036  0.3342 -1.3663 -1.6577
15329TIP3    H267403   5.195   1.162  14.962 -0.2970  0.3417 -0.2169
15330TIP3   OH267404   5.791   1.984  11.353 -0.0458  0.2559  0.1300
15330TIP3    H167405   5.836   2.061  11.387 -0.6982  0.2111  1.1194
15330TIP3    H267406   5.795   1.920  11.424 -0.4792 -0.2315 -0.2734
15331TIP3   OH267407   6.229   1.338  13.320  0.3998 -0.1624 -0.0105
15331TIP3    H167408   6.263   1.342  13.231 -1.7484 -0.0462 -0.8925
15331TIP3    H267409   6.299   1.373  13.374  0.9512  1.8894 -1.8956
15332TIP3   OH267410   3.652   0.580  11.967 -0.1444  0.0105 -0.2079
15332TIP3    H167411   3.724   0.571  11.905 -0.8058  0.7207 -1.0954
15332TIP3    H267412   3.586   0.517  11.937 -0.6161  0.6114 -0.4628
15333TIP3   OH267413   3.432   2.856   4.597 -0.1779  0.2294  0.0815
15333TIP3    H167414   3.386   2.903   4.666 -2.3049 -0.7826 -0.5595
15333TIP3    H267415   3.455   2.772   4.636  0.0483  0.2672  0.0316
15334TIP3   OH267416   6.209   1.051  13.098  0.4545  0.7177 -0.5240
15334TIP3    H167417   6.250   1.137  13.092  1.0073  0.4114 -1.2768
15334TIP3    H267418   6.215   1.029  13.191 -1.4984  2.3222  0.0558
15335TIP3   OH267419   5.002   2.457  12.075  0.1231 -0.3693  0.0395
15335TIP3    H167420   4.976   2.509  12.152  0.0910  0.1955 -0.3485
15335TIP3    H267421   4.932   2.472  12.012 -0.3838 -1.6644  0.2612
15336TIP3   OH267422   1.427   6.486   2.501  0.1619  0.6540 -0.3790
15336TIP3    H167423   1.376   6.414   2.464 -0.6760 -0.5626  2.8606
15336TIP3    H267424   1.518   6.456   2.495 -0.0520  0.0023 -0.4525
15337TIP3   OH267425   6.174   2.314  11.687  0.4481 -0.2982 -0.0098
15337TIP3    H167426   6.084   2.286  11.673  0.4434 -0.7875  0.9017
15337TIP3    H267427   6.175   2.407  11.666  0.1577 -0.6697 -1.8331
15338TIP3   OH267428   0.167   5.797  13.945 -0.8990 -0.2160 -0.3428
15338TIP3    H167429   0.163   5.893  13.944 -1.2347 -0.1857  1.1374
15338TIP3    H267430   0.081   5.769  13.912 -0.7387 -0.0200 -0.9406
15339TIP3   OH267431   4.610   4.212   6.135 -0.4860  0.5146 -0.6036
15339TIP3    H167432   4.530   4.199   6.084 -0.1822  0.4397 -1.0660
15339TIP3    H267433   4.680   4.213   6.070  0.2964 -2.8009 -0.0078
15340TIP3   OH267434   0.379   5.099   2.092 -0.2568  0.0727  0.0342
15340TIP3    H167435   0.332   5.088   2.009  0.5323 -1.7984 -0.2169
15340TIP3    H267436   0.459   5.144   2.067 -0.7073  0.8883  0.0375
15341TIP3   OH267437   4.077   0.684  11.097 -0.7342  0.3267 -0.2301
15341TIP3    H167438   4.050   0.764  11.052 -1.6238  1.2805  1.8680
15341TIP3    H267439   4.149   0.711  11.153  0.4065 -0.8515 -1.0615
15342TIP3   OH267440   6.521   3.238  12.596  0.8404 -0.1961 -0.0051
15342TIP3    H167441   6.442   3.249  12.649  1.3589  1.2647  0.4946
15342TIP3    H267442   6.503   3.287  12.516  1.1998  0.0696  0.0749
15343TIP3   OH267443   4.559   3.164   1.926  0.3226  0.3379  0.5749
15343TIP3    H167444   4.549   3.071   1.946  1.2393  0.1262  0.0808
15343TIP3    H267445   4.496   3.181   1.856 -0.0694  0.1664  0.8829
15344TIP3   OH267446   3.822   2.270  11.653  0.0601  0.0167  0.3853
15344TIP3    H167447   3.891   2.317  11.699 -0.3584  1.0769 -0.0502
15344TIP3    H267448   3.746   2.329  11.656 -0.1434 -0.1280 -1.1583
15345TIP3   OH267449   3.505   1.057   2.018  0.1764 -0.1781  0.6649
15345TIP3    H167450   3.565   1.007   2.074  0.4729 -0.7243 -0.1279
15345TIP3    H267451   3.555   1.133   1.990  0.2274 -0.2226  0.6370
15346TIP3   OH267452   3.963   3.346  12.365  0.3382 -0.2581  0.2737
15346TIP3    H167453   3.966   3.328  12.459  1.1326  0.9407  0.5078
15346TIP3    H267454   4.055   3.349  12.339  0.1419  0.0539 -0.4093
15347TIP3   OH267455   4.184   2.895   4.002 -0.4538 -0.3343 -0.2155
15347TIP3    H167456   4.113   2.960   4.005  0.2788  0.5364 -1.1583
15347TIP3    H267457   4.145   2.820   3.958 -0.4674  0.6262 -1.9503
15348TIP3   OH267458   4.884   3.688   4.503  0.0971  0.2629 -0.3413
15348TIP3    H167459   4.813   3.752   4.497  0.2728  0.6084  1.0416
15348TIP3    H267460   4.954   3.724   4.449 -0.0707  0.8745 -0.1522
15349TIP3   OH267461   1.553   1.340   2.328 -0.2844  0.6571 -0.0782
15349TIP3    H167462   1.616   1.294   2.272 -1.1975 -0.8936  0.1317
15349TIP3    H267463   1.606   1.372   2.401  0.1962 -1.0990  0.3794
15350TIP3   OH267464   2.995   4.590  13.912  0.3875  0.4476 -0.4160
15350TIP3    H167465   2.929   4.615  13.847  0.4957  0.6484 -0.4518
15350TIP3    H267466   3.037   4.673  13.935 -0.3307  0.5279  0.6628
15351TIP3   OH267467   2.936   5.781   1.784  0.3073  0.1161 -0.2887
15351TIP3    H167468   2.885   5.714   1.737 -1.1826  1.0252 -0.0384
15351TIP3    H267469   2.938   5.751   1.874  2.2443 -1.0802 -0.6684
15352TIP3   OH267470   5.386   4.666  16.152  0.1548  0.6914 -0.1772
15352TIP3    H167471   5.476   4.663  16.183 -0.1993  0.7687  0.8933
15352TIP3    H267472   5.353   4.751  16.182 -0.6274  0.1701  0.4791
15353TIP3   OH267473   4.822   2.794  13.838  0.7349  0.8849 -0.1287
15353TIP3    H167474   4.791   2.709  13.805 -1.9706  1.8914 -0.4002
15353TIP3    H267475   4.850   2.776  13.928  1.8968 -0.5931 -0.7417
15354TIP3   OH267476   4.161   5.966   6.227  0.0535  0.3223  0.1333
15354TIP3    H167477   4.215   6.012   6.291  0.2550  1.1176 -0.5918
15354TIP3    H267478   4.071   5.991   6.248  0.0619  0.0189  0.5391
15355TIP3   OH267479   0.979   1.028   0.989 -0.2019 -0.1922  0.0203
15355TIP3    H167480   1.069   1.042   1.019 -0.2806  0.8991 -0.2274
15355TIP3    H267481   0.929   1.010   1.070 -0.1230  1.1631  0.3841
15356TIP3   OH267482   3.101   4.722   0.202 -0.0369  0.0864 -0.1646
15356TIP3    H167483   3.051   4.646   0.231  0.8259 -0.2450  0.4904
15356TIP3    H267484   3.083   4.789   0.267  2.7307 -0.9799  1.9034
15357TIP3   OH267485   6.404   5.298   4.024  0.0833  0.0397 -0.5835
15357TIP3    H167486   6.495   5.327   4.019  0.1486 -0.2278 -1.0150
15357TIP3    H267487   6.360   5.365   4.076 -0.6195  3.0778 -4.6424
15358TIP3   OH267488   1.384   4.084  14.675 -0.1768 -0.3475 -0.2997
15358TIP3    H167489   1.462   4.049  14.717 -0.9392 -0.4493  1.1060
15358TIP3    H267490   1.414   4.115  14.589  1.3919 -0.3701  0.2089
15359TIP3   OH267491   2.534   2.487   2.435 -0.1323 -0.1077 -0.3089
15359TIP3    H167492   2.568   2.548   2.370  0.3186 -0.9355 -0.8770
15359TIP3    H267493   2.507   2.410   2.384 -1.3068 -0.1316  0.3150
15360TIP3   OH267494   4.972   1.977   2.600  0.8177  0.3946  0.5373
15360TIP3    H167495   4.933   1.891   2.588 -0.9460  1.2458 -0.1204
15360TIP3    H267496   5.063   1.967   2.572  0.8968 -1.4465  1.3439
15361TIP3   OH267497   3.032   0.919  16.543 -0.5281  0.4426  0.1600
15361TIP3    H167498   2.962   0.981  16.524 -0.3623  0.4060 -0.6316
15361TIP3    H267499   3.020   0.849  16.479  0.3725  0.5656 -0.1654
15362TIP3   OH267500   0.780   0.336  14.670  0.2648 -0.1244  0.3731
15362TIP3    H167501   0.835   0.309  14.743  0.1002  0.0680  0.5703
15362TIP3    H267502   0.837   0.328  14.593  0.4302 -0.3519  0.5179
15363TIP3   OH267503   0.565   6.655  17.243  0.0609  0.2417  0.1509
15363TIP3    H167504   0.646   6.664  17.294  0.2610  1.8013 -0.3812
15363TIP3    H267505   0.515   6.588  17.289  0.8577  0.5824  1.5874
15364TIP3   OH267506   1.079   4.856  14.850 -0.2159  0.5235 -0.5327
15364TIP3    H167507   1.036   4.902  14.922 -0.3658 -1.3228  0.6006
15364TIP3    H267508   1.145   4.918  14.819  1.3305  0.6444  2.6134
15365TIP3   OH267509   6.612   1.539  15.184 -0.7060 -0.5290  0.3445
15365TIP3    H167510   6.568   1.539  15.099  0.1102  0.7956 -0.1008
15365TIP3    H267511   6.656   1.624  15.189  1.8966 -1.7970  0.7293
15366TIP3   OH267512   0.586   3.159   2.650  0.4619  0.2962 -0.4661
15366TIP3    H167513   0.507   3.162   2.597  0.3395  0.6327 -0.2710
15366TIP3    H267514   0.557   3.186   2.737  0.8678  0.8244 -0.4875
15367TIP3   OH267515   1.242   4.132   1.109 -0.3142 -0.5635 -0.0499
15367TIP3    H167516   1.153   4.160   1.130 -0.9375 -1.1809 -1.6602
15367TIP3    H267517   1.247   4.043   1.144 -1.5132 -1.7727 -2.6321
15368TIP3   OH267518   4.577   0.071  15.431  0.2502 -0.4481 -0.3020
15368TIP3    H167519   4.528   0.153  15.435  2.1028  0.7930 -1.1350
15368TIP3    H267520   4.657   0.089  15.482  0.0435 -2.2651  0.7443
15369TIP3   OH267521   1.734   0.806   0.278 -0.1333 -0.0984 -0.2055
15369TIP3    H167522   1.817   0.850   0.264  1.0847 -2.3054 -0.3215
15369TIP3    H267523   1.684   0.822   0.198  1.7023 -1.8464 -1.7957
15370TIP3   OH267524   5.526   0.027   4.913  0.1745 -0.2387  0.6343
15370TIP3    H167525   5.545  -0.013   4.998 -0.5320  0.4070  1.1088
15370TIP3    H267526   5.434   0.050   4.918  0.1378 -0.1473 -0.3009
15371TIP3   OH267527   2.533   6.327   1.617 -0.4373  0.5229 -0.4152
15371TIP3    H167528   2.544   6.409   1.665  1.0239 -0.8419  1.7534
15371TIP3    H267529   2.620   6.287   1.616 -1.2870 -1.4664 -0.5056
15372TIP3   OH267530   6.313   1.257   1.142  0.1369  0.2400  0.1068
15372TIP3    H167531   6.401   1.288   1.166 -0.3942  2.0637 -0.1069
15372TIP3    H267532   6.326   1.200   1.067  1.0141  1.9356 -1.0792
15373TIP3   OH267533   2.784   0.921   4.425  0.6274  0.2919  0.2775
15373TIP3    H167534   2.776   1.016   4.413 -1.3135  0.1744  0.4430
15373TIP3    H267535   2.841   0.912   4.502 -0.1021  1.3701  0.9825
15374TIP3   OH267536   3.597   6.310   1.276 -0.1595 -0.0612  0.4260
15374TIP3    H167537   3.689   6.302   1.302 -0.7012 -3.2736  1.7568
15374TIP3    H267538   3.557   6.364   1.345  0.5489  0.8356  0.1635
15375TIP3   OH267539   0.776   0.937  13.902  0.4308  0.1779  0.0356
15375TIP3    H167540   0.870   0.922  13.913  0.0917 -1.0038  1.6867
15375TIP3    H267541   0.758   0.910  13.812  1.6029 -0.0318 -0.1528
15376TIP3   OH267542   2.678   1.872  13.336 -0.0037 -0.2078  0.2183
15376TIP3    H167543   2.740   1.945  13.333  0.3393 -0.2306  3.4553
15376TIP3    H267544   2.592   1.914  13.331  0.2115  0.2889  0.5695
15377TIP3   OH267545   1.221   6.392   2.169  0.2565  0.2979 -0.2210
15377TIP3    H167546   1.143   6.436   2.203 -0.7893  0.1754 -2.3162
15377TIP3    H267547   1.249   6.333   2.240 -0.7642  1.2970  1.0481
15378TIP3   OH267548   4.427   4.154   4.204  0.0234  0.1445  0.4341
15378TIP3    H167549   4.360   4.111   4.150  0.3399 -0.5735  0.6069
15378TIP3    H267550   4.377   4.212   4.262 -0.3158  1.0790 -0.7328
15379TIP3   OH267551   1.670   3.839   0.801 -0.1263  0.1971  0.3105
15379TIP3    H167552   1.644   3.751   0.828  2.6580 -0.0672  2.6689
15379TIP3    H267553   1.607   3.897   0.843 -1.6826 -0.5972 -0.8401
15380TIP3   OH267554   6.614   0.636  11.889 -0.1009  0.4832  0.6912
15380TIP3    H167555   6.580   0.575  11.955 -0.0530  1.2264  1.4081
15380TIP3    H267556   6.707   0.642  11.909 -0.2003  1.1957  0.9551
15381TIP3   OH267557   1.454   0.909   2.200  0.0553 -0.7297 -0.4444
15381TIP3    H167558   1.376   0.876   2.245 -0.7047  1.9582  0.4330
15381TIP3    H267559   1.509   0.945   2.270 -0.1913  1.6778 -1.3647
15382TIP3   OH267560   0.336   6.466   4.287  0.0966  0.6732  0.0559
15382TIP3    H167561   0.247   6.456   4.255 -0.0459  1.0561  0.3301
15382TIP3    H267562   0.369   6.377   4.295 -0.0561  0.5490 -0.6193
15383TIP3   OH267563   2.880   5.513   5.160  0.0134 -0.6254 -0.4573
15383TIP3    H167564   2.871   5.546   5.071  0.4298 -0.3860 -0.4150
15383TIP3    H267565   2.822   5.569   5.212 -0.0496 -0.6112 -0.5421
15384TIP3   OH267566   5.426   0.570  17.213  0.0133 -0.8533  0.7192
15384TIP3    H167567   5.487   0.553  17.140 -0.7340 -1.3142  0.1851
15384TIP3    H267568   5.349   0.608  17.171 -0.0370 -0.1702  1.4060
15385TIP3   OH267569   6.702   1.685   3.113 -0.9799  0.0916 -0.3992
15385TIP3    H167570   6.667   1.600   3.141  0.5761 -1.1053 -1.8559
15385TIP3    H267571   6.757   1.664   3.038  2.5834  1.7888  1.4947
15386TIP3   OH267572   6.041   2.307   1.645 -0.3752  0.2236  0.2636
15386TIP3    H167573   5.996   2.286   1.563  2.6508 -0.0034 -1.5084
15386TIP3    H267574   6.029   2.401   1.656 -0.8999  0.2413 -0.3939
15387TIP3   OH267575   1.806   6.755  13.068  0.2346 -0.0113 -0.2869
15387TIP3    H167576   1.794   6.677  13.013  1.8549  0.3403 -1.1974
15387TIP3    H267577   1.814   6.721  13.157  2.8728 -1.1172 -0.8697
15388TIP3   OH267578   1.731   6.637   4.887  0.5211 -0.1882 -0.2246
15388TIP3    H167579   1.742   6.570   4.954  2.5554  1.0688  0.7922
15388TIP3    H267580   1.659   6.691   4.919  0.1026 -0.8105 -0.1084
15389TIP3   OH267581   0.252   6.656  13.179  0.1953 -0.2764  0.1926
15389TIP3    H167582   0.279   6.657  13.087 -2.4003 -0.6837 -0.6371
15389TIP3    H267583   0.290   6.737  13.215  0.6740  0.2617 -1.4182
15390TIP3   OH267584   4.390   3.778  12.646 -0.1175  0.5652 -0.0817
15390TIP3    H167585   4.323   3.779  12.578 -0.4430  2.8108  0.1845
15390TIP3    H267586   4.461   3.725  12.609 -1.8873 -1.6502 -0.4608
15391TIP3   OH267587   5.308   1.550   4.598  0.2992 -0.1094  0.0861
15391TIP3    H167588   5.246   1.553   4.525  0.4157  0.6648  0.0109
15391TIP3    H267589   5.393   1.563   4.557  0.1922  2.5698  0.5496
15392TIP3   OH267590   4.428   3.610   1.120 -0.4898  0.9374 -1.0486
15392TIP3    H167591   4.415   3.576   1.209 -0.2565  1.6386 -0.7393
15392TIP3    H267592   4.519   3.589   1.100 -0.5687  0.6989 -1.1575
15393TIP3   OH267593   4.829   5.918   6.004 -0.6553  0.2509 -0.3334
15393TIP3    H167594   4.837   5.934   6.098 -0.0019  0.4962 -0.4275
15393TIP3    H267595   4.741   5.880   5.994  0.7065 -3.8117  0.9289
15394TIP3   OH267596   4.594   6.700   1.615 -0.0936  0.2066 -0.5903
15394TIP3    H167597   4.619   6.711   1.706 -0.4424  1.4059 -0.6257
15394TIP3    H267598   4.555   6.783   1.590 -3.1475 -1.1730 -0.8567
15395TIP3   OH267599   3.612   3.419  11.137 -0.2468 -0.3320 -0.1097
15395TIP3    H167600   3.629   3.450  11.226 -0.8975 -0.4417  0.0563
15395TIP3    H267601   3.633   3.325  11.140 -3.1214 -1.0476  0.7612
15396TIP3   OH267602   1.306   3.294  14.428 -0.2988  0.4158 -0.1929
15396TIP3    H167603   1.256   3.263  14.353  1.2291 -0.0410 -1.0398
15396TIP3    H267604   1.241   3.342  14.481 -1.8271 -0.8685 -0.8033
15397TIP3   OH267605   1.181   4.344  16.456 -0.2396 -0.5156 -0.1258
15397TIP3    H167606   1.206   4.419  16.511  0.2208 -0.3463 -0.5602
15397TIP3    H267607   1.087   4.353  16.446 -0.3371 -0.5715  0.6708
15398TIP3   OH267608   1.151   6.419  16.608  0.6807  0.2012  0.6965
15398TIP3    H167609   1.120   6.329  16.614  1.4575 -0.0402  1.1495
15398TIP3    H267610   1.124   6.448  16.521  1.6942 -0.9427 -0.0307
15399TIP3   OH267611   6.540   2.737  13.062 -0.0937  0.4248  0.0865
15399TIP3    H167612   6.516   2.654  13.021  0.4038 -0.5226  1.6230
15399TIP3    H267613   6.491   2.739  13.144  1.8317  0.3781  1.3248
15400TIP3   OH267614   4.045   0.044   4.855  0.2005 -0.7365  0.2348
15400TIP3    H167615   4.101  -0.030   4.877  2.6248  0.3409 -1.8463
15400TIP3    H267616   4.105   0.118   4.845 -1.9415  1.1691  0.6717
15401TIP3   OH267617   1.691   2.538   0.922  0.6218  0.2696  0.1477
15401TIP3    H167618   1.751   2.577   0.858  1.3828  0.5941  1.0379
15401TIP3    H267619   1.677   2.449   0.890 -0.4465  0.9711 -1.4321
15402TIP3   OH267620   3.554   1.131  13.413 -0.1108 -0.4127  0.1042
15402TIP3    H167621   3.463   1.144  13.439 -0.9926 -2.8132 -1.4618
15402TIP3    H267622   3.588   1.219  13.401 -2.1030  0.5660  1.0716
15403TIP3   OH267623   3.157   3.946   1.847  0.8798  0.3384  0.3064
15403TIP3    H167624   3.234   3.983   1.804  0.7507 -0.5509 -0.7175
15403TIP3    H267625   3.091   3.940   1.778  0.2195  0.1205  0.9389
15404TIP3   OH267626   3.326   6.034   0.716  0.1228  0.1367  0.1370
15404TIP3    H167627   3.257   5.980   0.755 -0.7080  1.6293  0.8051
15404TIP3    H267628   3.320   6.117   0.762 -0.0604  1.5553 -2.2980
15405TIP3   OH267629   3.399   6.511  12.546  0.1583  0.0295 -0.0740
15405TIP3    H167630   3.379   6.602  12.525  2.0576 -0.1570 -3.3197
15405TIP3    H267631   3.332   6.461  12.499 -0.9489 -0.3565  1.7939
15406TIP3   OH267632   2.045   2.702  16.414  0.1582  0.3181  0.6837
15406TIP3    H167633   2.035   2.655  16.331 -1.1487  0.9642  0.4416
15406TIP3    H267634   1.965   2.682  16.462  1.1096 -0.4446  2.0207
15407TIP3   OH267635   6.048   4.150   0.633 -0.6279 -0.5615 -0.4909
15407TIP3    H167636   6.143   4.153   0.618 -0.4426  3.1972  0.5466
15407TIP3    H267637   6.010   4.159   0.546  0.1743  2.8301 -0.6334
15408TIP3   OH267638   0.706   1.953   0.268 -0.4612  0.0127  0.3448
15408TIP3    H167639   0.725   1.863   0.239 -1.3751 -0.0020 -0.2608
15408TIP3    H267640   0.741   2.008   0.198 -1.2396  0.0494 -0.0286
15409TIP3   OH267641   1.696   3.174   2.470  0.8711  0.6375 -0.1362
15409TIP3    H167642   1.651   3.198   2.388  2.6907 -0.1100 -1.4209
15409TIP3    H267643   1.695   3.254   2.522 -0.7007  1.0168 -0.6896
15410TIP3   OH267644   4.559   0.893   4.279 -0.3880 -0.2577 -0.0762
15410TIP3    H167645   4.592   0.983   4.271  0.3184 -0.6217 -1.5757
15410TIP3    H267646   4.478   0.892   4.229 -0.7709 -0.2927  0.5332
15411TIP3   OH267647   2.174   2.526  16.767 -0.0055  0.1025 -0.0482
15411TIP3    H167648   2.252   2.486  16.728 -0.7582 -0.0995 -1.4018
15411TIP3    H267649   2.103   2.465  16.747 -0.5820  0.4295  0.9183
15412TIP3   OH267650   4.514   0.227  11.610 -0.0375  0.1749 -0.1450
15412TIP3    H167651   4.529   0.140  11.646 -0.2792  0.2066  0.0365
15412TIP3    H267652   4.501   0.213  11.516  0.0511  0.0306 -0.1360
15413TIP3   OH267653   1.522   2.988  13.872 -0.1511 -0.5021 -0.3984
15413TIP3    H167654   1.460   3.033  13.816  0.1272 -1.3318 -1.3944
15413TIP3    H267655   1.470   2.961  13.948 -1.6892 -3.3022 -2.2596
15414TIP3   OH267656   5.096   4.291  13.999  0.1371  0.4735  0.2095
15414TIP3    H167657   5.043   4.370  13.994  1.0827  1.0868 -0.7470
15414TIP3    H267658   5.068   4.247  14.079 -0.9212  1.4003  0.3607
15415TIP3   OH267659   4.533   2.522   4.976  0.4521  0.1558  0.4347
15415TIP3    H167660   4.628   2.514   4.969  0.4903  0.8661  0.0750
15415TIP3    H267661   4.517   2.616   4.981 -0.3729  0.1991 -1.8231
15416TIP3   OH267662   3.236   4.819   6.281 -0.0182 -0.0703  0.3596
15416TIP3    H167663   3.243   4.911   6.254 -1.3704  0.3064  1.1729
15416TIP3    H267664   3.300   4.810   6.351 -1.3143  0.8846  1.7470
15417TIP3   OH267665   2.907   2.750  17.283 -0.3268  0.0691 -0.0975
15417TIP3    H167666   2.927   2.841  17.260 -0.9687 -0.3276 -2.5474
15417TIP3    H267667   2.972   2.699  17.234  0.3895 -0.8271  1.6915
15418TIP3   OH267668   5.326   3.890   1.858 -0.0783  0.4526  0.3572
15418TIP3    H167669   5.390   3.960   1.848 -0.5365  0.8760  0.3767
15418TIP3    H267670   5.291   3.900   1.946  0.7767 -0.5977  0.8449
15419TIP3   OH267671   6.474   2.185  14.627  0.2330 -0.5017  0.8834
15419TIP3    H167672   6.533   2.209  14.699  0.7193 -0.3573  0.4476
15419TIP3    H267673   6.526   2.128  14.572 -0.4359 -1.3454  1.1097
15420TIP3   OH267674   1.102   2.744  12.299  0.7490  0.9259 -0.1204
15420TIP3    H167675   1.159   2.668  12.287 -0.5231  0.1754 -1.6379
15420TIP3    H267676   1.065   2.733  12.386 -0.5578 -1.0336 -0.8649
15421TIP3   OH267677   3.614   1.227   3.802 -0.1255  0.4120 -0.5610
15421TIP3    H167678   3.598   1.295   3.736  2.2535  0.2117 -1.4382
15421TIP3    H267679   3.623   1.147   3.751  0.5698  0.0498  0.1152
15422TIP3   OH267680   3.085   4.851  14.659 -0.3243  0.2229  0.0714
15422TIP3    H167681   3.161   4.837  14.603 -0.9146  1.4191 -1.0749
15422TIP3    H267682   3.030   4.774  14.644  0.3682 -0.3678  0.4670
15423TIP3   OH267683   4.344   3.592   2.337  0.1929  0.0098 -0.3364
15423TIP3    H167684   4.267   3.611   2.282  1.4480  0.4564 -2.0384
15423TIP3    H267685   4.331   3.645   2.415 -1.1304  0.2461 -0.6930
15424TIP3   OH267686   5.462   3.193   4.549 -0.1377  0.4640 -0.4301
15424TIP3    H167687   5.371   3.184   4.577 -0.4877  1.2987 -1.2265
15424TIP3    H267688   5.457   3.192   4.453  0.7878 -0.2655 -0.4846
15425TIP3   OH267689   3.570   2.326  14.319  0.2320 -0.1159 -0.0480
15425TIP3    H167690   3.624   2.378  14.377 -0.4281  0.2833  0.2169
15425TIP3    H267691   3.519   2.270  14.377  1.8129 -2.0033 -0.3470
15426TIP3   OH267692   4.525   1.069   3.630  0.0541 -0.1535 -0.5167
15426TIP3    H167693   4.537   1.162   3.647  0.2363 -0.0319 -1.2589
15426TIP3    H267694   4.591   1.026   3.683  1.4882  0.2861 -1.8529
15427TIP3   OH267695   0.010   1.442   2.906 -0.2817  0.5209 -0.3211
15427TIP3    H167696   0.087   1.410   2.952 -0.5432 -0.6979 -0.6737
15427TIP3    H267697   0.029   1.426   2.813 -0.8096  0.5297 -0.4359
15428TIP3   OH267698   1.950   2.122   3.708 -0.4612  0.1824  0.0169
15428TIP3    H167699   1.923   2.173   3.784  2.1173  2.7061 -0.5924
15428TIP3    H267700   1.885   2.143   3.641 -1.0231  0.3543  0.6072
15429TIP3   OH267701   0.657   3.584  13.600 -0.4150  0.0948 -0.4673
15429TIP3    H167702   0.670   3.646  13.672 -2.0140 -0.6008  0.4600
15429TIP3    H267703   0.654   3.498  13.642  2.7794 -0.8533 -1.8221
15430TIP3   OH267704   1.001   1.226  13.245  0.0183 -0.0869  0.0412
15430TIP3    H167705   0.952   1.164  13.298  0.9799 -0.4814  0.4987
15430TIP3    H267706   1.092   1.196  13.252  0.4806  1.2987  0.1714
15431TIP3   OH267707   1.284   3.535  15.974 -0.2185  0.2642  0.2602
15431TIP3    H167708   1.255   3.519  16.064  1.1125  1.7730  0.9938
15431TIP3    H267709   1.216   3.590  15.936  0.7758  2.4902  1.4855
15432TIP3   OH267710   6.539   2.737  15.572  0.7407  0.2188 -0.2706
15432TIP3    H167711   6.460   2.779  15.606 -0.4460 -1.3081 -0.9829
15432TIP3    H267712   6.596   2.726  15.648  0.5426  1.8918  0.1440
15433TIP3   OH267713   2.364   1.122  11.713 -0.1917 -0.5297  0.1739
15433TIP3    H167714   2.395   1.178  11.784  1.3425  1.5188 -1.9960
15433TIP3    H267715   2.268   1.124  11.721 -0.1945  2.3581  0.2711
15434TIP3   OH267716   2.429   6.521   5.689 -0.5162 -0.4237 -0.1338
15434TIP3    H167717   2.434   6.439   5.739 -0.9568 -0.4114 -0.0668
15434TIP3    H267718   2.463   6.588   5.748  0.0880 -0.5929 -0.2774
15435TIP3   OH267719   2.931   0.812  17.094  0.1470 -0.5410 -0.4821
15435TIP3    H167720   2.846   0.833  17.133 -1.2489 -2.2970 -2.3328
15435TIP3    H267721   2.959   0.894  17.052  0.0170  0.4060  1.2065
15436TIP3   OH267722   4.597   3.116   6.474 -0.2335 -0.2849  0.2789
15436TIP3    H167723   4.542   3.071   6.409 -0.4504  0.4251 -0.0325
15436TIP3    H267724   4.686   3.091   6.451 -0.3717 -0.8921  0.3669
15437TIP3   OH267725   5.265   4.541  15.665 -1.1870  0.1872  0.4408
15437TIP3    H167726   5.190   4.487  15.690 -0.4474 -0.0650  2.2957
15437TIP3    H267727   5.330   4.479  15.633 -1.0564  0.1823  0.7113
15438TIP3   OH267728   2.649   6.610   3.335  0.6750  0.1705 -0.1075
15438TIP3    H167729   2.604   6.599   3.419  3.2647 -0.6602  1.2769
15438TIP3    H267730   2.634   6.702   3.312  1.0344  0.7972  1.9900
15439TIP3   OH267731   5.348   3.886  16.274 -0.1020 -0.0150 -0.5206
15439TIP3    H167732   5.267   3.926  16.239 -1.2706  1.2193  3.1775
15439TIP3    H267733   5.416   3.949  16.252 -0.7092  0.5365 -0.8818
15440TIP3   OH267734   5.798   2.445   6.466 -0.0981  0.0293  0.4705
15440TIP3    H167735   5.813   2.520   6.410 -0.2956  0.1787  0.6174
15440TIP3    H267736   5.836   2.371   6.418 -2.4245 -0.3001 -1.0201
15441TIP3   OH267737   4.851   0.191   0.514  0.2786 -0.1108  0.1643
15441TIP3    H167738   4.909   0.184   0.439  0.6320 -0.7813  0.4892
15441TIP3    H267739   4.909   0.191   0.590 -0.0943  0.1664  0.4526
15442TIP3   OH267740   4.942   4.039   6.251  0.1389 -0.1756  0.4664
15442TIP3    H167741   4.937   4.088   6.169 -1.9584  3.3591  2.4557
15442TIP3    H267742   5.010   4.084   6.301  1.2523 -2.1618  0.8220
15443TIP3   OH267743   1.865   0.922  13.773 -0.4633  0.1227  0.4583
15443TIP3    H167744   1.941   0.979  13.785 -1.1382  1.1484  0.0907
15443TIP3    H267745   1.895   0.835  13.798  1.4634  0.0441 -1.7672
15444TIP3   OH267746   6.088   0.114   2.595 -0.0265 -0.2844  0.3312
15444TIP3    H167747   6.128   0.066   2.522  0.8965  2.5078 -1.1318
15444TIP3    H267748   6.160   0.164   2.634 -1.1558  0.9906  0.8801
15445TIP3   OH267749   2.461   4.148  14.106 -0.1512 -0.4091 -0.4939
15445TIP3    H167750   2.368   4.141  14.083 -1.4200  3.9375  2.2381
15445TIP3    H267751   2.492   4.226  14.059  0.7883  0.8314  2.0131
15446TIP3   OH267752   1.207   5.051   3.402  0.2119 -0.3212  0.3974
15446TIP3    H167753   1.121   5.078   3.369  1.1755  2.1715 -0.3258
15446TIP3    H267754   1.196   5.047   3.497 -0.9183 -0.9917  0.2535
15447TIP3   OH267755   1.127   0.411   3.885  0.5987  0.0574  0.8476
15447TIP3    H167756   1.095   0.337   3.832  1.2041  0.4604 -0.0990
15447TIP3    H267757   1.104   0.488   3.834  0.8037  0.4842  1.3954
15448TIP3   OH267758   0.054   3.466   1.472 -0.2636  0.4189 -1.5698
15448TIP3    H167759   0.143   3.501   1.474 -0.7412  1.8043  1.0302
15448TIP3    H267760   0.061   3.379   1.511 -0.1467  0.9982 -0.2259
15449TIP3   OH267761   1.931   0.950  15.839 -0.3936  0.0151  0.1952
15449TIP3    H167762   1.950   0.909  15.755  2.3904  0.7933  0.3676
15449TIP3    H267763   1.928   1.044  15.820 -0.9078  0.1283  0.7966
15450TIP3   OH267764   3.833   4.844   2.030 -0.5171  0.2654 -0.5567
15450TIP3    H167765   3.849   4.788   2.106  0.4093  0.0228 -0.9262
15450TIP3    H267766   3.753   4.892   2.053 -0.5190 -0.1547  0.3673
15451TIP3   OH267767   4.566   3.101   0.432  0.0761  0.6561 -0.2655
15451TIP3    H167768   4.656   3.107   0.402  0.2350 -0.0144  0.0620
15451TIP3    H267769   4.534   3.018   0.397 -0.6677  1.2500 -1.0294
15452TIP3   OH267770   3.949   3.772  14.189 -0.2109 -0.2939 -0.5014
15452TIP3    H167771   4.015   3.703  14.192 -1.3789 -1.4648 -0.9019
15452TIP3    H267772   3.983   3.841  14.246  1.0760 -1.1118 -0.2550
15453TIP3   OH267773   2.038   4.070  11.028  0.1783 -0.6495  0.0964
15453TIP3    H167774   2.112   4.118  10.990  0.4944  0.8536  2.4117
15453TIP3    H267775   1.963   4.128  11.015  0.2842 -0.1262  1.6055
15454TIP3   OH267776   0.504   5.313  12.752 -0.9299  0.1503 -0.1886
15454TIP3    H167777   0.424   5.261  12.746 -1.7411  1.0955  1.7361
15454TIP3    H267778   0.480   5.389  12.805  1.0708  0.8084 -0.1339
15455TIP3   OH267779   6.570   5.268  13.848  0.0425  0.0570  0.1862
15455TIP3    H167780   6.640   5.308  13.901  1.8437 -1.1844 -1.1552
15455TIP3    H267781   6.538   5.196  13.902 -1.0119  1.2841  1.2669
15456TIP3   OH267782   2.392   2.333  12.785 -0.1530 -0.5430  0.3812
15456TIP3    H167783   2.320   2.384  12.749  1.0381  0.5246 -0.5715
15456TIP3    H267784   2.399   2.361  12.876  0.6379  1.2733 -0.1792
15457TIP3   OH267785   4.304   0.237  11.911  0.0557 -0.3065 -0.1507
15457TIP3    H167786   4.296   0.197  11.824 -1.5073 -0.1737 -0.1121
15457TIP3    H267787   4.317   0.164  11.971  0.0009 -0.5106 -0.3867
15458TIP3   OH267788   1.797   0.031   0.220  0.2338  0.4037  0.4122
15458TIP3    H167789   1.816  -0.059   0.245  0.2642 -0.1938 -1.6099
15458TIP3    H267790   1.754   0.024   0.135 -0.8018  2.2420  0.7251
15459TIP3   OH267791   0.226   0.024  16.434 -0.4473  0.2502 -0.0822
15459TIP3    H167792   0.234   0.101  16.490  1.5328  0.8840 -1.1242
15459TIP3    H267793   0.145   0.038  16.384  0.4927  2.3379 -1.1558
15460TIP3   OH267794   1.549   0.344   4.116  0.2563  0.0675 -0.4854
15460TIP3    H167795   1.537   0.253   4.090 -0.4937 -0.3257  1.1305
15460TIP3    H267796   1.463   0.385   4.104  0.4245  0.4041 -0.5708
15461TIP3   OH267797   3.968   5.038   1.893  0.2202  0.3912  0.2027
15461TIP3    H167798   3.924   5.027   1.809  0.1149 -0.8723  0.3993
15461TIP3    H267799   3.923   4.977   1.952  0.6491  0.8524  1.0315
15462TIP3   OH267800   6.489   6.300  15.190  0.0019 -0.1240  0.3686
15462TIP3    H167801   6.453   6.260  15.269  1.0513 -0.4617  0.6932
15462TIP3    H267802   6.448   6.387  15.186 -1.7974 -0.9400  0.0225
15463TIP3   OH267803   0.546   2.607  13.689 -0.0256  0.3600  0.1935
15463TIP3    H167804   0.515   2.614  13.779 -1.1528  0.4523 -0.1723
15463TIP3    H267805   0.516   2.688  13.648  0.0793  0.1168 -0.3708
15464TIP3   OH267806   4.946   3.751  16.809  0.0867  0.0454  0.1112
15464TIP3    H167807   4.890   3.778  16.736  1.2104 -1.3599 -1.3610
15464TIP3    H267808   4.968   3.832  16.854 -1.2529  0.8676 -0.6629
15465TIP3   OH267809   3.362   3.018   5.869 -0.1592  1.0057 -0.0443
15465TIP3    H167810   3.454   3.044   5.866 -0.0702  1.0162  1.5655
15465TIP3    H267811   3.360   2.947   5.934 -1.1483  0.3516 -0.7629
15466TIP3   OH267812   0.637   0.668   4.433  0.0889 -0.0221 -0.3695
15466TIP3    H167813   0.641   0.687   4.527  1.3509 -0.4151 -0.3289
15466TIP3    H267814   0.575   0.733   4.398  0.4843  0.8770  0.5525
15467TIP3   OH267815   3.529   6.531   4.712  0.1742 -0.1113  0.3182
15467TIP3    H167816   3.572   6.485   4.640 -0.8728 -0.7873  0.0999
15467TIP3    H267817   3.447   6.483   4.726 -0.1377  0.6517  1.2522
15468TIP3   OH267818   5.319   2.028   2.031 -0.4188 -0.3401  0.2914
15468TIP3    H167819   5.383   1.957   2.032 -1.5087 -1.3567  0.5985
15468TIP3    H267820   5.247   1.996   2.086 -0.5206  1.4182  1.2350
15469TIP3   OH267821   6.272   3.013  13.225 -0.8367 -0.2146  0.7013
15469TIP3    H167822   6.359   3.041  13.252 -0.7319 -0.0506  0.2186
15469TIP3    H267823   6.287   2.959  13.147 -1.1015 -0.9377  1.1412
15470TIP3   OH267824   4.352   0.357   1.191  0.2188 -0.3162  0.4205
15470TIP3    H167825   4.305   0.427   1.146 -0.0319  1.1654  2.7584
15470TIP3    H267826   4.417   0.327   1.129 -0.5035  1.1397 -1.1103
15471TIP3   OH267827   2.601   6.158   5.586 -0.1114 -0.0102  0.4607
15471TIP3    H167828   2.649   6.240   5.591  1.2911 -0.8700  2.2330
15471TIP3    H267829   2.668   6.090   5.584 -1.1568 -1.2519  2.6517
15472TIP3   OH267830   1.598   0.760  12.987 -0.2886  0.1737  0.7403
15472TIP3    H167831   1.672   0.783  12.930  0.3108 -1.8790  0.6004
15472TIP3    H267832   1.588   0.836  13.045  1.2692  0.9260  0.0876
15473TIP3   OH267833   3.142   2.559   3.549 -0.2081 -0.3679  0.9034
15473TIP3    H167834   3.209   2.585   3.613 -1.0116  0.1764  1.5383
15473TIP3    H267835   3.084   2.501   3.598 -0.8803  0.1204  0.7002
15474TIP3   OH267836   2.740   2.985   1.469  0.3648  0.1982 -0.8815
15474TIP3    H167837   2.682   2.910   1.480  1.3118 -0.5575 -0.9012
15474TIP3    H267838   2.752   3.019   1.558 -0.0022  0.2773 -0.8628
15475TIP3   OH267839   1.109   1.445  12.672 -0.4978  0.3181 -0.8250
15475TIP3    H167840   1.062   1.438  12.755  0.2635 -0.3521 -0.4320
15475TIP3    H267841   1.046   1.485  12.612 -0.7019  1.9213  0.3604
15476TIP3   OH267842   2.411   5.917   3.199  0.4510 -0.4226  0.2935
15476TIP3    H167843   2.469   5.923   3.124  0.4942 -0.3030  0.3359
15476TIP3    H267844   2.428   5.831   3.236  0.1064 -0.6587 -0.0946
15477TIP3   OH267845   6.664   2.043  10.763 -0.1002 -0.4818  0.2473
15477TIP3    H167846   6.615   1.976  10.811  1.2989 -1.9938 -0.3277
15477TIP3    H267847   6.697   2.102  10.831 -0.2317 -1.1522  0.9105
15478TIP3   OH267848   4.805   0.057  12.068 -0.3095  0.5776 -0.5120
15478TIP3    H167849   4.799   0.153  12.064 -0.3571  0.7496  2.1839
15478TIP3    H267850   4.881   0.040  12.124 -0.6197 -0.9599 -0.5162
15479TIP3   OH267851   1.372   3.204  13.528 -0.5090 -0.3953 -0.1768
15479TIP3    H167852   1.429   3.281  13.528  1.3533 -1.7267  0.0304
15479TIP3    H267853   1.411   3.144  13.591 -2.0564 -1.4530 -0.1572
15480TIP3   OH267854   6.504   3.549   3.978 -0.1046  0.0432  0.0385
15480TIP3    H167855   6.528   3.457   3.978 -2.9920 -0.8078  0.0699
15480TIP3    H267856   6.504   3.574   4.071  0.6551  0.0934  0.0312
15481TIP3   OH267857   6.449   5.670  13.494  0.2704 -0.9152  0.2286
15481TIP3    H167858   6.393   5.659  13.416  1.0623  1.1693 -0.7231
15481TIP3    H267859   6.393   5.645  13.567 -1.4862 -0.1769 -0.7934
15482TIP3   OH267860   5.656   1.078   0.526 -0.4295  0.2141 -0.1488
15482TIP3    H167861   5.613   1.146   0.577 -1.1429 -0.7565  0.5939
15482TIP3    H267862   5.606   1.074   0.444 -2.3168 -1.3688  0.9735
15483TIP3   OH267863   6.531   2.308   3.363 -0.1840  0.7435 -0.0677
15483TIP3    H167864   6.613   2.290   3.317  0.9118  1.1245  1.6707
15483TIP3    H267865   6.532   2.250   3.439 -2.9313 -1.3854 -1.4657
15484TIP3   OH267866   5.296   4.045  12.585  0.0069 -0.1145 -0.0750
15484TIP3    H167867   5.251   4.056  12.669  0.0047 -0.0983 -0.0787
15484TIP3    H267868   5.241   4.091  12.522 -0.6128 -1.1015 -0.2843
15485TIP3   OH267869   3.540   5.845  16.481 -0.1845 -0.0061  0.5962
15485TIP3    H167870   3.614   5.785  16.481 -0.9184 -0.9282  0.9895
15485TIP3    H267871   3.469   5.796  16.520 -1.1526  0.6873 -0.2323
15486TIP3   OH267872   2.311   0.094  11.164  0.0016  0.3449  0.1204
15486TIP3    H167873   2.321   0.158  11.234 -0.3405 -0.8937  1.3609
15486TIP3    H267874   2.384   0.033  11.178 -1.2165 -1.0476  0.7045
15487TIP3   OH267875   1.906   5.575  15.123  0.2872 -0.2567  0.4755
15487TIP3    H167876   1.883   5.661  15.088 -0.4217 -0.3386  0.7095
15487TIP3    H267877   1.962   5.536  15.056  1.7709  0.9216  0.9903
15488TIP3   OH267878   6.032   2.247   1.292  0.1144  0.2218  0.1296
15488TIP3    H167879   5.978   2.250   1.212  0.5639  1.1041 -0.1425
15488TIP3    H267880   6.042   2.338   1.318  0.1954 -0.0432  1.0605
15489TIP3   OH267881   4.686   2.030  13.066  0.7033  0.4635 -0.3836
15489TIP3    H167882   4.738   1.961  13.023 -0.7294 -2.7257  2.5005
15489TIP3    H267883   4.599   1.992  13.075  0.0667  2.2678  2.1857
15490TIP3   OH267884   1.104   1.979  10.474 -0.1973 -0.2817 -0.1903
15490TIP3    H167885   1.094   1.972  10.569 -3.0590 -0.3432 -0.3998
15490TIP3    H267886   1.148   1.898  10.448 -1.8398 -1.5576  0.8485
15491TIP3   OH267887   0.631   0.625  11.484 -0.0664  0.1540  0.2475
15491TIP3    H167888   0.563   0.691  11.470  2.0656  2.6008  0.6400
15491TIP3    H267889   0.666   0.645  11.570 -0.5832 -2.8211  1.2831
15492TIP3   OH267890   5.487   6.541  17.370 -0.0621  0.5526  1.0690
15492TIP3    H167891   5.417   6.595  17.408 -0.7845 -0.2730  0.9347
15492TIP3    H267892   5.513   6.589  17.291 -2.2512 -0.3498 -0.2991
15493TIP3   OH267893   2.141   2.787  12.549 -0.6492  0.1253  0.0528
15493TIP3    H167894   2.104   2.873  12.532 -0.9951  0.6418  2.8566
15493TIP3    H267895   2.236   2.801  12.549 -0.6782  0.3235 -0.2871
15494TIP3   OH267896   6.180   0.677  16.130 -0.1109 -0.5478 -0.2464
15494TIP3    H167897   6.138   0.727  16.060 -0.4775  0.2958  0.5619
15494TIP3    H267898   6.251   0.733  16.161 -0.6187 -0.4354  0.7714
15495TIP3   OH267899   6.646   3.634   1.672  0.4250 -0.2092 -0.1914
15495TIP3    H167900   6.617   3.694   1.602  1.2626 -0.2261 -0.5641
15495TIP3    H267901   6.691   3.564   1.626 -0.7629 -1.2782  0.2300
15496TIP3   OH267902   5.589   4.084   2.471 -0.3048  0.3751 -0.0744
15496TIP3    H167903   5.678   4.119   2.481 -0.3766  0.7904 -0.8282
15496TIP3    H267904   5.536   4.159   2.446 -0.6345 -0.1022 -0.8402
15497TIP3   OH267905   5.564   1.904   2.069  0.5342 -0.0705 -0.0668
15497TIP3    H167906   5.610   1.874   1.991  0.7650 -0.9356  0.3934
15497TIP3    H267907   5.627   1.894   2.140 -0.4857 -1.7763  0.6652
15498TIP3   OH267908   3.994   5.094   3.560  0.0803 -0.0280 -0.8434
15498TIP3    H167909   3.972   5.038   3.486  0.8571 -0.5673 -0.6808
15498TIP3    H267910   4.086   5.074   3.578  0.1926  0.8584 -0.3956
15499TIP3   OH267911   3.552   6.257  16.909  0.0041 -0.3552 -0.2854
15499TIP3    H167912   3.582   6.348  16.914 -1.1413  0.0269 -0.2295
15499TIP3    H267913   3.557   6.235  16.816 -0.4774  0.0328 -0.4071
15500TIP3   OH267914   0.054   3.910   0.500  0.2997 -0.1022 -0.1065
15500TIP3    H167915   0.098   3.872   0.576  1.2020  1.8423  0.4101
15500TIP3    H267916  -0.039   3.904   0.521  0.4667 -1.0093  0.4317
15501TIP3   OH267917   3.199   3.875   4.097 -0.1199  0.1230 -0.0598
15501TIP3    H167918   3.110   3.849   4.073 -0.6182  1.9508 -0.3053
15501TIP3    H267919   3.231   3.924   4.022  0.6444  0.5380  0.5254
15502TIP3   OH267920   5.519   1.331   0.327 -0.4840 -0.1602  0.1670
15502TIP3    H167921   5.612   1.337   0.303 -0.7081  0.0626 -0.6971
15502TIP3    H267922   5.498   1.239   0.319 -0.6740 -0.0276 -1.0131
15503TIP3   OH267923   2.065   5.166   3.710  0.5626  0.5301  0.2481
15503TIP3    H167924   2.092   5.080   3.742  1.4468  1.3459  1.8389
15503TIP3    H267925   2.110   5.228   3.767 -0.2935  2.0605 -0.6581
15504TIP3   OH267926   4.279   1.995   0.047  0.6221  0.4326  0.1136
15504TIP3    H167927   4.311   2.085   0.038  1.7283  0.0292 -0.2447
15504TIP3    H267928   4.326   1.961   0.124  4.1677 -1.3516 -2.5028
15505TIP3   OH267929   4.571   6.592  17.084 -0.1856  0.8142 -0.3263
15505TIP3    H167930   4.640   6.658  17.081  1.2167 -0.6025 -1.6986
15505TIP3    H267931   4.489   6.641  17.077  0.5692  2.6147  2.0859
15506TIP3   OH267932   6.637   1.308  13.316 -0.4197  0.1828 -0.0406
15506TIP3    H167933   6.623   1.336  13.226  0.2125  0.2437 -0.1235
15506TIP3    H267934   6.595   1.222  13.321  1.5363 -0.8998 -1.0663
15507TIP3   OH267935   5.759   6.603  13.398  0.0784 -0.1274 -0.2602
15507TIP3    H167936   5.740   6.533  13.334  1.7782  0.1345 -1.1166
15507TIP3    H267937   5.779   6.556  13.479 -0.3964 -0.5650 -0.3923
15508TIP3   OH267938   4.990   4.526  14.634 -0.3009 -0.1032 -0.1100
15508TIP3    H167939   4.937   4.574  14.698 -0.5308 -0.0774 -0.3187
15508TIP3    H267940   4.965   4.434  14.647 -0.9356 -0.0216 -0.7001
15509TIP3   OH267941   2.059   1.921  14.313 -0.0510  0.2382  0.8441
15509TIP3    H167942   1.971   1.957  14.304 -0.3090  0.1826  2.8397
15509TIP3    H267943   2.078   1.925  14.406  0.9193 -2.4300  0.8504
15510TIP3   OH267944   2.713   2.664   0.630  0.4596 -0.0153  0.1476
15510TIP3    H167945   2.795   2.710   0.614  0.4588  0.5044  1.4591
15510TIP3    H267946   2.646   2.724   0.597  0.6246 -1.1198 -2.3832
15511TIP3   OH267947   6.067   1.157  12.753  0.7960  0.2448 -0.0218
15511TIP3    H167948   6.161   1.162  12.768  0.7554  1.9128 -0.1065
15511TIP3    H267949   6.058   1.159  12.658  0.6525  1.4935 -0.0002
15512TIP3   OH267950   0.703   5.576  15.778 -0.8687 -0.3528 -0.1094
15512TIP3    H167951   0.788   5.534  15.767 -0.5937  0.1840 -0.0966
15512TIP3    H267952   0.698   5.639  15.706 -0.5461  0.7544  0.7989
15513TIP3   OH267953   3.229   0.089  15.698  0.0886 -0.0553  0.2536
15513TIP3    H167954   3.186   0.172  15.679 -1.5159 -0.2100  2.7226
15513TIP3    H267955   3.166   0.022  15.672  0.5023 -0.4276  0.2006
15514TIP3   OH267956   5.660   2.569   2.351  0.2364 -0.2544  0.1260
15514TIP3    H167957   5.626   2.646   2.306  0.8163  0.0414  0.1921
15514TIP3    H267958   5.749   2.592   2.376  0.7896 -1.2967 -0.7621
15515TIP3   OH267959   4.735   4.900   2.977  0.2400  0.2303 -0.3962
15515TIP3    H167960   4.798   4.934   3.041  0.4311  1.1183 -1.0444
15515TIP3    H267961   4.724   4.808   3.001  2.3864 -0.1692 -0.7314
15516TIP3   OH267962   3.318   5.645  14.923 -0.0262 -0.9765 -0.2021
15516TIP3    H167963   3.256   5.717  14.929  0.0330 -0.9892  0.6143
15516TIP3    H267964   3.300   5.604  14.838  0.2369  0.2653 -0.8766
15517TIP3   OH267965   0.443   2.204  11.870  0.7091 -0.2282  0.2755
15517TIP3    H167966   0.412   2.287  11.835  1.5035  0.4427  1.0975
15517TIP3    H267967   0.376   2.178  11.934  0.8982  0.2446  0.6698
15518TIP3   OH267968   1.417   5.266  14.587 -0.2227 -0.2724 -0.1241
15518TIP3    H167969   1.465   5.263  14.504 -0.0842  1.3957 -0.1293
15518TIP3    H267970   1.355   5.337  14.576 -1.3848 -1.1368  0.6067
15519TIP3   OH267971   6.011   1.834   3.771  0.0053  0.3482  0.2724
15519TIP3    H167972   6.045   1.820   3.682  2.5749  0.5480  1.1171
15519TIP3    H267973   5.943   1.768   3.781  0.6804 -0.6836 -1.3636
15520TIP3   OH267974   6.737   2.708   0.685 -0.1590  0.1030 -0.1357
15520TIP3    H167975   6.710   2.790   0.727 -0.2170 -0.8750  1.8276
15520TIP3    H267976   6.790   2.664   0.750 -0.4367 -1.6113 -1.0184
15521TIP3   OH267977   6.270   4.513   0.925 -0.3454 -0.1119 -0.1413
15521TIP3    H167978   6.262   4.425   0.888 -0.8319 -0.2350  0.2499
15521TIP3    H267979   6.304   4.566   0.853  0.5668 -0.7482 -0.1969
15522TIP3   OH267980   3.074   0.849   2.622 -0.2006  0.1825  0.8365
15522TIP3    H167981   3.137   0.791   2.579  1.7194  1.3267  1.9555
15522TIP3    H267982   3.127   0.923   2.653 -2.1555  1.3233  1.6169
15523TIP3   OH267983   2.122   4.851  10.990 -0.2783 -0.6220 -0.0786
15523TIP3    H167984   2.036   4.839  11.032  0.3381 -1.1407  1.0846
15523TIP3    H267985   2.173   4.901  11.054  0.2688 -0.2685 -0.7831
15524TIP3   OH267986   1.573   0.167   4.714  0.3879 -0.2972  0.0443
15524TIP3    H167987   1.638   0.162   4.643  1.1183  1.0726  0.5811
15524TIP3    H267988   1.492   0.137   4.673  1.0342 -0.6516 -1.0487
15525TIP3   OH267989   2.752   2.565  12.434  0.1917  0.6122  0.3245
15525TIP3    H167990   2.737   2.523  12.518  0.6128 -0.4461 -0.1038
15525TIP3    H267991   2.756   2.658  12.453  0.9872  0.3392  1.5816
15526TIP3   OH267992   3.341   5.719   6.414  0.1911 -0.2144 -0.2530
15526TIP3    H167993   3.408   5.740   6.348  0.9272 -0.4764  0.3995
15526TIP3    H267994   3.357   5.782   6.485 -0.7726  0.2479 -0.4250
15527TIP3   OH267995   1.820   5.016   1.497  0.0510 -0.6153 -0.0250
15527TIP3    H167996   1.735   5.028   1.540  0.2439 -2.3520  0.8915
15527TIP3    H267997   1.800   5.025   1.404 -0.6010  1.8507  0.2786
15528TIP3   OH267998   2.424   1.511   4.120 -0.5266  0.3009  0.5202
15528TIP3    H167999   2.394   1.570   4.189 -0.6304 -0.8360  1.4729
15528TIP3    H268000   2.453   1.432   4.166 -0.9250 -0.6280 -0.7556
15529TIP3   OH268001   1.158   5.401   0.484  0.2763 -0.5242 -0.4858
15529TIP3    H168002   1.134   5.318   0.444  0.0092 -0.3821 -0.6276
15529TIP3    H268003   1.076   5.436   0.518  0.5195 -0.6882  0.2784
15530TIP3   OH268004   3.224   0.513   4.840  0.4997 -0.3352 -0.2623
15530TIP3    H168005   3.316   0.488   4.851  0.4035 -1.1353 -1.1302
15530TIP3    H268006   3.191   0.522   4.929  0.5165 -3.6154  0.2174
15531TIP3   OH268007   5.325   1.968   1.644  0.6925 -0.8610  0.4376
15531TIP3    H168008   5.272   1.933   1.572 -0.6393  1.1349  0.3362
15531TIP3    H268009   5.262   2.019   1.697  2.2745  0.5646  1.0485
15532TIP3   OH268010   4.911   0.739   2.306 -0.3620 -0.5526  0.0587
15532TIP3    H168011   4.860   0.660   2.320  0.6832 -1.4222 -0.8939
15532TIP3    H268012   5.002   0.714   2.325 -0.0274  0.4501 -0.1195
15533TIP3   OH268013   5.071   5.293  12.157  0.8696  0.2143  0.5273
15533TIP3    H168014   5.095   5.299  12.250  2.3551 -0.1880  0.1838
15533TIP3    H268015   5.149   5.259  12.114  0.3233  0.7600 -0.9433
15534TIP3   OH268016   4.041   3.556  12.868  0.1459 -0.1658  0.1488
15534TIP3    H168017   4.131   3.538  12.895  0.3092 -0.9748 -0.8485
15534TIP3    H268018   3.990   3.555  12.949  0.9467 -0.2438  0.6595
15535TIP3   OH268019   6.200   2.973   0.028  1.0563 -0.2317 -0.1739
15535TIP3    H168020   6.158   3.022  -0.043 -0.9809 -1.3646  0.1872
15535TIP3    H268021   6.129   2.948   0.086  2.6170  0.3007  2.1041
15536TIP3   OH268022   5.361   6.532   0.883  0.0739  0.1022 -0.1019
15536TIP3    H168023   5.323   6.517   0.969 -0.0281 -0.3202 -0.2178
15536TIP3    H268024   5.437   6.588   0.899 -1.3619  2.1416  0.0048
15537TIP3   OH268025   6.161   4.565  12.440  0.1456 -0.4860 -0.9691
15537TIP3    H168026   6.182   4.472  12.454  0.2295 -0.3230  0.0909
15537TIP3    H268027   6.221   4.593  12.371  1.8911 -0.6021  0.4360
15538TIP3   OH268028   5.727   4.077  13.102 -0.3632 -0.3608 -0.5447
15538TIP3    H168029   5.641   4.040  13.124 -1.8643  1.7835 -2.2924
15538TIP3    H268030   5.726   4.163  13.143  0.2910  0.2955 -1.8617
15539TIP3   OH268031   0.620   0.728  13.417  0.2087 -0.9718  0.0829
15539TIP3    H168032   0.685   0.786  13.377  0.3739 -1.4823 -0.3965
15539TIP3    H268033   0.547   0.728  13.355  0.2060 -1.2705  0.0867
15540TIP3   OH268034   3.094   0.868  12.269 -0.4818 -0.2270 -0.9483
15540TIP3    H168035   3.118   0.835  12.183 -0.9279  0.8646 -1.5007
15540TIP3    H268036   3.103   0.963  12.263  0.6866 -0.1885  0.5822
15541TIP3   OH268037   6.346   4.755   3.558  0.3556 -0.3286  0.2320
15541TIP3    H168038   6.410   4.769   3.489 -2.7652  2.4584 -2.4583
15541TIP3    H268039   6.324   4.844   3.589 -1.2582 -1.2357  1.9326
15542TIP3   OH268040   3.281   3.570   3.204 -0.2622  0.4829  0.4543
15542TIP3    H168041   3.362   3.524   3.227 -0.9147 -1.3139 -0.6237
15542TIP3    H268042   3.218   3.500   3.186 -2.4573  1.8095  2.4264
15543TIP3   OH268043   4.725   4.690  12.607 -0.0829 -0.0617 -0.1671
15543TIP3    H168044   4.670   4.727  12.676 -2.2913 -2.5635 -0.4501
15543TIP3    H268045   4.711   4.747  12.532 -0.4689  0.6261  0.4187
15544TIP3   OH268046   3.245   0.244   1.162 -0.2136  0.0449 -0.4335
15544TIP3    H168047   3.298   0.323   1.153 -0.8607  0.5667  0.2503
15544TIP3    H268048   3.214   0.226   1.073  0.9436 -0.1617 -0.8096
15545TIP3   OH268049   4.587   2.678  13.529 -0.6184  0.3996  0.5224
15545TIP3    H168050   4.631   2.661  13.612  0.2227 -0.6814 -0.1134
15545TIP3    H268051   4.536   2.599  13.512  0.1255  0.1180 -0.5224
15546TIP3   OH268052   2.283   2.572   3.744 -0.0381 -0.0879 -0.3623
15546TIP3    H168053   2.312   2.645   3.798 -0.8249  0.3775 -0.5527
15546TIP3    H268054   2.363   2.522   3.725  0.2958 -0.0941  0.9610
15547TIP3   OH268055   1.873   2.848  12.316 -0.0816  0.2363  0.1318
15547TIP3    H168056   1.814   2.921  12.335 -0.4200 -0.3534  1.4219
15547TIP3    H268057   1.958   2.889  12.304 -0.3701  0.9013  0.3039
15548TIP3   OH268058   1.424   3.105   2.360 -0.3565 -0.2605  0.6799
15548TIP3    H168059   1.421   3.108   2.456 -1.8089 -1.7070  0.7214
15548TIP3    H268060   1.336   3.129   2.332 -0.2407 -0.8674 -0.2523
15549TIP3   OH268061   6.009   4.334  11.966 -0.6335  0.2150 -0.4247
15549TIP3    H168062   6.030   4.272  12.035  1.3309 -0.5896 -1.6420
15549TIP3    H268063   5.972   4.410  12.011 -1.1969 -1.0211  1.2778
15550TIP3   OH268064   5.616   1.811  14.886 -0.4358  0.4876 -0.0770
15550TIP3    H168065   5.550   1.880  14.872 -0.2147  0.3455 -2.0491
15550TIP3    H268066   5.600   1.782  14.976 -1.4375  2.1552  0.3426
15551TIP3   OH268067   3.693   5.523   1.957 -0.6901 -0.4162 -0.1045
15551TIP3    H168068   3.644   5.599   1.987 -0.0580  0.4096 -1.0890
15551TIP3    H268069   3.627   5.463   1.923 -1.2380 -0.5454  1.1436
15552TIP3   OH268070   0.828   4.320  15.268  0.0168 -0.3369 -1.2611
15552TIP3    H168071   0.768   4.321  15.343  0.3960 -1.3072 -0.9332
15552TIP3    H268072   0.915   4.308  15.308  0.2391 -0.6783 -1.8468
15553TIP3   OH268073   2.220   1.800   1.507  0.0175  0.0791 -0.1026
15553TIP3    H168074   2.293   1.862   1.497  0.9716 -0.9677  0.0877
15553TIP3    H268075   2.226   1.744   1.430 -1.3493  0.7123 -0.6942
15554TIP3   OH268076   4.215   3.415   0.023  0.3043 -0.6280 -0.0131
15554TIP3    H168077   4.191   3.487   0.080  0.9355 -1.1308  0.9090
15554TIP3    H268078   4.300   3.441  -0.013  0.7132 -1.0597  0.6129
15555TIP3   OH268079   2.313   0.886  12.533 -0.1856 -0.2204 -0.0300
15555TIP3    H168080   2.307   0.871  12.439 -1.3111 -2.8458  0.3541
15555TIP3    H268081   2.263   0.966  12.548  1.8958  1.5424 -1.8390
15556TIP3   OH268082   2.255   1.279   6.005 -0.3108  0.0519 -0.8197
15556TIP3    H168083   2.252   1.314   6.094  0.8844 -3.1478  0.6445
15556TIP3    H268084   2.344   1.298   5.974 -0.1754 -0.2678 -0.6373
15557TIP3   OH268085   3.696   2.817  13.660 -0.2764  0.1767  0.0989
15557TIP3    H168086   3.669   2.895  13.612 -1.6297 -1.1876 -1.5334
15557TIP3    H268087   3.791   2.813  13.650 -0.2372  1.4126 -0.0980
15558TIP3   OH268088   2.439   5.935   5.623 -0.0668  0.0295 -0.7647
15558TIP3    H168089   2.480   6.018   5.648  0.7710 -0.4208 -0.5964
15558TIP3    H268090   2.354   5.960   5.586  0.0473  0.9361 -0.4371
15559TIP3   OH268091   1.486   6.430   5.857 -0.4192 -0.4691 -0.0859
15559TIP3    H168092   1.558   6.368   5.863  0.1645 -0.0215 -1.8417
15559TIP3    H268093   1.528   6.515   5.844 -1.2262 -0.2417 -1.4260
15560TIP3   OH268094   3.343   0.220  15.314  0.0278 -0.1464 -0.0888
15560TIP3    H168095   3.421   0.245  15.364  0.3289  3.1029 -1.9025
15560TIP3    H268096   3.269   0.253  15.366 -0.1024 -1.7133  0.7934
15561TIP3   OH268097   5.049   4.824  17.302  0.0089 -0.2595 -0.3183
15561TIP3    H168098   4.993   4.874  17.362  0.6349  0.9352 -0.7039
15561TIP3    H268099   5.074   4.886  17.234  0.5010 -1.2082 -1.0315
15562TIP3   OH268100   6.105   5.476  12.279  0.4762 -0.1209  0.1892
15562TIP3    H168101   6.161   5.406  12.314 -0.3752 -0.8920  0.0646
15562TIP3    H268102   6.060   5.435  12.205  0.4697  0.7781 -0.3105
15563TIP3   OH268103   3.449   0.475  15.815  0.1803  0.2215  0.5892
15563TIP3    H168104   3.389   0.541  15.850 -0.5889 -0.3035  0.2732
15563TIP3    H268105   3.430   0.472  15.721 -0.2623 -0.9076  0.6974
15564TIP3   OH268106   4.716   6.159  13.376  0.3074  0.2623 -0.4644
15564TIP3    H168107   4.659   6.091  13.342 -0.8891  1.5204 -1.1008
15564TIP3    H268108   4.785   6.168  13.311  0.6434 -0.5150 -0.2309
15565TIP3   OH268109   5.684   4.359   0.905 -0.5303 -0.0086 -0.3220
15565TIP3    H168110   5.671   4.352   1.000  0.1353  0.3492 -0.2003
15565TIP3    H268111   5.643   4.280   0.870  1.4192 -1.4586  0.4881
15566TIP3   OH268112   5.119   5.205   6.701  0.3716  0.6292 -0.1709
15566TIP3    H168113   5.156   5.151   6.771  2.0499  1.4599 -0.3468
15566TIP3    H268114   5.086   5.283   6.746  2.0837  1.4882 -0.2931
15567TIP3   OH268115   1.651   4.624  14.005  0.2635  0.1438  0.1363
15567TIP3    H168116   1.599   4.644  13.927 -1.3188 -1.3887  0.7580
15567TIP3    H268117   1.692   4.708  14.028 -2.4786  1.6151  0.0248
15568TIP3   OH268118   5.222   2.920   1.078  0.2313  0.8170 -0.0789
15568TIP3    H168119   5.170   2.980   1.132  1.7899  2.3861 -0.2120
15568TIP3    H268120   5.313   2.948   1.093  0.7757  0.7535 -2.8517
15569TIP3   OH268121   2.874   6.055  16.538 -0.4008 -0.0168  0.6178
15569TIP3    H168122   2.853   6.148  16.536  0.0954  0.0944 -0.6244
15569TIP3    H268123   2.789   6.011  16.543 -0.7028  0.4883  0.0816
15570TIP3   OH268124   4.480   6.116   2.703  0.0672  0.2779  0.5077
15570TIP3    H168125   4.389   6.141   2.719  0.0746 -0.1773  1.3016
15570TIP3    H268126   4.521   6.117   2.790  0.6539 -0.1530  0.2437
15571TIP3   OH268127   2.231   5.036  12.423 -0.1514 -0.2703 -0.3622
15571TIP3    H168128   2.318   5.013  12.456 -0.4125 -0.8713 -0.0962
15571TIP3    H268129   2.184   4.953  12.418 -1.2972  0.2384  1.1788
15572TIP3   OH268130   2.594   2.102   1.737  0.1299  0.1412 -0.2225
15572TIP3    H168131   2.542   2.093   1.657 -0.4363 -0.5817  0.2172
15572TIP3    H268132   2.563   2.032   1.794 -0.1068  1.1965  0.9971
15573TIP3   OH268133   1.689   5.149   2.853  0.1224 -0.3974 -0.0910
15573TIP3    H168134   1.616   5.100   2.889 -0.4263 -0.0006 -0.6500
15573TIP3    H268135   1.764   5.122   2.906 -0.3320 -1.1671  0.1733
15574TIP3   OH268136   3.152   3.107   5.406  0.0784  0.1172 -0.4440
15574TIP3    H168137   3.062   3.138   5.394  0.1666 -0.0416 -1.7284
15574TIP3    H268138   3.145   3.011   5.400  0.1441  0.0006  0.9888
15575TIP3   OH268139   4.765   4.157  13.582 -0.6047 -0.3398 -0.2438
15575TIP3    H168140   4.742   4.112  13.664  0.1314 -1.4141 -0.6068
15575TIP3    H268141   4.795   4.244  13.611 -2.4928  0.1401  0.4278
15576TIP3   OH268142   4.978   0.760   3.801  0.1982  0.0783  0.4205
15576TIP3    H168143   5.061   0.807   3.798 -1.3207  2.9753  0.3230
15576TIP3    H268144   4.944   0.777   3.888 -0.3505 -1.0632  0.4516
15577TIP3   OH268145   1.666   1.580   5.884  0.2156 -0.2058 -0.3035
15577TIP3    H168146   1.675   1.669   5.850 -1.8418 -0.5113 -1.8168
15577TIP3    H268147   1.592   1.585   5.944  1.8350 -0.3651  1.8053
15578TIP3   OH268148   3.478   5.280  16.197  0.2879 -0.1493 -0.3264
15578TIP3    H168149   3.391   5.319  16.199 -0.3871 -1.6003  0.9478
15578TIP3    H268150   3.475   5.210  16.263  2.2557 -0.5762 -0.6112
15579TIP3   OH268151   4.131   0.643  12.524 -0.2830 -0.1026 -0.3633
15579TIP3    H168152   4.094   0.557  12.545 -0.6223  0.4622  1.5482
15579TIP3    H268153   4.076   0.705  12.572  0.6053  1.0995 -0.8422
15580TIP3   OH268154   5.767   1.258   7.010  0.0435 -0.3070 -0.3030
15580TIP3    H168155   5.740   1.349   7.003  0.2139 -0.1592  0.7493
15580TIP3    H268156   5.690   1.208   6.984 -0.8926  0.1178  1.5013
15581TIP3   OH268157   5.496   0.490  10.961 -0.3299 -0.1987 -0.7437
15581TIP3    H168158   5.443   0.475  11.038  2.7975 -1.6235  1.3483
15581TIP3    H268159   5.461   0.569  10.922 -2.1665  0.4781  2.0440
15582TIP3   OH268160   4.810   3.702   1.358 -0.3000  0.2581  0.5768
15582TIP3    H168161   4.746   3.653   1.306  0.9916 -0.3629 -0.4993
15582TIP3    H268162   4.860   3.635   1.404  0.8834  0.5988 -0.1780
15583TIP3   OH268163   2.082   6.148   4.534  0.3950  0.1222  0.0954
15583TIP3    H168164   2.079   6.211   4.605  1.5114  0.8357 -0.4430
15583TIP3    H268165   2.143   6.080   4.564  3.0262  1.7606 -1.1056
15584TIP3   OH268166   3.379   0.014   1.246 -0.1267 -0.1980  0.5715
15584TIP3    H168167   3.375   0.108   1.233 -0.8305 -0.5386 -2.4744
15584TIP3    H268168   3.472  -0.005   1.256  0.0266  0.7883  1.1260
15585TIP3   OH268169   2.892   2.390   1.853  0.3838  0.3595 -0.2176
15585TIP3    H168170   2.956   2.453   1.820 -1.3958  1.9463 -0.8652
15585TIP3    H268171   2.863   2.426   1.936  0.5026 -0.4682  0.1909
15586TIP3   OH268172   0.531   1.831  10.936  0.3072 -0.3366 -0.3794
15586TIP3    H168173   0.563   1.854  11.023  0.8312 -1.4668 -0.2592
15586TIP3    H268174   0.477   1.906  10.910  1.1916  0.5981  0.3708
15587TIP3   OH268175   2.227   5.282  16.801 -0.1298 -0.3865 -0.0528
15587TIP3    H168176   2.260   5.348  16.741 -1.8470  1.1863  0.6413
15587TIP3    H268177   2.305   5.248  16.845  0.7533  1.5834 -0.0241
15588TIP3   OH268178   4.623   3.102  11.934  0.2962 -0.3344  0.5544
15588TIP3    H168179   4.683   3.067  12.001  0.6519  0.4561  0.6681
15588TIP3    H268180   4.670   3.090  11.852  0.3226 -0.3356  0.5691
15589TIP3   OH268181   2.523   2.388  15.696 -0.3033  0.3443 -0.2285
15589TIP3    H168182   2.601   2.438  15.719 -0.9582  1.4591 -0.3627
15589TIP3    H268183   2.539   2.356  15.607  1.4746 -2.4701  0.9553
15590TIP3   OH268184   1.148   1.199   1.402  0.5167 -0.3336 -0.1564
15590TIP3    H168185   1.205   1.160   1.336 -1.2703  0.1186 -2.0898
15590TIP3    H268186   1.160   1.145   1.479  2.0752 -1.4109 -1.0982
15591TIP3   OH268187   5.350   2.774  16.808 -0.5363 -0.3339  0.1001
15591TIP3    H168188   5.356   2.870  16.810 -1.9278 -0.2340  0.6870
15591TIP3    H268189   5.403   2.749  16.733 -0.0283  0.8914  0.0180
15592TIP3   OH268190   6.194   1.923  12.584  0.6762 -0.3284  0.2972
15592TIP3    H168191   6.106   1.959  12.581  0.1238 -1.6762 -1.2139
15592TIP3    H268192   6.248   1.992  12.622 -0.3787  1.9121 -2.0313
15593TIP3   OH268193   5.419   3.763  12.039  0.5136  0.6597  0.4591
15593TIP3    H168194   5.371   3.684  12.063  0.0698  1.3764  2.0129
15593TIP3    H268195   5.351   3.829  12.025  0.9799  1.8244  3.1982
15594TIP3   OH268196   3.063   5.811   6.332  0.0167 -0.5749 -0.2004
15594TIP3    H168197   3.001   5.837   6.400 -0.7492 -0.2170 -1.0128
15594TIP3    H268198   3.147   5.848   6.360 -0.6631  1.2074 -0.3670
15595TIP3   OH268199   1.824   5.783   1.382 -0.1487 -0.3000 -0.1203
15595TIP3    H168200   1.747   5.730   1.363 -0.1398 -0.9763  1.5795
15595TIP3    H268201   1.895   5.720   1.396 -0.0297  0.1480  1.4669
15596TIP3   OH268202   3.291   0.679  10.924  0.0421 -0.4472  0.5041
15596TIP3    H168203   3.371   0.726  10.899 -1.6712  2.1629 -0.6073
15596TIP3    H268204   3.239   0.744  10.971 -0.8450 -2.5298  2.5616
15597TIP3   OH268205   2.653   3.125   1.701  0.8521 -0.0697  0.3637
15597TIP3    H168206   2.567   3.082   1.699  0.2996  1.0145 -0.1247
15597TIP3    H268207   2.635   3.215   1.675  1.9594  0.4977  1.4401
15598TIP3   OH268208   3.858   3.013   2.570  0.1419  0.5896  0.2318
15598TIP3    H168209   3.915   3.078   2.610  1.1865  0.8711 -1.5874
15598TIP3    H268210   3.912   2.971   2.503 -1.1189 -0.7526 -0.0157
15599TIP3   OH268211   4.750   6.260  15.129  0.2425 -0.0007 -0.3688
15599TIP3    H168212   4.731   6.282  15.220  0.0241  0.2481 -0.4754
15599TIP3    H268213   4.827   6.203  15.134  2.4360  2.7256 -0.2191
15600TIP3   OH268214   0.525   5.965  15.214 -0.1624 -0.7949  0.2148
15600TIP3    H168215   0.539   6.047  15.167 -1.3483 -0.5188  0.3174
15600TIP3    H268216   0.612   5.926  15.219  0.7207  1.1619  1.4930
15601TIP3   OH268217   3.609   0.243  16.045  0.3818  0.2786 -0.0020
15601TIP3    H168218   3.639   0.328  16.014 -0.6141  0.8095  0.4274
15601TIP3    H268219   3.570   0.261  16.131  1.1968 -0.8046  0.6332
15602TIP3   OH268220   4.379   6.122   4.125 -0.2676 -0.4671 -0.2302
15602TIP3    H168221   4.405   6.135   4.033  0.7844  0.5805  0.1809
15602TIP3    H268222   4.286   6.100   4.121 -0.1300 -0.8867 -1.5757
15603TIP3   OH268223   2.957   3.872   4.653 -0.5423  0.2125  0.3662
15603TIP3    H168224   2.927   3.940   4.713 -1.7260 -0.5235  0.6497
15603TIP3    H268225   2.893   3.801   4.664  1.4618 -1.5754  1.2029
15604TIP3   OH268226   2.710   5.835   0.494  0.1694 -0.0335 -0.0377
15604TIP3    H168227   2.670   5.920   0.517  1.9891  0.9426 -0.2830
15604TIP3    H268228   2.733   5.844   0.401  1.9297 -0.1058  0.3575
15605TIP3   OH268229   2.973   2.860   1.056  0.1427 -0.7257 -0.2310
15605TIP3    H168230   2.944   2.782   1.103  1.5810 -0.9895  0.2640
15605TIP3    H268231   2.894   2.894   1.015 -0.9534 -1.1007  1.4747
15606TIP3   OH268232   6.218   4.414  15.740  0.1149 -0.1494 -0.0536
15606TIP3    H168233   6.274   4.383  15.811  0.3624 -1.1397 -0.6535
15606TIP3    H268234   6.224   4.345  15.674  0.4647  1.1061 -1.3489
15607TIP3   OH268235   0.615   5.571   0.802 -0.0981  0.2805  0.3143
15607TIP3    H168236   0.548   5.637   0.790  0.2134  0.6687  0.6740
15607TIP3    H268237   0.698   5.619   0.796  0.1444 -0.1622  0.0451
15608TIP3   OH268238   1.797   3.815  11.669  0.2421 -0.1039 -0.2185
15608TIP3    H168239   1.792   3.769  11.753  1.2497  0.2837  0.0636
15608TIP3    H268240   1.762   3.753  11.606 -0.2401 -0.5179  0.4351
15609TIP3   OH268241   1.640   5.743  12.325  0.6394  0.0691  0.1246
15609TIP3    H168242   1.680   5.718  12.408 -2.1445 -1.2625  1.1847
15609TIP3    H268243   1.605   5.662  12.290 -1.9176  1.2468 -0.2273
15610TIP3   OH268244   5.944   2.890   3.095 -0.1018 -0.4355  0.2143
15610TIP3    H168245   5.932   2.845   3.178  1.0600 -1.6111 -0.2093
15610TIP3    H268246   5.981   2.975   3.118 -0.0403 -0.6481  0.9055
15611TIP3   OH268247   2.616   5.622   3.670  0.6631 -0.4596 -0.1486
15611TIP3    H168248   2.628   5.624   3.765  0.9677  0.7946 -0.2013
15611TIP3    H268249   2.550   5.554   3.657 -0.3469  0.2200  1.0823
15612TIP3   OH268250   2.733   2.762   2.612  0.0250  0.3718  0.0124
15612TIP3    H168251   2.668   2.734   2.677 -1.3705  0.8393 -1.1138
15612TIP3    H268252   2.724   2.857   2.609 -0.0349  0.3440 -0.9575
15613TIP3   OH268253   6.349   5.097  15.560  0.2949 -0.0979  0.0326
15613TIP3    H168254   6.342   5.008  15.593 -0.3705 -0.0948 -0.0879
15613TIP3    H268255   6.443   5.113  15.554  0.4572 -1.3180 -1.3668
15614TIP3   OH268256   0.117   1.629  15.099  0.2611  0.0892  0.0865
15614TIP3    H168257   0.140   1.665  15.014  0.4765 -0.1406  0.0442
15614TIP3    H268258   0.140   1.698  15.161 -0.1945  0.3821 -0.0627
15615TIP3   OH268259   0.293   5.182  14.231 -0.2419 -0.0079  0.3520
15615TIP3    H168260   0.313   5.104  14.180  0.7278  0.6919 -0.3635
15615TIP3    H268261   0.197   5.187  14.230 -0.2461  0.3539 -1.9907
15616TIP3   OH268262   2.220   2.385  13.483 -0.5082 -0.4344  0.0752
15616TIP3    H168263   2.141   2.439  13.472 -0.7696 -1.0695 -1.4274
15616TIP3    H268264   2.239   2.390  13.577 -1.3594  1.0812  0.2057
15617TIP3   OH268265   1.452   1.371   3.494 -0.2087  0.3803  0.2575
15617TIP3    H168266   1.477   1.425   3.569 -0.6640  0.6166  0.2420
15617TIP3    H268267   1.358   1.356   3.504 -0.2581  0.3376 -0.2153
15618TIP3   OH268268   4.325   4.991  16.728  0.4366  0.4150  0.7853
15618TIP3    H168269   4.242   5.035  16.748 -0.0584 -0.4324  0.6559
15618TIP3    H268270   4.379   5.005  16.806  0.1267  0.8670  0.9237
15619TIP3   OH268271   5.870   1.089   0.205 -0.0556  0.5563 -0.3545
15619TIP3    H168272   5.953   1.133   0.186 -0.0037  0.0365 -1.4013
15619TIP3    H268273   5.812   1.159   0.233  1.0757  0.7599  1.6675
15620TIP3   OH268274   3.801   1.951  15.333  0.4382 -0.0710  0.1500
15620TIP3    H168275   3.783   1.953  15.427 -0.8280 -0.2750 -0.0778
15620TIP3    H268276   3.885   1.997  15.325 -0.4070  1.7711  1.1688
15621TIP3   OH268277   0.340   4.099  14.784 -0.0375 -0.8078  0.4277
15621TIP3    H168278   0.406   4.031  14.797 -0.6838 -1.4367  0.4844
15621TIP3    H268279   0.262   4.065  14.828 -0.6474 -0.4767 -0.3748
15622TIP3   OH268280   5.433   1.190   6.381  0.2566  0.0716  0.5448
15622TIP3    H168281   5.368   1.261   6.387 -0.7860 -0.9675  3.2686
15622TIP3    H268282   5.415   1.135   6.457  1.7283 -2.5648 -0.8893
15623TIP3   OH268283   4.207   0.986  11.802  0.5607 -0.2828 -0.2495
15623TIP3    H168284   4.247   0.907  11.766 -0.1952 -1.5370  1.4978
15623TIP3    H268285   4.125   0.956  11.840 -0.1313  1.5100 -0.2431
15624TIP3   OH268286   4.846   3.190   1.058  0.0736  0.5589 -0.0383
15624TIP3    H168287   4.762   3.234   1.049 -0.1977 -0.2735 -2.0536
15624TIP3    H268288   4.866   3.157   0.970  2.0215 -0.1422  0.6064
15625TIP3   OH268289   2.202   6.690   1.022  0.3118  0.1331 -0.1563
15625TIP3    H168290   2.240   6.752   1.084  1.2731  0.7681 -1.3461
15625TIP3    H268291   2.250   6.608   1.038  1.8212  0.7692 -1.2355
15626TIP3   OH268292   5.613   6.212   4.271  0.0495 -1.1543  0.4990
15626TIP3    H168293   5.581   6.264   4.345 -0.9136 -1.3452  0.2341
15626TIP3    H268294   5.533   6.182   4.227  0.5825  0.1003 -1.4262
15627TIP3   OH268295   5.535   3.448  16.682  0.9465  0.4867 -0.2415
15627TIP3    H168296   5.625   3.440  16.650  1.1573  1.4768  0.0875
15627TIP3    H268297   5.544   3.481  16.771  0.3322 -1.3840  0.5750
15628TIP3   OH268298   3.412   4.129  15.257 -0.3032  0.0265  0.2944
15628TIP3    H168299   3.322   4.154  15.235 -0.2279 -0.5859 -0.7659
15628TIP3    H268300   3.461   4.211  15.254 -0.5272  0.1362 -0.6947
15629TIP3   OH268301   5.785   5.129  17.267 -0.0053  0.2232  0.1430
15629TIP3    H168302   5.811   5.059  17.328 -0.2237 -0.3946 -0.4597
15629TIP3    H268303   5.690   5.127  17.267 -0.0053 -0.0186 -0.4816
15630TIP3   OH268304   2.700   5.140  17.305 -0.0030  0.1652 -0.1277
15630TIP3    H168305   2.711   5.169  17.395 -0.9069 -1.0553  0.4109
15630TIP3    H268306   2.635   5.200  17.268  1.5440  1.6782 -0.5038
15631TIP3   OH268307   4.591   5.991  15.142 -0.8407 -0.4409 -0.0836
15631TIP3    H168308   4.550   6.034  15.217 -0.1350 -0.4387  0.3170
15631TIP3    H268309   4.560   5.901  15.145 -3.7398  0.3644 -1.9457
15632TIP3   OH268310   4.239   5.552   2.521 -0.3657 -0.1772  0.0538
15632TIP3    H168311   4.182   5.508   2.585 -2.1628 -2.4865 -2.8509
15632TIP3    H268312   4.318   5.498   2.519 -0.4252 -0.2691  0.1507
15633TIP3   OH268313   0.208   5.053   0.424 -0.0781  0.1279  0.1093
15633TIP3    H168314   0.133   5.097   0.465  0.2446 -2.0024  3.3458
15633TIP3    H268315   0.170   4.980   0.375 -0.2160 -0.5303  1.1660
15634TIP3   OH268316   1.752   0.037  15.794  0.2769 -0.3301  0.5702
15634TIP3    H168317   1.717  -0.051  15.781  1.2685 -0.4174 -1.9976
15634TIP3    H268318   1.772   0.040  15.888 -1.6624 -2.0698  1.1384
15635TIP3   OH268319   0.958   0.513  10.770  0.0120 -0.5236  0.5379
15635TIP3    H168320   0.972   0.420  10.787  0.9884 -0.5416 -0.2362
15635TIP3    H268321   0.872   0.518  10.730  0.5798 -1.3033 -0.8318
15636TIP3   OH268322   1.014   1.932  16.851  0.0799 -0.1196 -0.3253
15636TIP3    H168323   0.989   1.997  16.785 -3.1015 -1.4918 -0.6596
15636TIP3    H268324   0.948   1.939  16.919  0.2900 -2.1997  0.1810
15637TIP3   OH268325   2.333   3.056   5.802 -0.1999 -0.0844  1.1741
15637TIP3    H168326   2.427   3.046   5.818  0.3242  3.8088  1.6105
15637TIP3    H268327   2.327   3.130   5.741 -2.9492 -2.4542 -1.7423
15638TIP3   OH268328   3.975   0.743  15.690 -0.5703 -0.6754 -0.4734
15638TIP3    H168329   3.908   0.724  15.755  1.2847  0.2222  1.8970
15638TIP3    H268330   3.957   0.833  15.663 -0.2235 -0.3412  0.3589
15639TIP3   OH268331   2.741   5.806  12.430 -0.0995 -0.0595  0.5103
15639TIP3    H168332   2.649   5.783  12.442 -0.9440  3.1192  1.0399
15639TIP3    H268333   2.775   5.811  12.520  0.9147 -2.0988  0.2939
15640TIP3   OH268334   5.464   5.935  15.457 -0.5823  0.6576 -0.0015
15640TIP3    H168335   5.441   5.955  15.548 -0.0266  2.3750 -0.1970
15640TIP3    H268336   5.500   5.847  15.460  0.2814  1.0128  1.6233
15641TIP3   OH268337   3.880   1.089  14.811 -0.6020  0.0818 -0.0652
15641TIP3    H168338   3.891   0.994  14.817 -1.0350  0.0647  0.5549
15641TIP3    H268339   3.818   1.110  14.881  0.3756  0.9658  0.5585
15642TIP3   OH268340   6.514   1.051  12.958 -0.6248  0.7804  0.1332
15642TIP3    H168341   6.474   1.007  13.032 -0.1543  1.3686  0.7486
15642TIP3    H268342   6.441   1.095  12.914 -1.4427 -2.0799 -1.6172
15643TIP3   OH268343   1.883   1.161   3.361  0.2123 -0.2035 -0.2031
15643TIP3    H168344   1.809   1.215   3.336 -0.5700 -0.4975  1.3213
15643TIP3    H268345   1.849   1.072   3.360  0.0259 -0.2148  2.0335
15644TIP3   OH268346   2.202   6.020  10.878 -0.2389 -0.1790  0.0638
15644TIP3    H168347   2.267   6.078  10.839 -1.1235 -0.3055 -1.6876
15644TIP3    H268348   2.253   5.948  10.915  0.6488  0.1157 -0.5575
15645TIP3   OH268349   6.525   2.038   5.626 -0.8160  0.0692  0.3483
15645TIP3    H168350   6.605   2.073   5.586 -0.7588 -0.6060 -0.1485
15645TIP3    H268351   6.468   2.114   5.636  0.1572  0.6834  1.3745
15646TIP3   OH268352   1.050   6.066   1.193  0.3741  0.0674  0.0197
15646TIP3    H168353   0.966   6.053   1.237 -0.0226  0.6632 -0.5355
15646TIP3    H268354   1.115   6.042   1.258 -0.1957  1.1569  1.0239
15647TIP3   OH268355   1.437   1.258  15.687 -0.4979 -0.0039 -0.1694
15647TIP3    H168356   1.433   1.319  15.613  1.7246  1.1867  0.5938
15647TIP3    H268357   1.525   1.220  15.681 -1.0456 -1.4969  0.6638
15648TIP3   OH268358   6.261   5.690   1.275  0.4210 -0.1352 -0.1954
15648TIP3    H168359   6.256   5.691   1.370  2.2969  1.0304 -0.0723
15648TIP3    H268360   6.313   5.612   1.255  2.4088  1.0879 -0.0569
15649TIP3   OH268361   5.640   3.393  16.285 -0.0845 -0.3505  0.2951
15649TIP3    H168362   5.713   3.384  16.224  1.0144 -0.0117  1.5276
15649TIP3    H268363   5.563   3.407  16.229  1.1026  1.4506 -0.9956
15650TIP3   OH268364   4.321   1.865  14.441 -0.2611  0.2211 -0.5187
15650TIP3    H168365   4.251   1.805  14.415 -0.9727  0.6376  0.3642
15650TIP3    H268366   4.321   1.933  14.374 -1.3737  0.7389 -0.0253
15651TIP3   OH268367   1.139   2.696   2.744 -0.4706  0.1567  0.5350
15651TIP3    H168368   1.198   2.771   2.731  0.8435 -0.2783  3.1483
15651TIP3    H268369   1.051   2.733   2.736  0.1271  2.1266  2.0504
15652TIP3   OH268370   5.538   4.411  12.202  0.3964 -0.2509  0.1622
15652TIP3    H168371   5.533   4.419  12.106 -0.5058 -0.0081  0.2267
15652TIP3    H268372   5.474   4.474  12.234  0.9128 -0.1119  0.9447
15653TIP3   OH268373   5.345   1.061  12.895 -0.1179 -0.1943 -0.3325
15653TIP3    H168374   5.410   1.111  12.845  1.0842 -0.7132  0.6447
15653TIP3    H268375   5.335   0.979  12.847 -0.1804 -0.0396 -0.5830
15654TIP3   OH268376   3.411   4.618  15.216 -0.1128  0.0924 -0.3377
15654TIP3    H168377   3.372   4.654  15.295 -1.5594 -1.1567 -0.4586
15654TIP3    H268378   3.339   4.616  15.153  0.3371 -1.5085 -0.8229
15655TIP3   OH268379   6.557   5.227   4.588 -0.2677 -0.5475  0.6360
15655TIP3    H168380   6.607   5.232   4.506 -0.0481 -0.3604  0.7792
15655TIP3    H268381   6.598   5.155   4.636 -0.3322 -0.5922  0.6228
15656TIP3   OH268382   4.910   4.947   5.907 -0.0336 -0.0117  0.1445
15656TIP3    H168383   4.987   4.894   5.886 -0.1374 -0.1440  0.0910
15656TIP3    H268384   4.865   4.897   5.975  0.1996  0.3187  0.5467
15657TIP3   OH268385   5.653   1.964   4.804  0.1393 -0.6962  0.1894
15657TIP3    H168386   5.644   1.880   4.760 -0.0602 -0.3861 -0.3667
15657TIP3    H268387   5.715   2.013   4.750 -0.0717 -0.3321  0.2755
15658TIP3   OH268388   1.394   0.334   3.337 -0.1938  0.2992  0.0628
15658TIP3    H168389   1.456   0.391   3.381 -0.6206  1.3115 -0.6109
15658TIP3    H268390   1.391   0.255   3.391  0.0563  1.0940  1.2621
15659TIP3   OH268391   2.261   5.001   4.820  0.2758 -0.0198  0.1287
15659TIP3    H168392   2.313   5.042   4.750 -1.2011  0.5447 -0.6890
15659TIP3    H268393   2.313   4.925   4.847  0.5382 -0.7764 -2.2060
15660TIP3   OH268394   0.020   6.401   5.342  0.2238 -0.0717 -0.2701
15660TIP3    H168395   0.036   6.487   5.382  0.8446 -1.1100  1.9040
15660TIP3    H268396  -0.022   6.351   5.411 -1.7238 -1.0532 -2.0612
15661TIP3   OH268397   5.526   5.908   6.816  0.4377 -0.2200 -0.4014
15661TIP3    H168398   5.600   5.965   6.835  1.0230 -0.3869 -2.0253
15661TIP3    H268399   5.449   5.958   6.841  1.0165  0.7179 -0.4676
15662TIP3   OH268400   3.627   4.466  16.117 -0.0151 -0.2325  0.0983
15662TIP3    H168401   3.621   4.443  16.025 -0.5335 -3.8053  0.8632
15662TIP3    H268402   3.720   4.454  16.139 -0.1317 -0.7649  0.3169
15663TIP3   OH268403   5.815   3.219  13.401  0.1821  0.4329 -0.1283
15663TIP3    H168404   5.789   3.142  13.349  0.9417  0.2528 -0.2580
15663TIP3    H268405   5.768   3.208  13.484 -0.2935  0.2180 -0.4175
15664TIP3   OH268406   1.020   6.250  13.477 -0.3364  0.1739 -0.1562
15664TIP3    H168407   1.115   6.236  13.483 -0.5633 -1.1319  0.6258
15664TIP3    H268408   1.004   6.327  13.531  0.1373 -0.2983  0.6813
15665TIP3   OH268409   6.502   0.492  16.187  0.0023 -0.7357  0.1613
15665TIP3    H168410   6.417   0.455  16.209 -0.0917 -0.7585 -0.2311
15665TIP3    H268411   6.523   0.549  16.262  0.3728 -1.9350  0.9893
15666TIP3   OH268412   2.640   0.739  14.857 -0.2938 -0.0094 -0.0595
15666TIP3    H168413   2.670   0.687  14.782 -0.9711 -0.6403  0.1043
15666TIP3    H268414   2.718   0.788  14.884  0.0544 -0.0352 -0.9523
15667TIP3   OH268415   4.506   0.860  17.101 -0.0863  0.3058 -0.1563
15667TIP3    H168416   4.596   0.874  17.072 -0.2224  1.5967  0.0002
15667TIP3    H268417   4.515   0.817  17.186  0.3887  1.0458  0.1692
15668TIP3   OH268418   5.391   4.766   3.855  0.0513  0.4493 -0.1055
15668TIP3    H168419   5.474   4.719   3.855 -1.8726 -3.3940 -1.6451
15668TIP3    H268420   5.343   4.731   3.930 -1.1110  0.6571 -0.7224
15669TIP3   OH268421   3.430   3.374   6.283 -0.2310  0.0561 -0.1928
15669TIP3    H168422   3.498   3.432   6.318 -0.8638  0.2778  0.7075
15669TIP3    H268423   3.348   3.416   6.309 -0.7012 -1.3613  0.6658
15670TIP3   OH268424   4.995   3.601  14.152 -0.6056 -0.3692 -0.3413
15670TIP3    H168425   5.041   3.555  14.082  1.5261 -0.6670  1.1433
15670TIP3    H268426   5.063   3.651  14.196 -1.8911 -0.0592  1.4137
15671TIP3   OH268427   3.180   1.484   6.119  0.1162 -0.4773 -0.0978
15671TIP3    H168428   3.122   1.560   6.120  0.6147 -0.0642  2.3906
15671TIP3    H268429   3.123   1.410   6.097 -1.5566 -0.1642  2.7451
15672TIP3   OH268430   0.442   1.136  12.304  0.1883  0.1809 -0.0267
15672TIP3    H168431   0.464   1.228  12.290 -0.1111  0.2100 -0.3033
15672TIP3    H268432   0.435   1.127  12.399 -3.1191  1.2341 -0.0643
15673TIP3   OH268433   0.843   1.352  11.385  0.9079  0.1444  0.2974
15673TIP3    H168434   0.911   1.315  11.329  1.0245 -0.6431  0.9397
15673TIP3    H268435   0.789   1.277  11.410 -0.9756  0.9205 -1.2085
15674TIP3   OH268436   2.352   4.385   3.029  0.4697  0.3697  0.1851
15674TIP3    H168437   2.356   4.312   2.968  1.9197 -0.3918  1.1527
15674TIP3    H268438   2.437   4.429   3.020 -0.7724  2.7104 -1.2398
15675TIP3   OH268439   1.034   5.156   5.573 -0.0250  0.5860  0.3213
15675TIP3    H168440   1.096   5.227   5.557  0.3808  0.2522  0.4027
15675TIP3    H268441   1.026   5.112   5.489  2.0441 -1.1163  0.9373
15676TIP3   OH268442   2.568   4.141   4.995  0.3756  0.0339 -0.0386
15676TIP3    H168443   2.634   4.163   5.060  1.6120 -0.2353 -1.1636
15676TIP3    H268444   2.592   4.192   4.918 -0.6444 -0.1862 -0.5286
15677TIP3   OH268445   5.652   3.596  12.158  0.0106 -0.3896 -0.0503
15677TIP3    H168446   5.593   3.663  12.124 -0.8413 -0.3487  1.4148
15677TIP3    H268447   5.706   3.571  12.084 -0.5177  1.0092 -0.9359
15678TIP3   OH268448   0.541   3.361  13.747  0.6180  0.1055 -0.1932
15678TIP3    H168449   0.558   3.379  13.840 -1.9041 -2.5990  0.9324
15678TIP3    H268450   0.576   3.273  13.733  0.4648  0.2664 -1.6948
15679TIP3   OH268451   2.224   3.069  15.866 -0.6847 -0.0567  0.0049
15679TIP3    H168452   2.258   3.095  15.951  0.1880 -0.2361 -0.2781
15679TIP3    H268453   2.251   3.138  15.806  0.6131 -0.9751 -0.5229
15680TIP3   OH268454   5.111   5.960  15.774  0.1555 -0.4437  0.5463
15680TIP3    H168455   5.107   5.871  15.809  1.3453 -0.8135 -0.1722
15680TIP3    H268456   5.131   6.015  15.850  0.5220 -0.9469  0.8217
15681TIP3   OH268457   4.416   3.521  11.000  0.4059 -0.3690 -0.4432
15681TIP3    H168458   4.357   3.586  11.037  1.7376  1.2862 -1.0995
15681TIP3    H268459   4.360   3.463  10.949 -0.6516  1.2989 -1.2536
15682TIP3   OH268460   3.678   1.491   2.958 -0.5806 -0.3057 -0.0412
15682TIP3    H168461   3.704   1.399   2.955 -1.5335 -0.5621 -0.5640
15682TIP3    H268462   3.595   1.491   3.006 -1.4713  0.0604 -1.5235
15683TIP3   OH268463   3.984   6.558  11.853  0.0661  0.0173  0.2941
15683TIP3    H168464   4.008   6.509  11.774 -2.3886  0.5163 -0.8578
15683TIP3    H268465   4.066   6.567  11.901  1.3112 -1.8786 -1.3049
15684TIP3   OH268466   4.995   3.675   1.965 -0.6155  0.5173  0.4036
15684TIP3    H168467   4.978   3.624   1.886 -0.6025  3.1092 -1.4231
15684TIP3    H268468   4.913   3.720   1.983 -0.5428  0.1421  1.7637
15685TIP3   OH268469   0.435   0.331   1.009  0.9002 -0.1169 -0.2662
15685TIP3    H168470   0.486   0.335   1.090  0.8985 -0.1754 -0.2627
15685TIP3    H268471   0.445   0.418   0.971 -0.0788  0.3084  0.3982
15686TIP3   OH268472   4.410   6.268  16.681 -0.2907 -0.3141  0.2705
15686TIP3    H168473   4.474   6.201  16.658 -1.3114 -1.5065  0.7949
15686TIP3    H268474   4.451   6.315  16.754  0.6100 -0.0825 -0.3677
15687TIP3   OH268475   0.076   6.011   3.205 -0.1911 -0.0681 -0.0892
15687TIP3    H168476   0.080   5.984   3.297 -0.4366  0.2437  0.0144
15687TIP3    H268477  -0.016   6.033   3.191 -0.5187 -1.8345 -0.9061
15688TIP3   OH268478   4.145   1.478  15.511  0.5845  0.3453 -0.3836
15688TIP3    H168479   4.185   1.450  15.429  1.8959  0.9740  0.0118
15688TIP3    H268480   4.156   1.403  15.570 -1.0601 -0.4042 -0.9753
15689TIP3   OH268481   5.890   5.771  15.720 -0.0779  0.3768  0.1295
15689TIP3    H168482   5.908   5.677  15.727 -0.6996  0.2678  0.2656
15689TIP3    H268483   5.969   5.807  15.678  0.6835 -0.0134  1.1913
15690TIP3   OH268484   4.444   2.511  15.583  0.1559  0.0166  0.1376
15690TIP3    H168485   4.448   2.422  15.619  1.3966  0.0578  0.1186
15690TIP3    H268486   4.396   2.561  15.649 -0.4886 -0.6447  0.1812
15691TIP3   OH268487   6.516   5.388   0.264 -0.4337 -0.2887 -0.0103
15691TIP3    H168488   6.501   5.327   0.337 -0.2942  1.0442  1.1694
15691TIP3    H268489   6.543   5.469   0.306  3.9138 -0.6120 -1.6721
15692TIP3   OH268490   3.928   2.494   2.562 -0.2440  0.1993  0.4897
15692TIP3    H168491   3.874   2.533   2.631 -0.8881 -2.1622  1.4056
15692TIP3    H268492   3.958   2.411   2.599  2.3607  0.4562 -0.7806
15693TIP3   OH268493   3.996   6.340  16.656  0.4631 -0.8122 -0.0410
15693TIP3    H168494   3.932   6.399  16.615  1.2452 -0.1361 -0.3465
15693TIP3    H268495   3.957   6.315  16.739  0.5170  0.9650  0.5654
15694TIP3   OH268496   2.322   0.363  13.842 -0.0241  0.2005 -0.0761
15694TIP3    H168497   2.230   0.362  13.818 -0.0534  0.7694 -0.0075
15694TIP3    H268498   2.363   0.297  13.786 -0.6629 -0.8630  0.6901
15695TIP3   OH268499   5.047   5.073   0.242  0.0172 -0.4988  0.0753
15695TIP3    H168500   5.032   4.983   0.270 -0.1460 -0.5675 -0.2341
15695TIP3    H268501   5.135   5.072   0.205  0.1179 -0.4716  0.3096
15696TIP3   OH268502   4.777   0.625   0.137 -0.0143 -0.3748  0.4441
15696TIP3    H168503   4.681   0.616   0.138 -0.1560  0.7309 -0.5406
15696TIP3    H268504   4.805   0.600   0.225 -1.2242 -0.5644  0.7901
15697TIP3   OH268505   4.132   2.339   3.516 -0.4551  0.0427  0.2726
15697TIP3    H168506   4.143   2.266   3.578 -0.7590  1.8604  2.6037
15697TIP3    H268507   4.206   2.330   3.456  0.0889 -1.5980  1.1214
15698TIP3   OH268508   0.643   4.896   6.521  0.3046 -0.1103  0.1144
15698TIP3    H168509   0.656   4.840   6.445  1.0906  1.3154 -0.8489
15698TIP3    H268510   0.548   4.912   6.523  0.3027  0.0213 -0.7116
15699TIP3   OH268511   5.712   4.429   1.624 -0.0861 -0.4096  0.3591
15699TIP3    H168512   5.634   4.411   1.571  0.5838 -0.9026 -0.4956
15699TIP3    H268513   5.687   4.406   1.713 -0.8689 -0.7118  0.0687
15700TIP3   OH268514   0.185   4.497  16.308  0.6584  0.3327 -0.1422
15700TIP3    H168515   0.244   4.572  16.322  2.5935 -1.3105  1.0448
15700TIP3    H268516   0.111   4.515  16.366  0.8252  1.5693 -0.2676
15701TIP3   OH268517   1.968   1.457   1.283 -0.4879  0.6483 -0.0563
15701TIP3    H168518   1.923   1.372   1.288  0.2595  0.1772 -1.0299
15701TIP3    H268519   1.898   1.520   1.270 -0.8982 -0.0843 -1.6675
15702TIP3   OH268520   5.540   2.914   1.664 -0.0919  0.0681  0.0258
15702TIP3    H168521   5.479   2.897   1.592  0.0708 -1.7466  0.2737
15702TIP3    H268522   5.487   2.902   1.743  0.2568 -0.1730  0.2243
15703TIP3   OH268523   5.329   3.438  10.485  0.3080 -0.2140 -0.3947
15703TIP3    H168524   5.376   3.512  10.446 -0.5085 -0.4469 -1.8618
15703TIP3    H268525   5.382   3.361  10.461  1.2658 -0.1422  1.2960
15704TIP3   OH268526   6.433   5.381   3.321 -0.0908  0.3176 -0.4130
15704TIP3    H168527   6.356   5.360   3.268  0.5929 -2.0237 -0.5708
15704TIP3    H268528   6.507   5.365   3.262  0.5707  1.4439  0.0911
15705TIP3   OH268529   1.621   4.140   4.140 -0.4521 -0.0241 -0.2513
15705TIP3    H168530   1.693   4.148   4.077  0.0652  2.2361  0.5173
15705TIP3    H268531   1.554   4.201   4.108 -1.0399 -0.3786  0.2875
15706TIP3   OH268532   3.152   3.457   0.248 -0.5547 -0.0065 -0.2768
15706TIP3    H168533   3.229   3.514   0.249  0.3003 -1.0468  2.4119
15706TIP3    H268534   3.104   3.482   0.170  1.8604  1.5732 -1.3498
15707TIP3   OH268535   0.993   4.573   5.539 -0.1537 -0.0329 -0.1201
15707TIP3    H168536   1.014   4.596   5.629 -0.1149  0.4338 -0.2492
15707TIP3    H268537   0.944   4.491   5.546 -1.2730  0.6552  0.4144
15708TIP3   OH268538   3.889   0.756  12.690 -0.0944 -0.0859  0.3454
15708TIP3    H168539   3.834   0.681  12.713 -2.0454  0.8384 -1.0376
15708TIP3    H268540   3.878   0.765  12.595  0.8717  1.3750  0.3485
15709TIP3   OH268541   4.787   0.523  16.198 -0.0893 -0.5086  0.4277
15709TIP3    H168542   4.811   0.432  16.217 -0.3533 -0.5543  0.5389
15709TIP3    H268543   4.776   0.525  16.103 -0.7742 -0.7622  0.4944
15710TIP3   OH268544   1.700   6.231  16.567 -0.4213 -0.1613  0.0234
15710TIP3    H168545   1.674   6.296  16.502 -1.9011 -1.7687 -1.1001
15710TIP3    H268546   1.622   6.219  16.622 -0.4342 -1.4532 -0.2373
15711TIP3   OH268547   6.726   1.521   6.650  0.2421 -0.3304 -0.1325
15711TIP3    H168548   6.802   1.471   6.680  1.0143  1.1703  0.4872
15711TIP3    H268549   6.697   1.570   6.727 -0.5663  0.1182 -0.7062
15712TIP3   OH268550   2.009   4.154   3.475  0.0773 -0.1812 -0.1369
15712TIP3    H168551   1.941   4.217   3.451 -0.3916 -0.3331  0.7734
15712TIP3    H268552   2.075   4.207   3.521  0.3690 -0.1132 -0.6251
15713TIP3   OH268553   1.585   3.361  11.980  0.6649  0.2526 -0.2228
15713TIP3    H168554   1.581   3.277  11.933  1.0314  0.1204 -0.0246
15713TIP3    H268555   1.503   3.365  12.028 -0.0001  0.6821 -1.3614
15714TIP3   OH268556   4.337   4.941  15.806 -1.2074  0.5667  0.1891
15714TIP3    H168557   4.282   5.019  15.802  0.1468  1.5238 -0.4512
15714TIP3    H268558   4.420   4.968  15.766 -0.7947 -1.2754 -0.2994
15715TIP3   OH268559   0.203   1.147   3.876 -0.2589  0.6171  0.6092
15715TIP3    H168560   0.189   1.059   3.842 -1.0219  0.9197  0.1002
15715TIP3    H268561   0.284   1.141   3.927 -0.0930 -0.2817  0.2566
15716TIP3   OH268562   2.831   3.851  17.011 -0.4372  0.1671  0.4042
15716TIP3    H168563   2.811   3.901  17.090 -1.4687 -0.1236  0.3407
15716TIP3    H268564   2.749   3.809  16.987 -0.2803  0.6650 -1.1292
15717TIP3   OH268565   1.610   3.040   1.125 -0.5944  0.3065  0.4855
15717TIP3    H168566   1.535   2.983   1.138 -1.1445  1.1923  1.3256
15717TIP3    H268567   1.620   3.087   1.208  0.8105  0.2997  0.3465
15718TIP3   OH268568   4.585   6.246  12.477  0.0116 -0.2778 -0.0402
15718TIP3    H168569   4.567   6.245  12.383 -1.1841 -1.4642  0.1684
15718TIP3    H268570   4.536   6.171  12.512  1.4628 -0.6530  1.3479
15719TIP3   OH268571   3.549   2.679  15.404  0.0945  0.4032  0.2981
15719TIP3    H168572   3.624   2.718  15.449 -0.5776  1.1276  0.8083
15719TIP3    H268573   3.476   2.689  15.465 -1.0393  2.1342 -1.2213
15720TIP3   OH268574   1.390   0.948   4.082  0.3701  0.1994 -0.8066
15720TIP3    H168575   1.473   0.965   4.038  1.0514 -0.0613  0.3370
15720TIP3    H268576   1.410   0.880   4.146 -0.6581  0.3408 -0.3138
15721TIP3   OH268577   6.607   6.076  14.637  0.4955  0.1948  0.0706
15721TIP3    H168578   6.535   6.139  14.643  0.0680 -0.3419  0.7131
15721TIP3    H268579   6.598   6.021  14.715  1.5988  0.1025  0.1546
15722TIP3   OH268580   6.091   0.655   4.755  0.2440  0.3709  0.1192
15722TIP3    H168581   6.028   0.691   4.693  0.0238 -1.5604 -0.8512
15722TIP3    H268582   6.040   0.595   4.810  1.0355 -0.4468 -0.0149
15723TIP3   OH268583   1.380   2.181  16.767  0.0987  0.6543  0.9490
15723TIP3    H168584   1.423   2.202  16.684 -1.5341  2.0627  0.3903
15723TIP3    H268585   1.389   2.086  16.776  0.6987  0.5357 -0.6187
15724TIP3   OH268586   2.430   3.873   5.013 -0.5436 -0.8759  0.0804
15724TIP3    H168587   2.351   3.926   5.007 -0.1543 -0.3266 -0.3557
15724TIP3    H268588   2.502   3.936   5.004 -0.0541 -1.3583  0.5104
15725TIP3   OH268589   1.760   0.410   5.102 -0.3335 -0.0168  0.0528
15725TIP3    H168590   1.840   0.459   5.081  0.6021 -1.0959  0.9434
15725TIP3    H268591   1.772   0.325   5.059 -1.9751  0.5060 -1.5512
15726TIP3   OH268592   1.749   4.464  15.493 -0.5148 -0.3242  0.1051
15726TIP3    H168593   1.813   4.495  15.557 -0.1814 -0.2969 -0.2368
15726TIP3    H268594   1.801   4.443  15.415 -0.9180 -0.3279 -0.1686
15727TIP3   OH268595   6.643   3.121  14.629 -0.0874 -0.0026  0.4234
15727TIP3    H168596   6.709   3.120  14.559  0.6882  0.2891  1.1304
15727TIP3    H268597   6.692   3.098  14.708 -0.6263  1.1846  1.1316
15728TIP3   OH268598   3.253   6.203   6.350 -0.4350 -0.2007  0.1243
15728TIP3    H168599   3.195   6.279   6.338  0.7720  0.7903  0.3346
15728TIP3    H268600   3.339   6.241   6.369  0.6548 -1.5843 -1.7038
15729TIP3   OH268601   3.762   5.501  14.177 -0.0039 -0.1734  0.2815
15729TIP3    H168602   3.678   5.499  14.224 -0.5824  0.1436 -0.7082
15729TIP3    H268603   3.752   5.572  14.114 -0.2038 -2.1040 -1.9865
15730TIP3   OH268604   1.332   4.723  10.908  0.2826  0.1880 -0.8580
15730TIP3    H168605   1.420   4.705  10.873 -0.7577 -1.6228 -2.8117
15730TIP3    H268606   1.285   4.640  10.898 -2.0411  1.4531 -1.1745
15731TIP3   OH268607   0.815   2.352  16.151 -0.0396 -0.0513 -0.0008
15731TIP3    H168608   0.789   2.423  16.093 -0.1667 -0.6455 -0.6814
15731TIP3    H268609   0.786   2.272  16.107  1.0416 -0.6037  0.2327
15732TIP3   OH268610   5.852   3.181   2.876 -0.2236  0.0552  0.1128
15732TIP3    H168611   5.798   3.102   2.878 -0.5380  0.2569 -0.3692
15732TIP3    H268612   5.908   3.170   2.799  0.5413 -0.2247  0.6962
15733TIP3   OH268613   6.664   6.182  14.356  0.2304 -0.0802 -0.2479
15733TIP3    H168614   6.572   6.189  14.332  0.4140  0.5617 -0.7995
15733TIP3    H268615   6.665   6.127  14.434 -0.5267 -0.9080 -0.8069
15734TIP3   OH268616   6.393   0.113  14.277  0.1462  0.8181 -0.1659
15734TIP3    H168617   6.434   0.072  14.353  0.9121 -0.3380 -1.1850
15734TIP3    H268618   6.346   0.042  14.233 -0.4164  1.5032 -0.7056
15735TIP3   OH268619   0.171   3.954   0.853 -0.0965  0.3458 -0.4460
15735TIP3    H168620   0.214   3.904   0.784  0.8580  0.8339 -0.2277
15735TIP3    H268621   0.122   3.889   0.903  1.8176 -0.5588  0.3720
15736TIP3   OH268622   4.570   0.566  15.036 -0.0680 -0.2409  0.3018
15736TIP3    H168623   4.608   0.530  15.116  1.7105  0.4915 -0.1571
15736TIP3    H268624   4.594   0.658  15.037 -0.6247 -0.0664 -0.7315
15737TIP3   OH268625   2.792   2.533   3.875  0.2409 -0.1043 -0.2090
15737TIP3    H168626   2.784   2.617   3.830 -1.1122 -0.8541 -1.4499
15737TIP3    H268627   2.705   2.494   3.869  0.0773 -0.4450  2.7569
15738TIP3   OH268628   5.323   4.061  15.458  0.1631  0.6031 -0.7000
15738TIP3    H168629   5.267   4.005  15.404  0.2791 -0.2746  0.0686
15738TIP3    H268630   5.294   4.150  15.438 -1.0152  0.2021 -0.8584
15739TIP3   OH268631   0.504   2.022   2.510  0.3123  0.1494 -0.4272
15739TIP3    H168632   0.585   1.972   2.517  0.7608  0.9472  0.4830
15739TIP3    H268633   0.532   2.114   2.519 -0.4560  0.5960 -2.2263
15740TIP3   OH268634   2.571   1.661  13.761  0.2120  0.2986  0.1953
15740TIP3    H168635   2.640   1.704  13.811  0.0830 -0.6815  1.2588
15740TIP3    H268636   2.594   1.676  13.669  1.5413  0.4312  0.5331
15741TIP3   OH268637   4.816   0.120  16.641  0.3215  0.0115 -0.0602
15741TIP3    H168638   4.826   0.172  16.721  3.0098 -0.7041  0.1572
15741TIP3    H268639   4.724   0.132  16.616  0.1060  2.4858  1.5764
15742TIP3   OH268640   6.511   1.585  15.737  0.8202  0.2528  0.1195
15742TIP3    H168641   6.524   1.665  15.789 -0.6345  0.9793 -0.5687
15742TIP3    H268642   6.475   1.522  15.798 -1.1232  1.1830 -0.0081
15743TIP3   OH268643   4.896   1.421   5.102  0.2155  0.5205 -0.5258
15743TIP3    H168644   4.988   1.395   5.105 -0.0938 -0.6083 -0.3025
15743TIP3    H268645   4.857   1.364   5.035 -0.1442  1.5956 -1.2554
15744TIP3   OH268646   1.461   1.996  12.119  0.1696  0.5146  0.3769
15744TIP3    H168647   1.442   2.066  12.056 -1.7121  1.1042  1.5005
15744TIP3    H268648   1.552   2.010  12.145  0.9601  0.3215 -2.0606
15745TIP3   OH268649   1.241   1.370  16.807  0.3385 -0.0395 -0.1145
15745TIP3    H168650   1.218   1.411  16.891 -0.8959  0.2108 -0.5569
15745TIP3    H268651   1.207   1.281  16.814 -2.2427  0.7489 -1.3162
15746TIP3   OH268652   2.023   1.846  13.137 -0.4524  0.8682 -0.1367
15746TIP3    H168653   2.046   1.754  13.155  0.4384  1.3783  1.4987
15746TIP3    H268654   1.949   1.864  13.195 -0.9936  1.0561 -0.8585
15747TIP3   OH268655   0.561   1.624  12.361 -0.2488  0.2468 -0.3872
15747TIP3    H168656   0.642   1.642  12.408 -0.1591  0.2528 -0.5421
15747TIP3    H268657   0.507   1.703  12.374 -0.7077 -0.2197  0.6967
15748TIP3   OH268658   2.382   3.866   0.823 -0.2162 -0.3898  0.1539
15748TIP3    H168659   2.431   3.784   0.813 -0.8021 -0.9672  1.7820
15748TIP3    H268660   2.344   3.881   0.737  1.6230 -0.6763 -0.7758
15749TIP3   OH268661   0.935   6.164   4.614 -0.1626  0.3950 -0.0572
15749TIP3    H168662   0.913   6.199   4.700 -0.3555 -0.1673  0.1260
15749TIP3    H268663   0.947   6.241   4.559 -0.7751  0.7484  0.2941
15750TIP3   OH268664   4.001   1.291  15.348 -0.0158  0.2568 -0.2330
15750TIP3    H168665   3.952   1.334  15.418 -0.2531  0.2923 -0.4201
15750TIP3    H268666   4.067   1.239  15.394  1.3944  2.1193 -0.0421
15751TIP3   OH268667   5.876   3.193   2.211 -0.0571  0.6729  0.2234
15751TIP3    H168668   5.890   3.168   2.119 -2.5542 -0.3979  0.0654
15751TIP3    H268669   5.964   3.204   2.246  0.9918  1.5270 -2.3892
15752TIP3   OH268670   1.247   6.715   1.397  0.0308  0.1000  0.6889
15752TIP3    H168671   1.255   6.804   1.431 -1.6193  0.1452  1.0382
15752TIP3    H268672   1.180   6.722   1.329 -2.2850 -1.3313  2.6628
15753TIP3   OH268673   1.760   1.721   1.721 -0.2349 -0.4112  0.9345
15753TIP3    H168674   1.705   1.664   1.667  1.2265 -2.5689  1.5777
15753TIP3    H268675   1.731   1.810   1.700 -1.6769 -1.3015 -1.1899
15754TIP3   OH268676   2.083   5.604   5.572  0.2021 -0.3974 -0.4771
15754TIP3    H168677   2.011   5.633   5.517  0.7413 -3.2179 -2.8962
15754TIP3    H268678   2.040   5.576   5.654 -1.0808  0.3713 -0.8509
15755TIP3   OH268679   4.752   5.064  17.182  0.3777  0.0887 -0.2812
15755TIP3    H168680   4.821   5.077  17.246  1.2387  0.2633 -1.2136
15755TIP3    H268681   4.792   5.086  17.098 -0.6643 -0.2884 -0.9078
15756TIP3   OH268682   1.186   5.288  13.766 -0.0519 -0.1563  0.0131
15756TIP3    H168683   1.274   5.277  13.730 -0.3487  0.9549 -1.1249
15756TIP3    H268684   1.194   5.359  13.829  0.0403 -0.7155  0.6541
15757TIP3   OH268685   1.340   6.516  16.183  0.0083  0.1509  0.8332
15757TIP3    H168686   1.314   6.592  16.130  0.6773  0.0487  0.3522
15757TIP3    H268687   1.382   6.457  16.121 -0.1673 -0.4548  1.2808
15758TIP3   OH268688   0.590   5.534   6.242  0.6093 -0.0202  0.0264
15758TIP3    H168689   0.508   5.501   6.206 -0.5665  1.7876  0.8708
15758TIP3    H268690   0.613   5.608   6.186 -0.4107  1.8372  1.9174
15759TIP3   OH268691   4.973   4.982   4.506  0.0766  0.4961 -0.9647
15759TIP3    H168692   5.010   5.070   4.508  0.3854  0.3736 -1.2791
15759TIP3    H268693   4.905   4.984   4.573  0.7178  0.6961 -0.2926
15760TIP3   OH268694   4.596   0.661   2.134 -0.0601 -0.7290  0.8066
15760TIP3    H168695   4.538   0.694   2.066  0.0879 -3.1888 -0.6318
15760TIP3    H268696   4.683   0.692   2.110  0.3152 -3.1455 -1.3546
15761TIP3   OH268697   3.287   0.569   6.337 -0.0854  0.0972  0.0059
15761TIP3    H168698   3.202   0.557   6.295  0.3940  2.6015 -1.9083
15761TIP3    H268699   3.295   0.663   6.349  2.1449 -0.1276  0.7635
15762TIP3   OH268700   3.750   6.671   2.260 -0.4367  0.0362  0.1829
15762TIP3    H168701   3.743   6.654   2.166  2.4746 -1.4268  0.1245
15762TIP3    H268702   3.695   6.604   2.300  0.1096 -0.7952 -0.4309
15763TIP3   OH268703   3.425   2.652   0.029  0.1409 -0.2955  0.0501
15763TIP3    H168704   3.437   2.705   0.108  1.7185 -1.4572  0.6544
15763TIP3    H268705   3.330   2.640   0.022 -0.1294  1.1254  0.8584
15764TIP3   OH268706   1.624   0.717  17.116 -0.0050  0.3690 -0.5151
15764TIP3    H168707   1.547   0.663  17.103 -0.8744  1.1649  0.9818
15764TIP3    H268708   1.595   0.806  17.099  0.4612  0.7216  0.4440
15765TIP3   OH268709   5.589   6.168   1.281  0.2415  0.4507  0.7942
15765TIP3    H168710   5.616   6.202   1.195  1.6450  0.3198  1.1637
15765TIP3    H268711   5.499   6.198   1.291 -0.2495 -0.2353 -1.0975
15766TIP3   OH268712   0.961   4.327   3.867  0.1463 -0.0899  0.2107
15766TIP3    H168713   1.009   4.244   3.862  0.6872  0.1235  1.3880
15766TIP3    H268714   0.903   4.327   3.791  0.1470 -1.5464  0.1933
15767TIP3   OH268715   3.186   4.144   1.561  0.2095  0.3687  0.2245
15767TIP3    H168716   3.176   4.060   1.516 -1.7137  0.2558  0.7805
15767TIP3    H268717   3.265   4.133   1.615  0.5624 -0.7089 -0.4730
15768TIP3   OH268718   5.926   2.830  14.877 -0.1505 -0.0568 -0.0671
15768TIP3    H168719   6.015   2.805  14.898  0.1207  1.6677  1.0578
15768TIP3    H268720   5.872   2.785  14.942 -0.0151 -0.3816 -0.1799
15769TIP3   OH268721   3.105   1.351  15.133 -0.2635  0.1717 -0.0571
15769TIP3    H168722   3.074   1.293  15.063 -2.7596  1.5989 -0.2789
15769TIP3    H268723   3.026   1.370  15.184  0.8098  1.9980  1.0042
15770TIP3   OH268724   3.630   5.042   3.036  0.9792 -0.4316  0.8863
15770TIP3    H168725   3.642   4.974   3.103 -0.4414 -0.8626  0.7335
15770TIP3    H268726   3.551   5.088   3.062 -1.1851 -2.2670 -1.7800
15771TIP3   OH268727   0.610   4.471  12.525  0.5323  0.1806 -0.7112
15771TIP3    H168728   0.701   4.492  12.542  1.8202 -3.8159 -1.6188
15771TIP3    H268729   0.567   4.479  12.610  1.4885  2.5715 -0.3512
15772TIP3   OH268730   5.652   0.354  15.051 -0.3181 -0.0927  0.2701
15772TIP3    H168731   5.663   0.427  14.990  0.7233  1.7335  2.5021
15772TIP3    H268732   5.733   0.305  15.045  0.8794  1.5551  1.9142
15773TIP3   OH268733   4.039   1.817   2.805  0.0784 -0.2007  0.5572
15773TIP3    H168734   4.111   1.841   2.863  1.0360  1.0067 -1.0262
15773TIP3    H268735   3.977   1.771   2.861  1.7909 -0.7430  2.1108
15774TIP3   OH268736   1.958   5.592  13.925 -0.2974  0.2527  0.7622
15774TIP3    H168737   1.959   5.496  13.931  1.8840  0.1696 -0.0648
15774TIP3    H268738   1.878   5.612  13.877 -0.2310 -1.2364 -0.0389
15775TIP3   OH268739   0.138   3.577   2.691 -0.1852 -0.3622  0.2125
15775TIP3    H168740   0.189   3.496   2.695 -3.1134 -2.4235 -0.9839
15775TIP3    H268741   0.079   3.572   2.766 -2.0971 -0.6624 -1.2366
15776TIP3   OH268742   4.849   4.468  12.531  0.3454 -0.1777  0.5536
15776TIP3    H168743   4.817   4.552  12.564  0.4839  0.4577 -0.8523
15776TIP3    H268744   4.847   4.478  12.436 -1.1201 -2.3186  0.2951
15777TIP3   OH268745   6.671   2.102   4.899 -0.2584  0.4150 -0.0715
15777TIP3    H168746   6.608   2.069   4.962 -0.8145  0.1696 -0.7456
15777TIP3    H268747   6.728   2.026   4.880 -1.1704 -0.0347 -1.1689
15778TIP3   OH268748   2.622   1.870   1.182  0.0157  0.1985  0.2741
15778TIP3    H168749   2.692   1.825   1.229  0.6470  1.3410  0.4684
15778TIP3    H268750   2.631   1.842   1.091  1.4074  1.1097  0.0947
15779TIP3   OH268751   2.335   3.668  17.232 -0.2684  0.0306 -0.4004
15779TIP3    H168752   2.291   3.749  17.208  0.4775  0.8520  0.8789
15779TIP3    H268753   2.421   3.695  17.262 -0.4035 -1.0939  1.1582
15780TIP3   OH268754   5.655   1.222  14.423 -0.2098  0.4181 -0.1414
15780TIP3    H168755   5.681   1.175  14.344  1.5148 -0.3186  0.8137
15780TIP3    H268756   5.713   1.298  14.427 -0.5790  0.6889  0.1844
15781TIP3   OH268757   1.828   2.052   4.313  0.1012 -0.4484 -0.2929
15781TIP3    H168758   1.922   2.063   4.328 -0.1233 -0.1928  1.0073
15781TIP3    H268759   1.797   2.141   4.294 -0.2105 -0.1759  1.3610
15782TIP3   OH268760   0.292   2.056  14.427 -0.4969  0.0401  0.1493
15782TIP3    H168761   0.299   2.146  14.393 -2.3479  0.0003 -0.4409
15782TIP3    H268762   0.267   2.004  14.351 -0.1579 -0.8596  0.6463
15783TIP3   OH268763   3.223   1.429   2.030  0.2135  0.0663 -0.0159
15783TIP3    H168764   3.147   1.380   2.062  0.3472  0.0206  0.2289
15783TIP3    H268765   3.290   1.416   2.096  0.1837  0.7644  0.1573
15784TIP3   OH268766   4.281   2.441   3.039 -0.1273 -0.2593 -0.2171
15784TIP3    H168767   4.282   2.346   3.030  0.4882 -0.2672 -0.1308
15784TIP3    H268768   4.224   2.472   2.969  0.0041 -0.6654 -0.5027
15785TIP3   OH268769   5.069   3.522  15.786  0.2058 -0.6814  0.0196
15785TIP3    H168770   5.013   3.474  15.724  0.0126 -0.0535 -0.2987
15785TIP3    H268771   5.063   3.613  15.758  0.4493 -0.4484  0.7143
15786TIP3   OH268772   2.831   1.525   5.394  0.0508  0.4091  0.0811
15786TIP3    H168773   2.739   1.548   5.378  0.6175  1.5582 -1.7653
15786TIP3    H268774   2.857   1.583   5.466  0.2948  2.8595 -1.8226
15787TIP3   OH268775   4.652   2.180   0.897  0.4338 -0.0751 -0.0334
15787TIP3    H168776   4.602   2.098   0.900 -0.9054  0.6939 -0.4001
15787TIP3    H268777   4.688   2.189   0.985  0.2617 -0.8609  0.1271
15788TIP3   OH268778   2.343   4.518  12.627  0.4117 -0.5355 -0.5120
15788TIP3    H168779   2.322   4.610  12.640  0.4042 -0.5640 -0.3159
15788TIP3    H268780   2.275   4.486  12.568 -1.5638 -1.2112  1.9415
15789TIP3   OH268781   2.851   4.911   0.769  0.2356  0.2874 -0.2461
15789TIP3    H168782   2.845   4.975   0.698 -1.3905 -0.7648 -1.1108
15789TIP3    H268783   2.826   4.828   0.729  2.1368 -0.9151  0.8921
15790TIP3   OH268784   3.075   1.354  15.723 -0.3464 -0.9991 -0.4686
15790TIP3    H168785   3.043   1.295  15.791 -2.1641  0.3209 -0.1104
15790TIP3    H268786   3.051   1.312  15.641 -1.3150 -0.9299 -0.2250
15791TIP3   OH268787   2.497   2.505  12.256  0.1145  0.2482  1.0241
15791TIP3    H168788   2.557   2.507  12.181 -0.2115  2.9894  0.7437
15791TIP3    H268789   2.524   2.427  12.305  1.1986 -0.9019 -1.2133
15792TIP3   OH268790   0.141   3.139   4.312  0.5270  0.0959  0.1670
15792TIP3    H168791   0.100   3.224   4.331  0.7730  0.3671 -0.4988
15792TIP3    H268792   0.132   3.090   4.394 -2.7025 -0.5105 -0.4110
15793TIP3   OH268793   0.922   4.415  16.429 -0.3428  0.3123  0.2366
15793TIP3    H168794   0.900   4.457  16.512 -1.4039  1.2306 -0.4864
15793TIP3    H268795   0.885   4.472  16.362  0.0986 -0.6470 -0.8653
15794TIP3   OH268796   4.953   5.894  16.415  0.5763  1.1116  0.2420
15794TIP3    H168797   4.994   5.927  16.335 -1.3218  1.7605 -0.5324
15794TIP3    H268798   4.954   5.969  16.475  1.9019  0.6569  0.8154
15795TIP3   OH268799   5.564   2.094  14.878 -0.0844 -0.0777  1.1323
15795TIP3    H168800   5.499   2.090  14.808  0.4535 -0.5675  0.6500
15795TIP3    H268801   5.513   2.105  14.958 -0.8118 -1.2593  0.8530
15796TIP3   OH268802   3.400   0.521  16.975 -0.2937 -0.0501 -0.4384
15796TIP3    H168803   3.308   0.528  17.001  0.0434  1.6068  0.4088
15796TIP3    H268804   3.423   0.609  16.944  0.1571 -1.1672 -3.6729
15797TIP3   OH268805   0.413   3.395  16.716  0.4821 -0.4855  0.2444
15797TIP3    H168806   0.431   3.489  16.712 -1.9102  0.0010 -1.0851
15797TIP3    H268807   0.499   3.355  16.727  1.6063  1.8280  0.5280
15798TIP3   OH268808   0.338   5.928   5.145 -0.4478  0.4651 -0.2896
15798TIP3    H168809   0.404   5.990   5.114  1.1895 -0.1676  1.6778
15798TIP3    H268810   0.327   5.950   5.238  0.3698 -2.2265  0.5488
15799TIP3   OH268811   2.716   0.548   4.103  0.7191 -0.1354 -0.0645
15799TIP3    H168812   2.777   0.522   4.034  0.8945  0.2032 -0.0370
15799TIP3    H268813   2.770   0.591   4.169  0.3134  1.1262 -0.5220
15800TIP3   OH268814   4.176   1.198   2.789 -0.5927  0.1570  0.0832
15800TIP3    H168815   4.254   1.247   2.817  0.0355 -0.5238 -0.4518
15800TIP3    H268816   4.158   1.231   2.701  1.4765 -2.4207 -1.4449
15801TIP3   OH268817   5.737   4.231   3.075 -0.4698  0.1633 -0.1787
15801TIP3    H168818   5.693   4.176   3.139 -0.0020 -0.2185 -0.1797
15801TIP3    H268819   5.668   4.254   3.012 -1.3538  1.9558  1.3476
15802TIP3   OH268820   4.656   0.644   5.690 -0.1813  0.2950  0.1166
15802TIP3    H168821   4.584   0.704   5.673  0.6120  1.0296 -0.8022
15802TIP3    H268822   4.717   0.658   5.618  0.4843 -0.9346  0.3966
15803TIP3   OH268823   0.963   1.666   2.542 -0.3153  0.2095  0.2726
15803TIP3    H168824   0.990   1.574   2.553 -2.1352 -0.4780 -0.5801
15803TIP3    H268825   0.915   1.667   2.459  0.9669  2.2842 -0.5263
15804TIP3   OH268826   2.595   5.799   4.831  0.1817 -0.1530 -0.0785
15804TIP3    H168827   2.583   5.858   4.904 -2.0621  0.2652 -0.7238
15804TIP3    H268828   2.550   5.719   4.857  1.9800 -1.1379  0.2003
15805TIP3   OH268829   6.382   6.457   4.645  0.9729  0.3775  0.1039
15805TIP3    H168830   6.302   6.423   4.686  0.6025  0.7017 -0.3398
15805TIP3    H268831   6.452   6.405   4.684  0.6421  0.6951  1.1713
15806TIP3   OH268832   5.491   1.941  13.092  0.3096 -0.0762 -0.5870
15806TIP3    H168833   5.403   1.936  13.056  0.2639 -0.8410 -0.4007
15806TIP3    H268834   5.508   1.853  13.126  0.9180  0.2212 -0.0867
15807TIP3   OH268835   3.244   4.400   3.717  0.5548  0.1133 -0.0656
15807TIP3    H168836   3.277   4.349   3.791 -1.1630 -0.7987  0.1118
15807TIP3    H268837   3.247   4.340   3.643  0.0982  0.2871 -0.2265
15808TIP3   OH268838   2.791   6.112  12.993 -0.5117 -0.2789  0.3718
15808TIP3    H168839   2.875   6.092  12.951 -1.0723  2.2755 -2.3302
15808TIP3    H268840   2.733   6.041  12.964 -0.3039  0.2327 -1.4132
15809TIP3   OH268841   0.779   0.795   5.695  0.4424  0.6026  0.3588
15809TIP3    H168842   0.756   0.888   5.696 -0.5695  0.3649 -0.1216
15809TIP3    H268843   0.785   0.771   5.788  0.7301  1.1465  0.4857
15810TIP3   OH268844   4.431   1.348  14.197  0.0834 -0.0543  0.2811
15810TIP3    H168845   4.435   1.255  14.175  1.0174  0.0494 -0.0571
15810TIP3    H268846   4.491   1.357  14.272 -0.6077  0.1435  0.8173
15811TIP3   OH268847   4.913   3.765   2.198 -1.2460 -0.3194  0.3716
15811TIP3    H168848   4.861   3.817   2.137 -2.9727 -1.5241  0.7320
15811TIP3    H268849   4.898   3.807   2.283 -0.3778  0.2213  0.2723
15812TIP3   OH268850   5.181   5.588   4.256  0.4903 -0.5077 -0.0749
15812TIP3    H168851   5.133   5.525   4.309 -0.4393 -0.5964 -0.9898
15812TIP3    H268852   5.191   5.664   4.313  0.2604 -0.9070  0.5089
15813TIP3   OH268853   2.365   2.265   3.615 -0.8460 -0.7432 -0.1061
15813TIP3    H168854   2.460   2.265   3.612 -0.8557 -0.3391 -0.8577
15813TIP3    H268855   2.343   2.256   3.707 -0.0558  0.7890  0.2626
15814TIP3   OH268856   5.833   4.533  12.378  0.4077 -0.1735 -0.8819
15814TIP3    H168857   5.877   4.555  12.296 -0.5404 -1.5887 -1.8177
15814TIP3    H268858   5.752   4.490  12.351 -0.0851 -0.3778  0.8019
15815TIP3   OH268859   2.102   3.247  12.338 -0.2836 -0.4056 -0.1839
15815TIP3    H168860   2.174   3.295  12.380 -0.4298  0.1106 -0.5089
15815TIP3    H268861   2.102   3.278  12.247 -1.6818  0.5422  0.1012
15816TIP3   OH268862   3.427   6.390  13.642 -0.3374 -0.1145  0.1700
15816TIP3    H168863   3.443   6.336  13.565  0.5465  0.1900  0.1246
15816TIP3    H268864   3.396   6.328  13.708 -1.0455 -0.3840 -0.4061
15817TIP3   OH268865   6.650   4.992   0.903 -1.0667  0.2866  0.5070
15817TIP3    H168866   6.663   4.960   0.814 -0.6386  0.3007  0.5618
15817TIP3    H268867   6.644   5.087   0.894  0.7793  0.4552  0.6769
15818TIP3   OH268868   0.985   6.472   2.249  0.5964 -0.2214  0.4139
15818TIP3    H168869   0.945   6.477   2.336 -1.3332 -0.4938 -0.4101
15818TIP3    H268870   0.962   6.555   2.207  1.7333  0.0151  0.2305
15819TIP3   OH268871   6.326   5.579  14.170  0.4107 -0.3847  0.1369
15819TIP3    H168872   6.356   5.488  14.168  0.2122 -0.4433 -0.8847
15819TIP3    H268873   6.293   5.592  14.259  1.4992 -0.9603  0.6419
15820TIP3   OH268874   1.893   5.407  13.519 -0.3163  0.5825 -0.0119
15820TIP3    H168875   1.820   5.403  13.582 -0.2187 -2.2036  0.0604
15820TIP3    H268876   1.852   5.434  13.437 -1.2313  0.1742  0.2971
15821TIP3   OH268877   0.351   5.660   5.134  0.3397  0.2809  0.3770
15821TIP3    H168878   0.354   5.754   5.122 -0.3318  0.4496  1.3341
15821TIP3    H268879   0.286   5.647   5.204 -0.1313 -0.9333 -0.2498
15822TIP3   OH268880   2.132   2.027  15.174 -0.0844 -0.7566  0.2159
15822TIP3    H168881   2.098   2.099  15.226  2.2921 -0.2003  1.1297
15822TIP3    H268882   2.140   1.954  15.236 -0.9345 -1.3414 -0.3302
15823TIP3   OH268883   3.896   4.662  13.670 -0.4923 -1.0435  0.2401
15823TIP3    H168884   3.811   4.626  13.698 -0.9103  0.6246  1.2199
15823TIP3    H268885   3.873   4.726  13.603  0.0470 -0.9149  0.1821
15824TIP3   OH268886   4.895   6.023  15.067  0.3260  0.3348 -0.1006
15824TIP3    H168887   4.812   6.006  15.022  0.5930  0.9768 -0.8614
15824TIP3    H268888   4.883   5.987  15.155  0.1559 -1.9300 -0.9866
15825TIP3   OH268889   2.773   1.557  16.860  0.5396 -0.9683  0.4810
15825TIP3    H168890   2.736   1.644  16.874  1.6392 -0.6426  1.5729
15825TIP3    H268891   2.772   1.546  16.765  0.1392  0.1281  0.3425
15826TIP3   OH268892   6.702   2.368  16.667 -0.0874  0.2359 -0.4447
15826TIP3    H168893   6.685   2.330  16.580  1.5292 -1.4898 -0.0738
15826TIP3    H268894   6.619   2.358  16.714 -0.9560  1.0955 -1.7226
15827TIP3   OH268895   2.009   1.044  14.966 -0.1412  0.5363 -0.1495
15827TIP3    H168896   1.969   0.973  14.916 -1.4265  0.5361  0.8491
15827TIP3    H268897   2.042   1.105  14.899 -0.4870 -0.1848 -0.9947
15828TIP3   OH268898   5.270   1.110   0.715  0.1481 -0.0215  0.1663
15828TIP3    H168899   5.232   1.036   0.762  1.6483 -0.5212  0.6788
15828TIP3    H268900   5.315   1.161   0.783 -0.0895  0.8697 -0.3184
15829TIP3   OH268901   0.319   6.630  12.903 -0.2774  0.2490  0.0158
15829TIP3    H168902   0.330   6.715  12.860  1.2077  0.0723  0.0065
15829TIP3    H268903   0.329   6.566  12.832  0.7497  0.0079  0.3640
15830TIP3   OH268904   3.930   1.972   0.432 -0.2901  0.5196  0.0406
15830TIP3    H168905   3.900   1.882   0.419  1.2853  0.2986 -2.9920
15830TIP3    H268906   3.850   2.024   0.435 -1.2581 -0.9367  2.2740
15831TIP3   OH268907   3.294   5.004  11.076  0.3150 -0.3915  0.5677
15831TIP3    H168908   3.212   5.037  11.040  1.7406  0.2138 -2.4350
15831TIP3    H268909   3.295   4.911  11.053 -0.2046 -0.7981  2.0699
15832TIP3   OH268910   0.547   0.367   0.002 -0.1153  0.4359  0.0976
15832TIP3    H168911   0.613   0.301   0.024 -0.8170 -0.0371  0.8428
15832TIP3    H268912   0.569   0.394  -0.087  1.6776  1.0270  0.6657
15833TIP3   OH268913   2.543   3.948   2.284 -0.5051  0.2896 -0.3317
15833TIP3    H168914   2.526   3.867   2.332  0.6577  1.2996  1.8965
15833TIP3    H268915   2.458   3.971   2.245 -1.2185 -1.1466  0.2859
15834TIP3   OH268916   4.232   3.450   5.557  0.1847 -0.1889 -0.0156
15834TIP3    H168917   4.302   3.444   5.492  0.6383  0.7022  0.3718
15834TIP3    H268918   4.156   3.409   5.515  0.9141 -1.0963 -0.4720
15835TIP3   OH268919   4.908   3.135  14.564 -0.2105  0.1710  0.4409
15835TIP3    H168920   4.899   3.217  14.612  0.9886  0.2419  0.5748
15835TIP3    H268921   4.930   3.161  14.475 -1.6545  0.0200  0.0202
15836TIP3   OH268922   1.066   3.251  15.385  0.1486 -0.4733  0.4969
15836TIP3    H168923   1.039   3.335  15.348 -0.8729 -1.4446 -1.1093
15836TIP3    H268924   1.135   3.273  15.446 -0.7334  1.6308  0.8350
15837TIP3   OH268925   4.788   3.952   5.680 -0.1948 -0.0357  0.4451
15837TIP3    H168926   4.828   4.039   5.683  0.3666 -0.2305 -0.6502
15837TIP3    H268927   4.843   3.903   5.619 -0.4967 -1.1675  1.0650
15838TIP3   OH268928   4.573   1.954  16.604 -0.8103 -0.2378  0.8468
15838TIP3    H168929   4.519   1.931  16.528 -0.6173  0.7908  0.3704
15838TIP3    H268930   4.599   1.871  16.642 -2.2873 -0.7578  0.7600
15839TIP3   OH268931   5.054   1.068  16.214  0.0330  0.0926 -0.3535
15839TIP3    H168932   4.963   1.066  16.245 -0.1372  0.2550 -0.8312
15839TIP3    H268933   5.094   1.142  16.260  0.2775 -0.7547  0.8152
15840TIP3   OH268934   4.081   6.505  11.598 -0.3404 -0.0135 -0.7702
15840TIP3    H168935   4.147   6.565  11.564  0.6220 -0.6923 -0.1464
15840TIP3    H268936   4.117   6.418  11.583 -0.8793 -0.3777 -0.0254
15841TIP3   OH268937   0.778   4.307   3.294  0.4352  0.4760  0.5775
15841TIP3    H168938   0.721   4.261   3.355 -0.7393  0.5545 -0.4263
15841TIP3    H268939   0.850   4.246   3.278 -1.3268 -1.3437 -1.1100
15842TIP3   OH268940   6.567   4.579   2.830  0.0993 -0.2342 -0.1608
15842TIP3    H168941   6.491   4.620   2.789 -1.3132 -0.8307  1.7133
15842TIP3    H268942   6.612   4.533   2.759 -2.1593 -1.1400 -1.0809
15843TIP3   OH268943   4.370   2.087  14.965 -0.2204 -0.2833 -0.3374
15843TIP3    H168944   4.408   2.169  14.995 -2.2536  0.6268 -0.0825
15843TIP3    H268945   4.403   2.076  14.876  1.4021 -0.0870  0.2163
15844TIP3   OH268946   3.102   0.052  11.961  0.1708 -0.3877  0.3163
15844TIP3    H168947   3.156  -0.022  11.931  0.7697 -0.8356  2.3139
15844TIP3    H268948   3.020   0.012  11.990 -1.3167  0.2785 -2.5697
15845TIP3   OH268949   0.608   6.636   4.988  0.3237  0.1233  0.3300
15845TIP3    H168950   0.668   6.687   4.933  0.1286 -1.1968 -1.1749
15845TIP3    H268951   0.521   6.669   4.965  0.2848  0.0634  0.3914
15846TIP3   OH268952   3.557   2.150  11.849 -0.3661 -0.0540  0.6631
15846TIP3    H168953   3.617   2.085  11.884 -0.4006 -0.9304 -0.8471
15846TIP3    H268954   3.511   2.106  11.778  0.3312  1.8783 -1.1106
15847TIP3   OH268955   6.296   1.648  12.924 -0.1116  0.3213 -0.3600
15847TIP3    H168956   6.387   1.661  12.896  0.5800 -2.6554  0.1190
15847TIP3    H268957   6.247   1.640  12.843  0.2018  1.0365 -0.6286
15848TIP3   OH268958   1.089   3.227   4.948 -0.5150 -0.0613 -0.0301
15848TIP3    H168959   1.113   3.161   4.883  1.0458  0.2019  0.2431
15848TIP3    H268960   1.015   3.273   4.909 -0.3240 -0.6380 -1.1236
15849TIP3   OH268961   0.038   1.149  16.759 -0.1275  0.5618  0.1688
15849TIP3    H168962   0.047   1.054  16.764 -1.2738  0.4219 -0.1031
15849TIP3    H268963   0.099   1.176  16.690 -0.6440 -0.1155 -0.5590
15850TIP3   OH268964   2.889   4.731  11.956  0.2687  0.0990 -0.2139
15850TIP3    H168965   2.867   4.746  11.864  0.9720  1.9831 -0.1217
15850TIP3    H268966   2.966   4.786  11.972 -0.1075  0.1620  1.6210
15851TIP3   OH268967   0.560   5.794   0.505 -0.4468 -0.1026 -0.0986
15851TIP3    H168968   0.648   5.762   0.487 -0.2328  0.6540 -0.4409
15851TIP3    H268969   0.559   5.884   0.471 -2.7661 -1.5047 -4.5260
15852TIP3   OH268970   0.675   1.688  16.287 -0.2169  0.1936  0.0815
15852TIP3    H168971   0.721   1.759  16.242 -0.3239 -1.0620 -2.1316
15852TIP3    H268972   0.744   1.631  16.319 -0.1567 -0.2204 -0.7587
15853TIP3   OH268973   5.793   1.154  11.912  0.5217  0.2134  0.4365
15853TIP3    H168974   5.804   1.099  11.990  1.3382 -0.1753  0.0615
15853TIP3    H268975   5.878   1.197  11.901  1.2546 -1.5900 -1.6181
15854TIP3   OH268976   6.305   2.888  16.574 -0.0771  0.0459  1.0826
15854TIP3    H168977   6.357   2.914  16.498 -1.2994  3.1418  1.1871
15854TIP3    H268978   6.369   2.861  16.639  1.1743  0.3763  0.0237
15855TIP3   OH268979   3.788   0.197   0.585 -0.2975  0.4832  0.5179
15855TIP3    H168980   3.699   0.187   0.553  0.1653  0.4702 -0.8101
15855TIP3    H268981   3.843   0.183   0.508  0.7938  2.1474  0.9499
15856TIP3   OH268982   4.707   3.335   5.234 -0.0575  0.3519  0.7926
15856TIP3    H168983   4.648   3.264   5.210  0.3702 -0.0409  0.8974
15856TIP3    H268984   4.650   3.412   5.244 -0.4384  0.1748  0.0291
15857TIP3   OH268985   1.252   1.563  15.186 -0.3064  0.3819  0.1284
15857TIP3    H168986   1.198   1.520  15.120 -1.3604 -0.3371  1.4163
15857TIP3    H268987   1.189   1.602  15.247  0.6301  2.2018 -0.0046
15858TIP3   OH268988   0.615   5.370   1.360 -0.1537  0.1266  0.5755
15858TIP3    H168989   0.648   5.290   1.400 -0.3144 -1.3509 -2.0068
15858TIP3    H268990   0.528   5.346   1.326 -0.5711  1.6566  0.4810
15859TIP3   OH268991   4.085   1.849   3.394  0.1138  0.2509 -0.6391
15859TIP3    H168992   4.063   1.815   3.481  0.6558 -0.2980 -0.7115
15859TIP3    H268993   4.033   1.796   3.333 -0.3928  0.7452 -0.6491
15860TIP3   OH268994   4.624   5.807   5.706  0.9640  0.3048 -0.5973
15860TIP3    H168995   4.622   5.896   5.672  1.6137 -0.3196 -2.3519
15860TIP3    H268996   4.607   5.817   5.800  0.1343  2.1782 -0.9094
15861TIP3   OH268997   2.813   3.686   5.504 -0.4104  0.0015  0.2956
15861TIP3    H168998   2.788   3.669   5.595  0.1221 -0.3969  0.3729
15861TIP3    H268999   2.889   3.744   5.511  0.8913 -1.6282  0.1802
15862TIP3   OH269000   1.774   2.795   2.056 -0.8343 -0.1910 -0.2660
15862TIP3    H169001   1.690   2.754   2.075 -0.1814 -1.3793  0.2015
15862TIP3    H269002   1.779   2.798   1.961 -0.3210 -2.5778 -0.3870
15863TIP3   OH269003   2.828   4.020   4.825 -0.0562 -0.0753 -0.1176
15863TIP3    H169004   2.766   4.092   4.832  1.9806  1.6169  2.2907
15863TIP3    H269005   2.809   3.964   4.900  2.3037  1.4049  1.6991
15864TIP3   OH269006   1.215   4.276   0.585  0.2893 -0.2775 -0.3195
15864TIP3    H169007   1.123   4.294   0.603  0.0886 -0.0029 -1.5092
15864TIP3    H269008   1.214   4.206   0.520  0.9308 -0.4751 -0.1243
15865TIP3   OH269009   1.160   5.368  13.068 -0.2057 -0.5700  0.8355
15865TIP3    H169010   1.099   5.354  12.996 -1.8508 -0.7993  2.1931
15865TIP3    H269011   1.136   5.300  13.132  0.1619  0.5756  2.2351
15866TIP3   OH269012   0.880   5.835  17.202 -0.3540 -0.3330  0.3055
15866TIP3    H169013   0.859   5.923  17.234  0.3349  1.4216 -3.5116
15866TIP3    H269014   0.966   5.817  17.239 -0.4147  0.6814  1.0022
15867TIP3   OH269015   1.092   5.191  14.139  0.0250 -0.0215  0.0758
15867TIP3    H169016   1.086   5.280  14.175  1.0118 -0.1719  0.6316
15867TIP3    H269017   1.185   5.172  14.137  0.0205 -0.1466 -2.2774
15868TIP3   OH269018   2.899   2.932   0.626  0.0473  0.6304 -0.1615
15868TIP3    H169019   2.915   2.996   0.556  0.2700 -0.5184 -1.1879
15868TIP3    H269020   2.965   2.864   0.612 -0.3300  0.0515  0.7791
15869TIP3   OH269021   5.439   3.831   1.589 -0.2629  0.1907 -0.1220
15869TIP3    H169022   5.390   3.843   1.671 -0.0157 -1.6563  0.3501
15869TIP3    H269023   5.522   3.793   1.617  0.2031  0.4033 -1.1740
15870TIP3   OH269024   3.385   6.434  14.494 -0.7460 -0.0104  0.2972
15870TIP3    H169025   3.340   6.458  14.413  0.3681 -0.4048 -0.4594
15870TIP3    H269026   3.359   6.502  14.556 -2.2038 -0.1183 -0.1635
15871TIP3   OH269027   5.577   0.712  12.254 -0.2223 -0.1469 -0.1783
15871TIP3    H169028   5.596   0.802  12.225 -2.4545  0.7713  0.9321
15871TIP3    H269029   5.510   0.681  12.193 -0.7527 -0.3723  0.5111
15872TIP3   OH269030   4.066   5.212  16.100  0.3159  0.2836 -0.2751
15872TIP3    H169031   4.064   5.150  16.173 -0.7749 -0.4494 -0.8971
15872TIP3    H269032   3.993   5.186  16.045  0.9983  0.9504 -1.5365
15873TIP3   OH269033   5.523   2.537   5.343 -0.0241 -0.6141 -0.0345
15873TIP3    H169034   5.601   2.503   5.298  0.6126 -0.4425  0.9210
15873TIP3    H269035   5.517   2.628   5.316  0.3633 -0.5076  0.2408
15874TIP3   OH269036   5.672   1.156   4.962 -0.0637  0.1878 -0.0300
15874TIP3    H169037   5.758   1.169   5.001  1.9287 -0.0517 -3.8816
15874TIP3    H269038   5.661   1.061   4.959 -1.1755  0.2090  1.6019
15875TIP3   OH269039   0.428   1.187  11.437 -0.7573 -0.1371  0.6619
15875TIP3    H169040   0.442   1.278  11.412  0.5206 -0.0239  1.7076
15875TIP3    H269041   0.374   1.151  11.366 -0.9316  1.3091  0.0282
15876TIP3   OH269042   4.162   3.988  11.792 -0.4143  0.4054  0.1404
15876TIP3    H169043   4.120   4.051  11.734 -0.9860 -0.1979 -0.1142
15876TIP3    H269044   4.090   3.936  11.828  0.1284 -1.1136 -0.8310
15877TIP3   OH269045   1.492   0.355   4.374  0.6044 -0.4126  0.0934
15877TIP3    H169046   1.422   0.292   4.357 -0.7735  0.5342  2.0207
15877TIP3    H269047   1.526   0.377   4.287 -0.2518 -2.2321 -0.7547
15878TIP3   OH269048   5.956   4.805  12.011 -0.8391  0.0750  0.5750
15878TIP3    H169049   5.960   4.803  11.915 -2.3762 -0.7431  0.5018
15878TIP3    H269050   5.886   4.868  12.030 -0.6077  0.1598  1.1636
15879TIP3   OH269051   0.366   2.397   4.208  0.3454 -0.6518 -0.2345
15879TIP3    H169052   0.293   2.442   4.250  0.5791 -0.0086 -0.5047
15879TIP3    H269053   0.332   2.370   4.123  0.6956  0.4881 -0.7516
15880TIP3   OH269054   6.338   2.949  13.839 -0.2282 -0.1255 -0.0823
15880TIP3    H169055   6.249   2.953  13.875 -0.4144  0.7993 -0.6073
15880TIP3    H269056   6.335   3.005  13.762  1.4307  1.9809  1.2512
15881TIP3   OH269057   3.288   5.860  11.010 -0.1782  0.3084 -0.0830
15881TIP3    H169058   3.250   5.871  10.923 -0.8310 -0.6196  0.0685
15881TIP3    H269059   3.229   5.905  11.069 -1.0322 -1.0369  0.1380
15882TIP3   OH269060   1.101   6.374   3.619 -0.5987  0.1234 -0.4667
15882TIP3    H169061   1.068   6.457   3.585  0.8451  1.3345  0.9344
15882TIP3    H269062   1.022   6.324   3.639 -1.4890  0.5071 -2.7118
15883TIP3   OH269063   1.098   4.898  15.457  0.4524 -0.0970 -0.2488
15883TIP3    H169064   1.186   4.890  15.420  0.6636 -1.4094  0.4723
15883TIP3    H269065   1.063   4.809  15.454 -0.2344  0.1116  0.9616
15884TIP3   OH269066   1.148   4.093   0.289  0.0910  0.1642  0.0103
15884TIP3    H169067   1.125   4.044   0.210  4.1483  0.1460 -1.4272
15884TIP3    H269068   1.134   4.184   0.265 -1.6621  0.0417  0.4702
15885TIP3   OH269069   5.945   1.919  16.928 -0.1068  0.0949  0.1946
15885TIP3    H169070   5.939   1.893  17.020 -1.1744 -1.7131 -0.3277
15885TIP3    H269071   5.882   1.991  16.919  2.2317  2.4934  1.4769
15886TIP3   OH269072   3.791   2.870  16.107  0.1772 -0.5706  1.2424
15886TIP3    H169073   3.878   2.901  16.084 -0.2283 -1.0135 -1.0939
15886TIP3    H269074   3.803   2.777  16.130  0.3266 -0.5901  1.0816
15887TIP3   OH269075   4.856   3.413   4.504  0.4164  0.7149  1.2357
15887TIP3    H169076   4.865   3.508   4.503  0.5371  0.7428 -1.8015
15887TIP3    H269077   4.946   3.380   4.512  0.5704  0.8738  0.1983
15888TIP3   OH269078   6.311   0.548   0.091 -0.2674 -0.3480 -0.0741
15888TIP3    H169079   6.348   0.557   0.003  0.5992  1.0435  0.3989
15888TIP3    H269080   6.244   0.616   0.095 -0.9104 -0.9761  0.0671
15889TIP3   OH269081   5.410   2.117  12.400 -0.2006 -0.3061  0.5589
15889TIP3    H169082   5.364   2.169  12.334  2.1302 -0.6093 -1.4121
15889TIP3    H269083   5.486   2.169  12.423  0.8206 -1.7050  0.4405
15890TIP3   OH269084   4.851   1.465  13.565  0.9033  0.6347 -0.0666
15890TIP3    H169085   4.901   1.402  13.513 -0.9482 -0.7118 -0.3240
15890TIP3    H269086   4.820   1.415  13.640  0.3748  1.5455  0.3357
15891TIP3   OH269087   4.774   4.558  13.513 -0.2248  0.8029  0.2863
15891TIP3    H169088   4.795   4.568  13.421  0.0140  1.8618  0.4463
15891TIP3    H269089   4.682   4.532  13.514 -0.0152  0.0013 -0.2647
15892TIP3   OH269090   0.878   3.888  12.890  0.0427 -0.1645 -0.5479
15892TIP3    H169091   0.868   3.910  12.797  1.3631  0.2276 -0.6225
15892TIP3    H269092   0.966   3.851  12.895  1.2278  2.5873  1.0325
15893TIP3   OH269093   2.119   0.761   3.348  0.2716 -0.1626  0.1747
15893TIP3    H169094   2.061   0.694   3.385 -0.5373  0.5907  0.3138
15893TIP3    H269095   2.096   0.841   3.396  0.9546  0.3000 -0.2524
15894TIP3   OH269096   5.783   0.310   5.986 -0.5870  0.3950  0.1263
15894TIP3    H169097   5.749   0.318   6.075 -0.3799  1.1673  0.1456
15894TIP3    H269098   5.837   0.388   5.974  0.5512 -0.4150 -0.1723
15895TIP3   OH269099   2.503   4.040   1.891  0.1996 -0.6819  0.2582
15895TIP3    H169100   2.587   4.030   1.847  0.3023  0.9699  0.0080
15895TIP3    H269101   2.445   4.077   1.824  0.2019  1.3200  1.2635
15896TIP3   OH269102   2.123   2.293   1.067 -0.6816  0.2127  0.7630
15896TIP3    H169103   2.106   2.202   1.043 -1.3140  0.6789 -0.6662
15896TIP3    H269104   2.181   2.288   1.143 -0.3739 -1.3703  0.4488
15897TIP3   OH269105   6.445   2.184  17.314 -0.2394 -0.2954  0.1981
15897TIP3    H169106   6.411   2.262  17.356 -0.1217 -1.7365  3.2722
15897TIP3    H269107   6.380   2.116  17.332  0.7042 -1.4125 -0.4226
15898TIP3   OH269108   5.831   5.717   3.168 -0.1110 -0.1397  0.0468
15898TIP3    H169109   5.825   5.622   3.161  0.0341 -0.1530  0.1012
15898TIP3    H269110   5.839   5.734   3.262 -2.5086  0.0619  0.2779
15899TIP3   OH269111   5.470   0.005   5.398  0.0567 -0.1107 -0.1799
15899TIP3    H169112   5.462   0.084   5.453  1.4815  1.2386 -1.7610
15899TIP3    H269113   5.399  -0.051   5.426 -1.1979  1.8603  0.8528
15900TIP3   OH269114   4.748   2.316  11.721  0.4444  0.0759  0.2391
15900TIP3    H169115   4.663   2.351  11.693  1.6888  2.2802 -1.0583
15900TIP3    H269116   4.771   2.253  11.652 -0.0720 -0.4968  0.5718
15901TIP3   OH269117   2.037   0.493  10.761  0.1174  0.5730 -0.6319
15901TIP3    H169118   2.106   0.478  10.696 -0.4680  0.1669 -1.1723
15901TIP3    H269119   2.011   0.405  10.789  0.4183  0.7447  0.2265
15902TIP3   OH269120   5.528   2.615  14.219 -0.1111  0.2189  0.0739
15902TIP3    H169121   5.452   2.594  14.274  0.9204  1.0794  1.9349
15902TIP3    H269122   5.528   2.711  14.214 -0.3402  0.1687 -1.7648
15903TIP3   OH269123   2.536   4.524   4.102 -0.3338 -0.1582  0.9038
15903TIP3    H169124   2.485   4.463   4.048 -0.9140  0.1107  1.1359
15903TIP3    H269125   2.537   4.485   4.189  0.1464 -0.3279  0.8243
15904TIP3   OH269126   5.688   6.253   6.380 -0.2418  0.3997 -0.6724
15904TIP3    H169127   5.697   6.161   6.355 -0.7249  0.0240  0.4609
15904TIP3    H269128   5.594   6.268   6.380 -0.2509  0.4510  0.5957
15905TIP3   OH269129   4.469   1.363   4.086  0.1044  0.4682 -0.1524
15905TIP3    H169130   4.499   1.272   4.086 -0.4460  0.2808 -0.9414
15905TIP3    H269131   4.521   1.405   4.155  0.2750 -0.4655  0.3017
15906TIP3   OH269132   6.663   3.044   1.111 -0.2969 -0.0883 -0.3174
15906TIP3    H169133   6.739   3.093   1.080 -0.7261  0.1604 -1.0115
15906TIP3    H269134   6.607   3.035   1.033 -1.2853  0.3257  0.3190
15907TIP3   OH269135   4.571   3.825   2.391  1.0335  0.3315  0.7245
15907TIP3    H169136   4.599   3.898   2.448 -0.9660  0.0598  2.1398
15907TIP3    H269137   4.494   3.859   2.346  0.3753 -0.7445  1.0287
15908TIP3   OH269138   2.204   4.833   1.607  0.2529 -0.3075 -0.7851
15908TIP3    H169139   2.143   4.907   1.613  1.6547  0.7880  2.1208
15908TIP3    H269140   2.148   4.758   1.589 -1.3306  1.2694 -3.1229
15909TIP3   OH269141   4.037   3.501   4.764  0.1846 -0.5997  0.0665
15909TIP3    H169142   4.109   3.539   4.814  0.2917 -1.1577  0.3450
15909TIP3    H269143   4.077   3.428   4.716  0.3992  0.7933 -1.9790
15910TIP3   OH269144   2.753   3.230  11.668  0.5526 -0.2790 -0.1777
15910TIP3    H169145   2.696   3.284  11.723  0.2124 -0.8517  0.0438
15910TIP3    H269146   2.702   3.152  11.650  0.4326  0.1566 -1.8319
15911TIP3   OH269147   6.382   3.681  16.214  0.1829  0.3425  0.1159
15911TIP3    H169148   6.468   3.648  16.189  1.9430  3.5803  1.2196
15911TIP3    H269149   6.381   3.675  16.310 -0.0745  1.7595  0.2322
15912TIP3   OH269150   0.720   2.751  12.937 -0.1856  0.3121 -0.0964
15912TIP3    H169151   0.706   2.835  12.894 -0.6216 -0.1109 -0.8092
15912TIP3    H269152   0.697   2.766  13.029 -1.0455  0.7769 -0.3765
15913TIP3   OH269153   5.556   3.559  13.121 -0.1018  0.3695  0.1717
15913TIP3    H169154   5.586   3.470  13.105  0.8347  0.8834 -1.0780
15913TIP3    H269155   5.472   3.548  13.166  1.8395 -1.1450  3.8985
15914TIP3   OH269156   6.179   6.016  13.170  0.1780 -0.0888 -0.1745
15914TIP3    H169157   6.175   6.105  13.204 -0.1324 -0.2763  0.2888
15914TIP3    H269158   6.268   5.987  13.186  0.5551  0.4597 -1.1678
15915TIP3   OH269159   5.008   1.097   4.362 -0.5792  0.3844 -0.4077
15915TIP3    H169160   5.012   1.182   4.406 -0.9235  0.2100 -0.0305
15915TIP3    H269161   5.099   1.072   4.348 -0.4751  0.6683 -0.2310
15916TIP3   OH269162   4.923   3.734  14.470  0.5817  0.3136 -0.0417
15916TIP3    H169163   4.985   3.661  14.469 -1.6278 -1.7349  1.7916
15916TIP3    H269164   4.906   3.752  14.377  1.1996 -1.5222 -0.5535
15917TIP3   OH269165   4.193   3.215  12.977  0.1771 -0.4192  0.1897
15917TIP3    H169166   4.235   3.226  12.892  2.8512 -1.6983  1.2355
15917TIP3    H269167   4.233   3.283  13.032 -0.6443 -0.3650  0.7320
15918TIP3   OH269168   0.787   1.776   0.680 -0.6830 -0.5057  0.3144
15918TIP3    H169169   0.713   1.772   0.740  0.7031 -1.6618  2.0410
15918TIP3    H269170   0.776   1.699   0.624 -1.0342 -0.4174  0.2611
15919TIP3   OH269171   4.216   4.745   3.398  0.2351 -0.0569 -0.0156
15919TIP3    H169172   4.165   4.785   3.328 -3.2029  0.2958  2.4330
15919TIP3    H269173   4.204   4.651   3.385 -1.5175  0.0268  0.7619
15920TIP3   OH269174   2.839   2.584  13.476  0.0859  0.3102 -0.0367
15920TIP3    H169175   2.807   2.499  13.447  0.9101 -0.4505  1.2039
15920TIP3    H269176   2.774   2.613  13.541  1.1348 -0.6289  1.5026
15921TIP3   OH269177   2.847   2.566  11.655  0.1546 -0.2438  0.0747
15921TIP3    H169178   2.751   2.570  11.659  0.1350 -1.2009  1.1526
15921TIP3    H269179   2.865   2.505  11.584 -0.0887 -0.9818  0.6217
15922TIP3   OH269180   0.690   6.112   4.829 -0.7370 -0.4752  0.5205
15922TIP3    H169181   0.632   6.084   4.900 -2.0667  2.4931  0.7792
15922TIP3    H269182   0.727   6.195   4.860 -1.0017  0.6878 -2.0301
15923TIP3   OH269183   4.313   1.268  13.040  0.3066  0.2203 -0.0059
15923TIP3    H169184   4.282   1.348  13.083  0.8692  0.2977  0.2589
15923TIP3    H269185   4.404   1.260  13.066  0.6178  0.1745 -1.0553
15924TIP3   OH269186   2.773   4.407  14.374 -0.2064 -0.5952 -0.0072
15924TIP3    H169187   2.687   4.441  14.397  0.4238  1.2675 -0.2071
15924TIP3    H269188   2.812   4.383  14.459 -1.3541 -2.7208 -0.0128
15925TIP3   OH269189   0.962   6.571   3.479 -1.0563  0.1685 -0.0876
15925TIP3    H169190   0.885   6.613   3.518 -0.4900  0.4312  0.7886
15925TIP3    H269191   0.937   6.555   3.388 -2.5202 -0.7191  0.4427
15926TIP3   OH269192   2.739   1.830  13.911 -0.7084  0.0539 -0.1029
15926TIP3    H169193   2.800   1.891  13.870  0.6583 -0.4978  1.0424
15926TIP3    H269194   2.720   1.868  13.996 -0.7543 -0.5386  0.1577
15927TIP3   OH269195   0.239   5.396  13.091  0.4490  0.1699  0.3092
15927TIP3    H169196   0.261   5.304  13.073  0.0458  0.2542 -0.7033
15927TIP3    H269197   0.322   5.436  13.116  1.4488  0.3529 -2.8321
15928TIP3   OH269198   1.216   2.039   0.695  0.2010 -0.0410 -0.2753
15928TIP3    H169199   1.212   2.079   0.608  0.2893 -0.3438 -0.4219
15928TIP3    H269200   1.274   1.963   0.683  0.3444  0.0124  0.0851
15929TIP3   OH269201   0.204   5.872  13.609  0.0954  0.1815  0.4435
15929TIP3    H169202   0.185   5.813  13.536  1.7980  0.8077 -0.5609
15929TIP3    H269203   0.121   5.880  13.656 -1.2248  0.2167 -1.7758
15930TIP3   OH269204   2.028   2.544   0.338  0.0020  0.3999 -0.1008
15930TIP3    H169205   2.109   2.591   0.356 -0.7874  1.5027  0.6693
15930TIP3    H269206   1.969   2.569   0.409 -1.2855  0.2845 -1.0889
15931TIP3   OH269207   2.244   4.208   0.121  0.3190  0.4209  0.0084
15931TIP3    H169208   2.207   4.265   0.188 -0.2729 -1.2138  1.1219
15931TIP3    H269209   2.330   4.183   0.155 -0.5341 -1.5181  0.9012
15932TIP3   OH269210   2.310   2.569   7.272 -0.6484 -0.4050  0.0031
15932TIP3    H169211   2.334   2.622   7.196 -1.1936 -1.0449 -0.6290
15932TIP3    H269212   2.393   2.530   7.301 -0.2625  0.7054  0.4151
15933TIP3   OH269213   3.074   6.109  12.912  0.3980  0.7164 -0.2573
15933TIP3    H169214   3.107   6.060  12.836  1.5915  2.1740 -0.7250
15933TIP3    H269215   3.151   6.124  12.966 -0.1876  0.9660  0.5237
15934TIP3   OH269216   6.220   0.175  15.490  0.2310 -0.0208 -0.1719
15934TIP3    H169217   6.158   0.130  15.434 -1.3259  1.0184  0.6319
15934TIP3    H269218   6.254   0.246  15.436 -0.0799  0.0348 -0.2954
15935TIP3   OH269219   3.076   2.586   1.747  0.4861 -0.0903  0.2682
15935TIP3    H169220   3.015   2.657   1.770  0.5130 -0.0950  0.3540
15935TIP3    H269221   3.061   2.571   1.654  0.4356 -0.0141  0.2638
15936TIP3   OH269222   3.720   0.161  17.394  0.0179  0.7322 -0.5227
15936TIP3    H169223   3.814   0.173  17.411  0.3697  0.3599 -2.0539
15936TIP3    H269224   3.701   0.223  17.323 -0.2450 -1.0808 -2.1144
15937TIP3   OH269225   1.956   2.117  17.024  1.0211  0.0798  0.3076
15937TIP3    H169226   2.014   2.123  16.948  0.3106  0.9208 -0.1834
15937TIP3    H269227   1.952   2.206  17.058 -0.6916  0.2260 -0.2183
15938TIP3   OH269228   6.103   5.052   1.342 -0.0745 -0.0860  0.1017
15938TIP3    H169229   6.030   5.064   1.404 -1.9564  1.1334 -2.1873
15938TIP3    H269230   6.081   5.109   1.268  1.8757 -1.7363 -1.8845
15939TIP3   OH269231   6.723   5.402   1.388  0.1823  0.0809  0.2039
15939TIP3    H169232   6.792   5.466   1.402  0.7677 -0.7917  1.5304
15939TIP3    H269233   6.757   5.344   1.320  0.4693  0.0660  0.3579
15940TIP3   OH269234   1.202   0.181  12.952 -0.2946  0.2712  0.3019
15940TIP3    H169235   1.213   0.200  13.045 -1.6402 -0.0393  0.5393
15940TIP3    H269236   1.145   0.104  12.949 -0.8393  0.6876 -0.7956
15941TIP3   OH269237   3.561   3.455   2.998 -0.8260  0.3405  0.0830
15941TIP3    H169238   3.520   3.475   2.914  0.0210  0.5401 -0.2974
15941TIP3    H269239   3.645   3.415   2.975 -2.0260 -2.9243  0.8173
15942TIP3   OH269240   0.485   3.232   6.479  0.0401 -0.1251  0.3389
15942TIP3    H169241   0.452   3.297   6.541 -0.5437 -0.0755 -0.0146
15942TIP3    H269242   0.407   3.186   6.449  0.2108  0.4838 -1.0755
15943TIP3   OH269243   0.577   2.574   1.019  0.0979 -0.4331  0.3419
15943TIP3    H169244   0.613   2.486   1.024  0.6261 -0.1540  2.1047
15943TIP3    H269245   0.483   2.562   1.032  0.2149 -0.7177  0.9552
15944TIP3   OH269246   0.837   4.793   0.716 -0.3806 -0.3883  0.0677
15944TIP3    H169247   0.795   4.767   0.798  4.1065  1.1716  3.2274
15944TIP3    H269248   0.783   4.866   0.684 -2.0028 -0.7057  1.8874
15945TIP3   OH269249   1.388   6.560  13.856 -0.2949  0.4618  0.0967
15945TIP3    H169250   1.442   6.623  13.807 -1.5624  2.3896  1.0336
15945TIP3    H269251   1.389   6.481  13.803  1.6930  1.1388 -0.9614
15946TIP3   OH269252   5.740   1.937   0.775 -0.3086 -0.0553 -0.7321
15946TIP3    H169253   5.714   1.846   0.766 -1.1974  0.1694 -0.5500
15946TIP3    H269254   5.782   1.958   0.691  1.0028 -0.9602 -0.3230
15947TIP3   OH269255   5.338   4.233   3.124 -0.7690 -0.2783  0.7817
15947TIP3    H169256   5.341   4.328   3.113 -0.7907 -0.4473 -0.8682
15947TIP3    H269257   5.255   4.217   3.169 -2.9432  0.2315 -2.6748
15948TIP3   OH269258   1.734   1.188   5.439 -0.7038  0.4530 -0.1228
15948TIP3    H169259   1.742   1.202   5.344 -3.4370  0.5686 -0.4134
15948TIP3    H269260   1.788   1.256   5.478  0.7909  0.1700 -1.5543
15949TIP3   OH269261   1.737   4.591   3.562  0.2490  0.0854  0.7662
15949TIP3    H169262   1.662   4.613   3.617 -1.0239 -0.7416 -0.5500
15949TIP3    H269263   1.777   4.674   3.541 -1.7650  0.8228 -0.4596
15950TIP3   OH269264   4.009   2.264   5.189  0.3070  0.4257  0.3310
15950TIP3    H169265   4.038   2.252   5.098  2.0554 -0.3987  0.9649
15950TIP3    H269266   3.915   2.244   5.186  0.3923  0.1189 -1.2336
15951TIP3   OH269267   0.237   4.149  14.521  0.0893 -0.0934  0.3966
15951TIP3    H169268   0.289   4.161  14.601  0.0830 -0.7982  0.5150
15951TIP3    H269269   0.154   4.193  14.540 -0.2036 -0.9115  1.0893
15952TIP3   OH269270   0.527   3.873   2.930 -0.1132  0.6415 -0.6210
15952TIP3    H169271   0.450   3.819   2.912  0.2052 -0.7843  1.8634
15952TIP3    H269272   0.600   3.811   2.933  0.6740  1.5567 -0.1873
15953TIP3   OH269273   1.569   5.017  13.389 -0.1896 -0.1905 -0.2953
15953TIP3    H169274   1.506   5.088  13.383 -0.3458 -0.3104 -0.0934
15953TIP3    H269275   1.653   5.060  13.401 -0.2437 -0.0320 -0.4814
15954TIP3   OH269276   5.460   3.375  16.082  0.4417 -0.0537 -0.0965
15954TIP3    H169277   5.398   3.324  16.030 -0.4828 -0.5516  1.3964
15954TIP3    H269278   5.428   3.465  16.078 -1.4128 -0.5402  1.9481
15955TIP3   OH269279   0.995   5.483  11.098  0.1822 -0.3963 -0.2369
15955TIP3    H169280   1.015   5.574  11.116 -0.5624 -0.2051 -0.3540
15955TIP3    H269281   1.064   5.455  11.038  0.7593 -0.0922  0.2710
15956TIP3   OH269282   5.391   4.180  12.133  0.2838  0.3025  0.0063
15956TIP3    H169283   5.425   4.256  12.180  1.1983  0.0608 -0.2311
15956TIP3    H269284   5.470   4.133  12.105 -0.2597 -0.7341  0.1575
15957TIP3   OH269285   3.309   3.678   4.854 -0.3381  0.2514 -0.0776
15957TIP3    H169286   3.333   3.729   4.932 -2.1385  1.0516  0.0126
15957TIP3    H269287   3.374   3.607   4.850 -0.0413  0.3497  2.0007
15958TIP3   OH269288   0.993   0.380   0.607 -0.1420  0.1736  0.2704
15958TIP3    H169289   1.010   0.303   0.553  2.0959  0.5324  0.4003
15958TIP3    H269290   0.909   0.413   0.575 -0.9610 -2.0618 -0.0554
15959TIP3   OH269291   4.868   4.278   5.037 -0.0891 -0.2349 -0.3586
15959TIP3    H169292   4.903   4.366   5.051 -0.8495 -0.1181  0.9352
15959TIP3    H269293   4.878   4.263   4.943  0.9471  0.8407 -0.4416
15960TIP3   OH269294   3.036   3.115   1.095  0.1955 -0.1043  0.1617
15960TIP3    H169295   3.026   3.023   1.072  2.2426 -0.0053 -1.4205
15960TIP3    H269296   3.033   3.116   1.191  0.6456 -1.8989  0.2380
15961TIP3   OH269297   1.644   2.989   3.460 -0.1851  0.0980 -0.2313
15961TIP3    H169298   1.619   2.911   3.410  0.7580 -1.3412  1.4556
15961TIP3    H269299   1.627   3.062   3.400 -3.2741 -1.1580 -1.0848
15962TIP3   OH269300   5.515   1.584   1.707  0.3283  0.1756  0.0089
15962TIP3    H169301   5.515   1.674   1.675 -0.9375  0.3831  0.5331
15962TIP3    H269302   5.460   1.536   1.644  1.6772 -0.4372 -0.7474
15963TIP3   OH269303   4.832   2.096  16.250 -0.1328  0.0552  0.0715
15963TIP3    H169304   4.816   2.190  16.259  2.3429  0.6302 -0.7768
15963TIP3    H269305   4.885   2.073  16.327 -1.4727 -0.8795  0.7503
15964TIP3   OH269306   3.184   4.600   2.662  0.1338 -0.2970 -0.1725
15964TIP3    H169307   3.104   4.622   2.709 -0.0509  0.1908 -0.7066
15964TIP3    H269308   3.207   4.512   2.694  0.0983  0.0728  0.9310
15965TIP3   OH269309   0.632   0.093   3.966 -0.2384  0.0308 -0.1145
15965TIP3    H169310   0.544   0.059   3.951 -0.3726  0.0803  0.5166
15965TIP3    H269311   0.690   0.025   3.932 -0.5171  0.1556 -0.8630
15966TIP3   OH269312   1.016   2.423  11.165 -0.4199  0.8774  0.7030
15966TIP3    H169313   0.988   2.331  11.164 -2.4003  1.2744 -3.7218
15966TIP3    H269314   0.965   2.462  11.236  1.1303 -1.4446  3.3106
15967TIP3   OH269315   1.577   0.827  11.765  0.5558 -0.5178  0.3028
15967TIP3    H169316   1.595   0.844  11.673  1.7198 -0.2989  0.5618
15967TIP3    H269317   1.583   0.913  11.807 -0.9276 -0.4541  0.4552
15968TIP3   OH269318   0.622   1.891  12.749  0.1426 -0.4268  0.1040
15968TIP3    H169319   0.678   1.841  12.690  0.5823 -0.5067  0.5701
15968TIP3    H269320   0.669   1.889  12.833  0.2778  0.9336  0.0909
15969TIP3   OH269321   4.675   2.653   3.587 -0.7670 -0.9017 -0.5656
15969TIP3    H169322   4.674   2.618   3.676  2.3380  1.0971  0.4258
15969TIP3    H269323   4.584   2.648   3.558 -1.9212 -1.5392  2.7439
15970TIP3   OH269324   5.874   0.879   5.672 -0.2840 -0.1977  0.1277
15970TIP3    H169325   5.880   0.824   5.594 -2.4913 -0.6800  0.2160
15970TIP3    H269326   5.786   0.918   5.666 -1.0120 -1.1818  2.9428
15971TIP3   OH269327   3.824   5.824  13.562  0.5903  0.3204 -0.2074
15971TIP3    H169328   3.865   5.870  13.488 -1.7920  0.8137 -1.3036
15971TIP3    H269329   3.749   5.878  13.586  0.1656 -0.8664  1.2735
15972TIP3   OH269330   1.791   5.296  14.711 -0.1620  0.3059 -0.0133
15972TIP3    H169331   1.813   5.228  14.775 -1.0946 -1.8522 -1.8418
15972TIP3    H269332   1.875   5.323  14.674  0.1565 -0.6241  0.0101
15973TIP3   OH269333   1.732   0.861   5.332 -0.0409  0.2732 -0.6273
15973TIP3    H169334   1.656   0.906   5.295 -1.1313 -0.3401  0.7442
15973TIP3    H269335   1.720   0.770   5.306  1.1940  0.4506 -1.8875
15974TIP3   OH269336   1.631   6.056   1.933 -0.0778  0.0515 -0.6205
15974TIP3    H169337   1.713   6.006   1.929  0.0628  0.1500  0.6176
15974TIP3    H269338   1.591   6.042   1.847  0.7623 -0.8066 -0.9034
15975TIP3   OH269339   5.000   1.895   4.944  0.3840  0.5673 -0.1801
15975TIP3    H169340   5.001   1.979   4.900  0.8786  0.6218 -0.0781
15975TIP3    H269341   5.053   1.838   4.889 -1.4802 -0.2187 -1.2478
15976TIP3   OH269342   5.564   6.677   1.708 -0.0190 -0.0155 -1.1052
15976TIP3    H169343   5.594   6.599   1.661  1.7712 -0.2753  0.3903
15976TIP3    H269344   5.632   6.742   1.694 -0.4951  0.6047 -0.6113
15977TIP3   OH269345   6.615   1.745  17.187 -0.4153  0.2894  0.5077
15977TIP3    H169346   6.634   1.826  17.235  0.9806 -0.1492  0.7433
15977TIP3    H269347   6.588   1.683  17.255  2.9820 -0.7736  1.0559
15978TIP3   OH269348   2.510   2.676   6.315  0.2291  0.3517 -0.0928
15978TIP3    H169349   2.494   2.661   6.222 -1.0301  2.1809 -0.2221
15978TIP3    H269350   2.605   2.678   6.323  0.3799 -0.9835 -1.1065
15979TIP3   OH269351   2.692   3.624   0.855 -0.3348 -0.7103 -0.1454
15979TIP3    H169352   2.774   3.591   0.819  1.2018  1.7121  0.8649
15979TIP3    H269353   2.674   3.567   0.930  1.5313 -0.1521  0.7984
15980TIP3   OH269354   3.322   0.880  15.517 -0.1297  0.5500 -0.1900
15980TIP3    H169355   3.296   0.908  15.430  0.3803  1.3092 -0.0990
15980TIP3    H269356   3.243   0.892  15.570 -0.3456  0.3864 -0.4706
15981TIP3   OH269357   5.211   4.146  17.226 -0.3278  0.3346  0.3264
15981TIP3    H169358   5.149   4.075  17.242 -1.7844  1.5897  0.5435
15981TIP3    H269359   5.253   4.160  17.311  0.9899 -1.1394 -0.0411
15982TIP3   OH269360   1.325   4.377   1.039 -0.2223  0.0961 -0.4145
15982TIP3    H169361   1.326   4.433   1.117 -1.3779  0.4543 -0.6306
15982TIP3    H269362   1.280   4.298   1.067 -1.8153  0.7428 -1.0140
15983TIP3   OH269363   1.952   6.258  14.948 -0.2639 -0.8089  0.0909
15983TIP3    H169364   2.046   6.249  14.933 -0.3189 -0.4579 -0.5422
15983TIP3    H269365   1.945   6.313  15.026  0.0836  0.6674 -0.8695
15984TIP3   OH269366   6.141   4.386   6.130  0.4068  0.4585  0.4407
15984TIP3    H169367   6.141   4.295   6.100  0.1683  1.1964 -2.0013
15984TIP3    H269368   6.233   4.406   6.144  0.4225 -0.2932  1.5057
15985TIP3   OH269369   0.800   3.343  15.498  0.1925  0.0223  0.3982
15985TIP3    H169370   0.771   3.278  15.434  0.7625  1.2578 -1.2112
15985TIP3    H269371   0.895   3.346  15.487  0.1443  1.3238  0.2197
15986TIP3   OH269372   4.063   5.186   2.897  0.5823 -0.0401  0.3150
15986TIP3    H169373   4.055   5.255   2.962  0.0943  0.7328 -0.5446
15986TIP3    H269374   3.994   5.123   2.919  1.8079 -0.9304  1.8513
15987TIP3   OH269375   3.432   4.173   0.998 -0.1586 -0.5436  0.2905
15987TIP3    H169376   3.444   4.134   1.085 -0.3211  0.2076  0.6552
15987TIP3    H269377   3.519   4.173   0.959  0.0348 -0.2594  0.7197
15988TIP3   OH269378   5.782   1.374  12.729 -0.1233  0.0567 -0.4770
15988TIP3    H169379   5.781   1.316  12.805 -1.5565 -0.6136 -0.9592
15988TIP3    H269380   5.691   1.372  12.697 -0.5447  3.5588  0.2015
15989TIP3   OH269381   1.954   6.060   5.464  0.1478  0.6538 -0.1937
15989TIP3    H169382   1.880   6.069   5.524  0.2210 -0.1520  0.0282
15989TIP3    H269383   1.915   6.052   5.377 -0.0134  0.4986 -0.1067
15990TIP3   OH269384   2.452   6.052   2.000  0.0658 -0.5185  0.4515
15990TIP3    H169385   2.537   6.093   2.017  0.4786 -0.9393 -0.5232
15990TIP3    H269386   2.468   5.992   1.928 -1.2558  0.0567 -0.3661
15991TIP3   OH269387   6.180   3.726   2.089  0.2355  0.4328 -0.2987
15991TIP3    H169388   6.175   3.785   2.165 -0.9734  0.9605 -0.7709
15991TIP3    H269389   6.099   3.676   2.091 -0.5024  1.4647 -2.0352
15992TIP3   OH269390   3.805   0.179  12.775 -0.4166 -0.1417 -0.2544
15992TIP3    H169391   3.875   0.126  12.737 -1.3313  0.6172 -3.2812
15992TIP3    H269392   3.806   0.157  12.868  1.8316 -2.4003 -0.6985
15993TIP3   OH269393   2.252   4.368   6.047 -0.2801 -0.1401  1.0875
15993TIP3    H169394   2.186   4.388   6.113 -0.0714  0.8336  1.0206
15993TIP3    H269395   2.204   4.364   5.965 -0.3637 -0.1949  1.1386
15994TIP3   OH269396   5.637   6.333  17.390  0.2914 -0.1086  0.4949
15994TIP3    H169397   5.570   6.400  17.396 -0.3138 -0.3408 -2.3252
15994TIP3    H269398   5.588   6.250  17.387  0.5639 -0.2566 -2.0288
15995TIP3   OH269399   3.480   5.833   4.678  0.1909 -0.5030 -0.7056
15995TIP3    H169400   3.440   5.917   4.703  0.4529 -0.3374 -0.8396
15995TIP3    H269401   3.543   5.815   4.747 -0.5180 -1.0512 -0.1910
15996TIP3   OH269402   5.966   3.805   0.643  0.6816 -0.3960  0.4573
15996TIP3    H169403   5.969   3.734   0.579  1.0695 -0.2259  0.2827
15996TIP3    H269404   6.058   3.821   0.666  0.6438  0.3604  0.1334
15997TIP3   OH269405   2.920   6.619  13.298  0.6081 -0.3745  0.2343
15997TIP3    H169406   2.988   6.677  13.331  0.3970 -1.1826  2.2116
15997TIP3    H269407   2.968   6.543  13.264  0.7628 -0.2296  0.1266
15998TIP3   OH269408   2.008   3.722   0.257  0.0375  0.4168 -0.0158
15998TIP3    H169409   2.047   3.639   0.281  0.1492  1.1917  2.8128
15998TIP3    H269410   2.076   3.787   0.274 -1.0055  1.3492  0.7917
15999TIP3   OH269411   6.436   5.214   0.037 -0.6121 -0.1819 -0.5877
15999TIP3    H169412   6.472   5.293   0.077 -1.3151  0.3234 -0.9380
15999TIP3    H269413   6.357   5.195   0.088  0.2146 -1.3987  0.3070
16000TIP3   OH269414   0.525   0.576  17.043  0.2935  0.1252 -0.1352
16000TIP3    H169415   0.516   0.608  17.132  3.4417  0.6281  0.1108
16000TIP3    H269416   0.502   0.483  17.048 -1.7948  0.6462  0.6728
16001TIP3   OH269417   2.125   2.311   3.469  0.2972  0.4434 -0.2107
16001TIP3    H169418   2.185   2.293   3.541 -0.0252 -3.1343 -0.6069
16001TIP3    H269419   2.061   2.373   3.505  2.0477  1.3873  1.4255
16002TIP3   OH269420   4.281   1.554   4.072 -0.2768 -0.3773  0.3877
16002TIP3    H169421   4.351   1.505   4.114  0.7771 -0.8983 -1.8155
16002TIP3    H269422   4.257   1.502   3.996 -1.5426  0.8692 -0.1156
16003TIP3   OH269423   4.533   2.075  14.713 -0.0835  0.3944 -0.0817
16003TIP3    H169424   4.628   2.080  14.701 -0.0331  0.2514  0.2492
16003TIP3    H269425   4.509   1.989  14.679 -0.0841  0.3923 -0.0761
16004TIP3   OH269426   0.543   3.906  10.720  0.1222  0.1605 -1.2817
16004TIP3    H169427   0.632   3.941  10.718 -0.1036  1.1914  1.7543
16004TIP3    H269428   0.487   3.984  10.712 -0.4743 -0.2583 -1.2156
16005TIP3   OH269429   4.734   4.306   3.177 -0.7915  0.0929  0.1221
16005TIP3    H169430   4.797   4.367   3.214 -1.8065  0.5507  1.1852
16005TIP3    H269431   4.775   4.220   3.185  1.8507  0.7070 -3.8646
16006TIP3   OH269432   6.191   4.841   2.011 -0.0735  0.3033  0.3226
16006TIP3    H169433   6.266   4.864   2.066 -0.0454 -0.4430  0.6088
16006TIP3    H269434   6.161   4.757   2.045 -1.0047  0.5528  0.1683
16007TIP3   OH269435   6.173   4.608  15.470  0.2211  0.6215 -0.5638
16007TIP3    H169436   6.199   4.553  15.543  0.9563  3.5888  1.6246
16007TIP3    H269437   6.100   4.562  15.430  0.2873 -1.5248  1.5729
16008TIP3   OH269438   4.182   6.522  11.079 -0.2312 -0.1266  0.5524
16008TIP3    H169439   4.170   6.616  11.093 -2.3701 -0.1492 -0.6471
16008TIP3    H269440   4.164   6.510  10.986 -0.7011 -1.8252  0.8351
16009TIP3   OH269441   2.946   5.344   2.317  0.0401 -0.2576  0.5777
16009TIP3    H169442   3.012   5.287   2.357  0.0596 -0.5137  0.1903
16009TIP3    H269443   2.869   5.334   2.373 -0.4279 -1.7952 -0.2783
16010TIP3   OH269444   0.508   0.128  13.141 -0.2991  0.4512 -0.0829
16010TIP3    H169445   0.520   0.215  13.103  0.4304  0.1688 -0.5212
16010TIP3    H269446   0.430   0.137  13.196 -2.2698  0.5576 -2.6560
16011TIP3   OH269447   1.686   0.200  12.950 -0.8046 -0.3822  0.1864
16011TIP3    H169448   1.736   0.118  12.953  1.1109  0.7366  0.0539
16011TIP3    H269449   1.704   0.242  13.034 -0.8284  0.4453 -0.2125
16012TIP3   OH269450   2.421   0.029   3.797 -0.1317  0.2149  0.4364
16012TIP3    H169451   2.329   0.027   3.769  0.5830 -0.9973 -2.1057
16012TIP3    H269452   2.426  -0.035   3.869 -1.5358  1.4896  1.7365
16013TIP3   OH269453   3.227   1.480  13.067 -0.3560  0.0804  0.4465
16013TIP3    H169454   3.318   1.468  13.041  0.0403 -1.5439  2.3371
16013TIP3    H269455   3.219   1.434  13.151 -2.6696  1.0314  0.8516
16014TIP3   OH269456   4.699   4.558  11.683 -0.5732  0.3673 -0.5523
16014TIP3    H169457   4.663   4.631  11.632 -0.3287  0.7750 -0.1519
16014TIP3    H269458   4.793   4.576  11.687 -0.5907  0.3617  0.0601
16015TIP3   OH269459   6.117   4.873   4.347  0.6178 -0.3456 -0.7113
16015TIP3    H169460   6.097   4.815   4.422 -1.0849  1.5358  0.4018
16015TIP3    H269461   6.201   4.912   4.369 -0.5292  1.3021  1.0568
16016TIP3   OH269462   2.426   1.271   6.458  0.8359 -0.4711 -0.0301
16016TIP3    H169463   2.387   1.231   6.537  0.8718  1.2157  0.8846
16016TIP3    H269464   2.418   1.365   6.473  1.5438 -0.1181 -1.7261
16017TIP3   OH269465   0.129   0.732  11.890  0.0233 -0.1039  0.0104
16017TIP3    H169466   0.222   0.754  11.892  0.2250 -0.2364 -2.8648
16017TIP3    H269467   0.087   0.807  11.847 -1.5099  0.5932  2.4890
16018TIP3   OH269468   3.726   0.574  16.288 -0.2841 -0.3602  0.1634
16018TIP3    H169469   3.694   0.484  16.302  0.4255 -0.3850  1.8093
16018TIP3    H269470   3.804   0.581  16.343 -0.2844  1.2600  0.0041
16019TIP3   OH269471   4.804   3.750  13.244 -0.1525  0.3197 -0.1429
16019TIP3    H169472   4.758   3.833  13.250  2.6058  2.0907 -1.4345
16019TIP3    H269473   4.848   3.741  13.328 -0.8561 -0.1253  0.1850
16020TIP3   OH269474   5.279   5.782  11.191  0.7154  0.2919 -0.4175
16020TIP3    H169475   5.343   5.795  11.121  1.7159 -1.3282  0.1558
16020TIP3    H269476   5.233   5.866  11.197  0.9314  0.6348 -2.6662
16021TIP3   OH269477   5.936   5.181   2.763 -0.2303  0.2237 -0.3882
16021TIP3    H169478   6.000   5.252   2.766 -0.0326  0.1231 -1.5963
16021TIP3    H269479   5.851   5.225   2.757 -0.3283  0.3609  1.6070
16022TIP3   OH269480   2.898   6.753   5.413 -0.7290 -0.8225  0.3041
16022TIP3    H169481   2.881   6.697   5.338 -1.2911 -0.1814 -0.0607
16022TIP3    H269482   2.993   6.758   5.419 -0.6713 -1.6853  0.2550
16023TIP3   OH269483   0.999   4.264   1.444 -0.1723  0.5476  0.3797
16023TIP3    H169484   1.058   4.291   1.374  0.9882 -1.1025  0.6626
16023TIP3    H269485   0.963   4.346   1.478  1.8861  1.6293  0.1270
16024TIP3   OH269486   5.677   3.533   3.479 -0.5320 -0.4739 -0.5851
16024TIP3    H169487   5.768   3.554   3.503 -0.0450 -1.4155 -1.5440
16024TIP3    H269488   5.641   3.491   3.557 -0.4425  0.7251  0.1259
16025TIP3   OH269489   5.641   3.590  13.528  0.3145 -0.3908  0.3258
16025TIP3    H169490   5.584   3.540  13.586  2.3525 -1.5008  1.4976
16025TIP3    H269491   5.722   3.601  13.578 -0.3908  5.5742  0.9428
16026TIP3   OH269492   6.298   3.822   5.410  0.0993  0.3522  0.0904
16026TIP3    H169493   6.294   3.906   5.364 -0.5362 -0.2316 -0.9546
16026TIP3    H269494   6.383   3.824   5.455  0.1160  1.5252  0.0385
16027TIP3   OH269495   4.549   0.100  16.524 -0.1495  0.3339  0.0505
16027TIP3    H169496   4.510   0.062  16.603  0.0103 -1.3313 -0.6281
16027TIP3    H269497   4.539   0.032  16.457 -1.1662  2.0531 -1.6695
16028TIP3   OH269498   4.166   4.232   4.642  0.9715  0.0701  0.1549
16028TIP3    H169499   4.090   4.189   4.680  1.1338 -1.3855 -1.0804
16028TIP3    H269500   4.238   4.210   4.701  0.9747 -1.0493 -0.2431
16029TIP3   OH269501   4.991   4.822  16.198  0.1121  0.6771 -0.0415
16029TIP3    H169502   5.065   4.866  16.156  0.3314  0.6902  0.3511
16029TIP3    H269503   4.990   4.857  16.287  2.7704 -2.8398  1.6599
16030TIP3   OH269504   5.068   3.002   1.931 -0.2409 -0.2057  0.0933
16030TIP3    H169505   5.027   3.004   1.844 -0.6389 -1.6575  0.2227
16030TIP3    H269506   5.093   2.911   1.944  1.8727  0.4001  0.5924
16031TIP3   OH269507   1.835   0.332  16.473  0.2658 -0.5307  0.4170
16031TIP3    H169508   1.795   0.253  16.508  1.4341 -1.8803 -1.1104
16031TIP3    H269509   1.773   0.364  16.407  0.4412 -1.0176  0.0142
16032TIP3   OH269510   4.612   0.877   1.946  0.0575 -0.2923 -0.1371
16032TIP3    H169511   4.699   0.916   1.935 -0.0278  0.0511  0.3683
16032TIP3    H269512   4.601   0.821   1.870  0.3567  0.3578 -0.6700
16033TIP3   OH269513   6.612   4.019  13.968  0.2624  0.2369 -0.1348
16033TIP3    H169514   6.691   4.023  14.023  0.3650 -0.5053 -0.2182
16033TIP3    H269515   6.574   4.107  13.975  2.4753  1.4779 -2.1466
16034TIP3   OH269516   2.748   3.438  13.159 -0.1740 -0.2579 -0.4040
16034TIP3    H169517   2.777   3.349  13.138 -0.7240 -0.7569  0.8318
16034TIP3    H269518   2.655   3.429  13.181  0.0242  0.4133  0.8418
16035TIP3   OH269519   4.762   1.665   2.679 -0.3265 -0.2830 -0.3300
16035TIP3    H169520   4.857   1.660   2.693 -0.5172 -1.1634  0.7806
16035TIP3    H269521   4.725   1.661   2.767 -1.3710  1.3685 -0.6590
16036TIP3   OH269522   4.822   2.814  16.734  0.6853  0.1938 -0.4509
16036TIP3    H169523   4.905   2.847  16.768  1.6892 -1.6074 -1.0054
16036TIP3    H269524   4.837   2.806  16.639 -0.1890  0.0401 -0.5836
16037TIP3   OH269525   3.570   6.285   4.928 -0.0605  0.2188  0.5937
16037TIP3    H169526   3.610   6.363   4.889 -1.5910  0.4075 -0.7007
16037TIP3    H269527   3.644   6.239   4.968  1.2036  1.3322 -0.3210
16038TIP3   OH269528   5.446   5.218  13.231  0.1886 -0.0347  0.0451
16038TIP3    H169529   5.431   5.251  13.142 -1.3819  1.1973  0.6950
16038TIP3    H269530   5.444   5.297  13.286 -1.9599 -0.9779  1.4870
16039TIP3   OH269531   4.265   6.645   5.148  0.2408 -0.5148  0.2503
16039TIP3    H169532   4.258   6.739   5.133 -2.6953 -0.7473 -0.3319
16039TIP3    H269533   4.246   6.633   5.241  0.1590 -0.5687  0.2270
16040TIP3   OH269534   0.031   5.661  16.638  0.4942 -0.5431 -0.3909
16040TIP3    H169535   0.115   5.642  16.596  1.0166 -0.3466  0.5343
16040TIP3    H269536   0.050   5.660  16.732 -0.5422 -0.4950 -0.1640
16041TIP3   OH269537   0.848   3.140  11.920  0.0628 -0.2135  1.0395
16041TIP3    H169538   0.803   3.066  11.961 -1.8571 -0.1429 -0.7478
16041TIP3    H269539   0.920   3.099  11.871 -1.3635 -1.0547 -0.4615
16042TIP3   OH269540   1.172   6.654  11.906  0.3489 -0.5605 -0.1020
16042TIP3    H169541   1.258   6.613  11.912  0.5041 -0.0254  1.9173
16042TIP3    H269542   1.175   6.702  11.823  3.1700  1.9486  1.2594
16043TIP3   OH269543   5.841   2.889  15.942 -0.4357  0.4008 -0.2686
16043TIP3    H169544   5.791   2.810  15.961  0.3795 -0.0245  0.1501
16043TIP3    H269545   5.922   2.858  15.901 -0.7202  1.1115 -1.4267
16044TIP3   OH269546   6.214   6.496  11.783 -0.3343  0.6060 -0.0255
16044TIP3    H169547   6.189   6.420  11.836 -0.8573  2.4863  2.6708
16044TIP3    H269548   6.309   6.492  11.778 -0.3874 -0.4674 -0.3255
16045TIP3   OH269549   2.246   5.367   2.033 -0.1640  0.0689 -0.1093
16045TIP3    H169550   2.328   5.410   2.012 -1.8003  3.1411 -0.7145
16045TIP3    H269551   2.207   5.347   1.947 -1.4783  1.6741  0.0722
16046TIP3   OH269552   5.335   4.543   1.036 -0.0706 -0.4638  0.3809
16046TIP3    H169553   5.335   4.624   0.985  2.4801 -0.5618  0.0872
16046TIP3    H269554   5.375   4.568   1.119 -1.8054 -0.8804  1.3922
16047TIP3   OH269555   3.521   0.922  12.705  0.2089 -0.1050  0.5472
16047TIP3    H169556   3.560   1.009  12.701 -2.2858  1.1302  0.7215
16047TIP3    H269557   3.518   0.893  12.614 -1.0061  1.0434  0.1835
16048TIP3   OH269558   4.154   6.111   5.974  0.1994 -0.5030 -0.1520
16048TIP3    H169559   4.211   6.054   5.922  1.4564  0.6386 -0.1008
16048TIP3    H269560   4.129   6.058   6.049  0.8990 -1.1599 -0.3707
16049TIP3   OH269561   0.919   4.628  11.432 -0.5313  0.0965 -0.2321
16049TIP3    H169562   0.858   4.647  11.361  1.2779 -1.2107 -2.2776
16049TIP3    H269563   0.979   4.702  11.432  0.2464 -0.4994 -1.0389
16050TIP3   OH269564   5.547   4.136   2.204 -0.4321 -0.0592  0.2654
16050TIP3    H169565   5.485   4.074   2.165 -1.7094 -0.0626  2.1863
16050TIP3    H269566   5.589   4.087   2.274  1.3308  0.1545 -0.5750
16051TIP3   OH269567   5.617   5.221  15.034 -0.1470 -0.6940 -0.4190
16051TIP3    H169568   5.605   5.278  15.110 -2.3537 -0.3000 -1.0088
16051TIP3    H269569   5.712   5.212  15.026  0.3952  3.6135 -0.8427
16052TIP3   OH269570   0.064   3.659  11.819 -0.0599  0.4572  0.4677
16052TIP3    H169571   0.065   3.755  11.827  0.0515  0.6663 -1.6304
16052TIP3    H269572   0.115   3.629  11.894  1.6244  2.1544  0.0776
16053TIP3   OH269573   4.457   3.009   5.806 -0.1770 -0.2191  0.1706
16053TIP3    H169574   4.508   2.934   5.776  2.8843  2.3213 -1.5943
16053TIP3    H269575   4.490   3.028   5.894  2.7296  1.7817 -1.1839
16054TIP3   OH269576   0.898   3.103  12.901  0.1487 -0.2860 -0.0722
16054TIP3    H169577   0.959   3.042  12.944  0.0230 -0.3682 -0.0116
16054TIP3    H269578   0.886   3.066  12.813  1.6945  0.7461 -0.7860
16055TIP3   OH269579   6.210   0.425  16.202  0.6622 -0.4003  0.5184
16055TIP3    H169580   6.197   0.513  16.167  2.2099 -0.2921  0.1285
16055TIP3    H269581   6.217   0.437  16.296 -0.2661 -0.2651  0.5787
16056TIP3   OH269582   1.871   1.476  16.457 -0.6524 -0.6509  0.2404
16056TIP3    H169583   1.840   1.534  16.388  0.0355 -1.0394 -0.4064
16056TIP3    H269584   1.824   1.504  16.535 -0.8508  0.3135 -0.2156
16057TIP3   OH269585   5.355   0.488   0.352 -0.3631 -0.4032 -0.2213
16057TIP3    H169586   5.349   0.560   0.289 -2.4194  0.1826  0.5533
16057TIP3    H269587   5.270   0.443   0.344 -0.9265  0.0368  2.4885
16058TIP3   OH269588   3.057   6.155  16.827  0.3063  0.0487 -0.2378
16058TIP3    H169589   3.079   6.080  16.771  0.4888 -1.1543  1.3809
16058TIP3    H269590   3.097   6.134  16.912 -0.2773  1.6409  0.4665
16059TIP3   OH269591   6.521   0.115  14.521  0.5129 -0.8582 -0.5654
16059TIP3    H169592   6.543   0.109  14.614  1.2236 -0.6510 -0.7159
16059TIP3    H269593   6.438   0.164  14.520  1.1014  0.1769 -0.1071
16060TIP3   OH269594   0.682   6.095   3.524 -0.1134  0.9053  0.4162
16060TIP3    H169595   0.627   6.027   3.564  1.3197  0.0576  1.0108
16060TIP3    H269596   0.622   6.168   3.510 -1.6548 -0.3735 -0.0239
16061TIP3   OH269597   1.004   1.945   0.476  0.0234 -0.2666 -0.2658
16061TIP3    H169598   0.993   1.882   0.548 -1.0259  0.2781  0.0689
16061TIP3    H269599   0.970   1.900   0.399 -0.2422 -0.2996 -0.1285
16062TIP3   OH269600   5.607   6.524   5.639 -0.6877 -0.0891 -0.0886
16062TIP3    H169601   5.557   6.595   5.599  0.9104  0.7397 -0.6474
16062TIP3    H269602   5.597   6.451   5.578 -0.6317  0.2916 -0.5618
16063TIP3   OH269603   2.229   1.607   1.879 -0.0930  0.0250  0.1197
16063TIP3    H169604   2.285   1.572   1.810  0.6788  0.4462  0.5230
16063TIP3    H269605   2.168   1.535   1.899 -0.3684 -0.0797 -1.0252
16064TIP3   OH269606   1.756   3.325   2.843  0.4029  0.0894  0.9873
16064TIP3    H169607   1.689   3.319   2.912  0.1648 -1.6245  0.6519
16064TIP3    H269608   1.816   3.252   2.861 -0.4380 -1.2914 -1.3622
16065TIP3   OH269609   6.192   1.079  14.638 -0.0449  1.0422 -0.0244
16065TIP3    H169610   6.236   1.100  14.556 -2.4744 -1.0476 -2.0417
16065TIP3    H269611   6.099   1.097  14.621 -0.8424 -1.0971  1.5990
16066TIP3   OH269612   1.195   2.930   1.630 -0.2786 -1.0839  0.1560
16066TIP3    H169613   1.199   2.957   1.722  0.2208 -0.8614  0.0687
16066TIP3    H269614   1.173   3.010   1.582  1.1415 -0.8276 -0.0946
16067TIP3   OH269615   1.458   1.236   3.869 -0.1943 -0.0910 -0.0168
16067TIP3    H169616   1.393   1.168   3.853 -1.3002  0.5314  1.5928
16067TIP3    H269617   1.530   1.191   3.914  0.7652 -0.8701 -2.1914
16068TIP3   OH269618   6.117   2.206  14.022 -0.5150  0.0924  0.0059
16068TIP3    H169619   6.069   2.207  14.105  1.8425  0.9003  1.4655
16068TIP3    H269620   6.077   2.135  13.972 -1.8660 -0.5874  1.9272
16069TIP3   OH269621   6.262   3.363   0.688  0.0372  0.4200  0.2232
16069TIP3    H169622   6.350   3.389   0.714  0.1665  0.3982 -0.1869
16069TIP3    H269623   6.242   3.286   0.742  0.3644  0.2819  0.1479
16070TIP3   OH269624   2.342   2.843  17.155 -0.1705 -0.0090  0.2165
16070TIP3    H169625   2.318   2.851  17.063 -0.5884  1.6244  0.4443
16070TIP3    H269626   2.260   2.824  17.200 -0.0825 -0.1124  0.3346
16071TIP3   OH269627   3.132   0.892   3.673  0.0500  0.5739 -0.0167
16071TIP3    H169628   3.206   0.852   3.719  1.8747  0.9141 -2.4880
16071TIP3    H269629   3.163   0.978   3.647 -1.0832  0.5958 -1.4320
16072TIP3   OH269630   1.277   0.853   3.033 -0.4138 -0.4770  0.3455
16072TIP3    H169631   1.332   0.860   3.111 -0.6191 -2.0032  0.6632
16072TIP3    H269632   1.207   0.793   3.059  0.1362 -1.9320 -1.3433
16073TIP3   OH269633   1.063   5.892   2.840 -0.1020  0.4929  0.2558
16073TIP3    H169634   0.969   5.880   2.831 -0.2435  0.5990  1.4068
16073TIP3    H269635   1.072   5.966   2.900  0.7207  1.2089 -0.7285
16074TIP3   OH269636   6.258   5.125   5.639 -0.5839  0.7426  0.1191
16074TIP3    H169637   6.187   5.067   5.610  0.8611 -0.9684 -0.1479
16074TIP3    H269638   6.274   5.183   5.564  0.4349 -1.0133 -1.0989
16075TIP3   OH269639   2.567   0.019  11.539  0.2835 -0.0980  0.6727
16075TIP3    H169640   2.509   0.073  11.592  1.3814  0.1498  1.6755
16075TIP3    H269641   2.526   0.017  11.453 -1.5451 -0.5041  1.5177
16076TIP3   OH269642   4.859   2.589  11.419  0.1638  0.0139  0.2870
16076TIP3    H169643   4.847   2.525  11.349  1.2520  2.2436 -2.1274
16076TIP3    H269644   4.770   2.610  11.448 -0.3342 -0.7825 -0.5983
16077TIP3   OH269645   4.287   1.911   2.955  0.5650 -0.7154 -0.0830
16077TIP3    H169646   4.348   1.906   3.028  0.8257  1.9597 -0.0144
16077TIP3    H269647   4.342   1.928   2.878  0.0356  1.4005 -0.0674
16078TIP3   OH269648   5.166   4.478  12.623  0.0576 -0.1804  0.8242
16078TIP3    H169649   5.101   4.548  12.634  1.1291  1.2712 -1.2821
16078TIP3    H269650   5.246   4.524  12.600  1.8462 -1.9326  3.0974
16079TIP3   OH269651   1.463   2.532   1.670 -0.2427 -0.2803  0.2429
16079TIP3    H169652   1.408   2.578   1.734 -1.3983  0.9177 -1.5333
16079TIP3    H269653   1.471   2.443   1.705  0.4217  0.6719  2.7956
16080TIP3   OH269654   2.657   0.945   5.272  0.4369  0.2835  0.5110
16080TIP3    H169655   2.623   0.956   5.183 -0.3079 -0.5436  0.6787
16080TIP3    H269656   2.717   1.019   5.284  0.2510  0.6246 -0.5325
16081TIP3   OH269657   3.926   4.980   3.300 -0.3751  0.0740 -0.0411
16081TIP3    H169658   3.978   4.912   3.256  1.6358  0.0847  2.0965
16081TIP3    H269659   3.837   4.968   3.267  0.2044 -2.6515 -0.8501
16082TIP3   OH269660   5.944   4.638   0.434  0.4378 -0.0435 -0.2904
16082TIP3    H169661   5.972   4.552   0.468  0.6528 -0.3369 -1.1858
16082TIP3    H269662   5.857   4.622   0.398  0.2710  0.2312 -0.0065
16083TIP3   OH269663   5.762   1.618  17.045  0.6138  0.0291 -0.2260
16083TIP3    H169664   5.775   1.538  17.097 -1.7378 -0.3304 -0.0485
16083TIP3    H269665   5.727   1.587  16.962  0.9555  0.8189 -0.6731
16084TIP3   OH269666   3.892   6.289  15.682  0.4449  0.0038  0.1223
16084TIP3    H169667   3.955   6.349  15.644  1.5861 -0.0513  1.7970
16084TIP3    H269668   3.810   6.307  15.636  1.3656  0.9962 -1.1966
16085TIP3   OH269669   5.414   3.642   0.499  0.3915 -0.1298  0.1746
16085TIP3    H169670   5.474   3.610   0.431  1.3243  1.4799  0.1958
16085TIP3    H269671   5.328   3.612   0.470  0.9016 -0.3567 -1.2031
16086TIP3   OH269672   2.362   0.184  13.636  0.3780  0.4593  0.3768
16086TIP3    H169673   2.343   0.173  13.543 -3.0731  1.0822  0.8701
16086TIP3    H269674   2.332   0.103  13.676  0.1146  0.9198  1.1296
16087TIP3   OH269675   1.934   1.728   4.258  0.0558  0.1334  0.3072
16087TIP3    H169676   1.942   1.691   4.171  0.4497 -0.5611  0.6350
16087TIP3    H269677   1.924   1.822   4.243  0.3310  0.0441 -0.4729
16088TIP3   OH269678   5.653   1.752   4.648  0.1787  0.1826  0.1125
16088TIP3    H169679   5.573   1.765   4.597 -0.5325  0.7632  1.3386
16088TIP3    H269680   5.723   1.784   4.591 -0.7502  2.2766  0.0555
16089TIP3   OH269681   0.941   2.755  12.561  0.8164 -0.3519  0.1147
16089TIP3    H169682   1.001   2.751  12.635 -1.3929 -0.4436  2.0011
16089TIP3    H269683   0.892   2.672  12.564 -1.2032  0.7716  0.3121
16090TIP3   OH269684   3.992   3.742   2.711 -0.7854 -0.3069  0.3448
16090TIP3    H169685   3.919   3.718   2.767 -0.4346  0.2772  1.0754
16090TIP3    H269686   3.983   3.837   2.699 -2.6391 -0.7737 -3.1812
16091TIP3   OH269687   6.325   2.781  13.393 -0.7879  0.4344 -0.2738
16091TIP3    H169688   6.373   2.834  13.457 -0.7286  1.4793 -1.1707
16091TIP3    H269689   6.241   2.763  13.435 -0.3413  0.1553  0.5454
16092TIP3   OH269690   5.966   3.452   0.784 -0.5041  0.6448 -0.8992
16092TIP3    H169691   6.008   3.482   0.865 -1.8829 -0.4649  0.2708
16092TIP3    H269692   6.039   3.419   0.731  0.6771  3.1145 -0.9832
16093TIP3   OH269693   3.474   1.147   3.302 -0.6464  0.1856  0.4052
16093TIP3    H169694   3.403   1.086   3.282 -0.8181  1.1253 -2.2155
16093TIP3    H269695   3.548   1.116   3.249  0.4376  0.1154  1.9124
16094TIP3   OH269696   6.404   5.310  16.832 -0.0195  0.2312 -0.0322
16094TIP3    H169697   6.404   5.338  16.924 -1.1112  0.5974 -0.1300
16094TIP3    H269698   6.495   5.286  16.814 -0.0720 -1.5045  1.6480
16095TIP3   OH269699   4.026   1.218  12.279  0.0704  0.3707  0.5649
16095TIP3    H169700   4.052   1.310  12.285  0.0086  0.4000  0.4108
16095TIP3    H269701   4.103   1.173  12.244  0.1164  0.3570  0.6863
16096TIP3   OH269702   3.696   5.097  15.314 -0.2390 -0.4521  0.2574
16096TIP3    H169703   3.760   5.083  15.384 -0.1697 -0.5791  0.1685
16096TIP3    H269704   3.661   5.184  15.330 -0.7937 -0.7847  0.9176
16097TIP3   OH269705   6.251   5.617   0.585  0.2196  0.1894  0.0577
16097TIP3    H169706   6.301   5.594   0.663  0.8190 -2.8347 -1.0686
16097TIP3    H269707   6.159   5.607   0.612  0.3829 -3.7179 -0.1454
16098TIP3   OH269708   6.741   2.179   2.690 -0.3490  0.0766 -0.0924
16098TIP3    H169709   6.764   2.167   2.782  2.8234 -1.4515 -0.9391
16098TIP3    H269710   6.773   2.267   2.669 -0.8762  0.3404  0.1930
16099TIP3   OH269711   1.362   3.724   5.491  0.2791  0.3930  0.3447
16099TIP3    H169712   1.398   3.637   5.475  0.6741  0.1710  2.2725
16099TIP3    H269713   1.433   3.783   5.464 -0.4820  0.2369 -2.2626
16100TIP3   OH269714   2.133   2.234   3.197 -0.3799  0.0171 -0.1536
16100TIP3    H169715   2.219   2.195   3.183  0.6509  2.2507 -0.4691
16100TIP3    H269716   2.135   2.263   3.288 -1.0037 -0.3369 -0.0204
16101TIP3   OH269717   4.342   1.957   3.536 -0.0764  0.0684 -0.1515
16101TIP3    H169718   4.248   1.951   3.525 -0.6162  1.6254  2.6632
16101TIP3    H269719   4.371   2.015   3.465 -1.5792  1.1810  0.1001
16102TIP3   OH269720   3.984   5.232   4.528  0.1933 -0.1176  0.0138
16102TIP3    H169721   4.046   5.208   4.460  1.1861  1.8807  0.1314
16102TIP3    H269722   3.908   5.265   4.480 -0.2972 -1.3779 -0.1152
16103TIP3   OH269723   0.666   0.622  15.903 -0.3723 -0.3850  0.0354
16103TIP3    H169724   0.593   0.680  15.922  0.4024  0.7602 -0.3539
16103TIP3    H269725   0.632   0.534  15.917 -0.9552  0.1931  2.8249
16104TIP3   OH269726   0.214   0.977   1.733  1.0854  0.5695 -0.3555
16104TIP3    H169727   0.193   0.908   1.671 -0.1352  0.4850  0.1288
16104TIP3    H269728   0.224   1.056   1.679  1.3026  0.2597 -0.7764
16105TIP3   OH269729   4.617   0.046   1.868 -0.0560 -0.4083  0.6987
16105TIP3    H169730   4.598   0.001   1.950 -1.7181 -0.3085  0.4057
16105TIP3    H269731   4.580   0.134   1.879 -1.7674 -0.8840 -0.6763
16106TIP3   OH269732   4.246   4.114  16.400 -0.1646 -0.1886 -0.2495
16106TIP3    H169733   4.215   4.028  16.371 -0.3114 -0.3837  0.4676
16106TIP3    H269734   4.336   4.097  16.430 -0.7442 -0.4414  1.4376
16107TIP3   OH269735   0.221   0.249  13.561  0.0846  0.4854 -0.1271
16107TIP3    H169736   0.166   0.227  13.636  0.1783  3.1398  0.8245
16107TIP3    H269737   0.179   0.324  13.521  1.6061  0.9298 -0.9763
16108TIP3   OH269738   3.827   3.140   5.170  0.0139  0.2838 -0.0850
16108TIP3    H169739   3.803   3.057   5.128  0.1788  0.4391 -0.4888
16108TIP3    H269740   3.744   3.177   5.199 -0.1802  0.5237 -0.9283
16109TIP3   OH269741   3.491   0.258   6.743 -0.5104  0.1004  0.1727
16109TIP3    H169742   3.453   0.332   6.694 -0.4647 -0.5866 -0.9306
16109TIP3    H269743   3.584   0.262   6.723  0.1084  1.7154  2.7882
16110TIP3   OH269744   6.577   6.271  11.419 -0.4034  0.0563 -0.3598
16110TIP3    H169745   6.586   6.242  11.328  0.2193 -2.3120  0.3922
16110TIP3    H269746   6.613   6.200  11.471  0.9653  2.1294  1.7195
16111TIP3   OH269747   4.924   6.013   1.403 -0.0054 -0.1388 -0.0009
16111TIP3    H169748   4.844   5.978   1.443 -0.6840  1.9543  0.6500
16111TIP3    H269749   4.966   6.060   1.475  0.6784  0.5981 -0.8717
16112TIP3   OH269750   2.487   0.398  11.985  0.1807  0.1461 -0.1534
16112TIP3    H169751   2.474   0.489  11.956 -0.4518  0.4798  1.0850
16112TIP3    H269752   2.403   0.356  11.966 -0.0863  0.2549  0.7570
16113TIP3   OH269753   1.738   6.531  15.110  0.4978  0.2551  0.1938
16113TIP3    H169754   1.760   6.612  15.156 -0.3056  0.2947  0.5286
16113TIP3    H269755   1.781   6.463  15.161  0.5166  0.3985  0.3729
16114TIP3   OH269756   5.034   0.997  11.471 -0.2848 -0.3568 -0.0817
16114TIP3    H169757   5.071   1.011  11.383 -2.3650  0.9962 -0.7944
16114TIP3    H269758   5.025   1.085  11.508  1.4867 -0.9467  1.9689
16115TIP3   OH269759   2.116   0.378  15.000 -0.2069  0.0343  0.4519
16115TIP3    H169760   2.137   0.285  14.998  1.5716  0.4047  0.0339
16115TIP3    H269761   2.051   0.389  14.931  1.2419 -0.5590 -1.0768
16116TIP3   OH269762   2.935   6.099   3.259 -0.4462 -0.3482  0.0169
16116TIP3    H169763   2.957   6.090   3.351  2.7406  0.0330 -0.5905
16116TIP3    H269764   3.020   6.105   3.214 -1.8354 -1.1454 -3.0096
16117TIP3   OH269765   5.987   0.418  14.909  0.1158  0.2059 -0.0483
16117TIP3    H169766   5.942   0.497  14.940  1.8007  0.6556  1.4647
16117TIP3    H269767   6.041   0.448  14.836  0.3844  0.3583  0.2111
16118TIP3   OH269768   5.027   2.618  12.938 -0.0206  0.2347 -0.6626
16118TIP3    H169769   5.113   2.644  12.907 -0.2343  0.3908 -1.1347
16118TIP3    H269770   5.044   2.550  13.002  0.5826  1.6438  0.7536
16119TIP3   OH269771   2.035   3.552   0.660  0.5918  0.4394  0.0200
16119TIP3    H169772   2.109   3.540   0.720 -0.7492 -0.0254  1.6628
16119TIP3    H269773   2.012   3.644   0.669 -0.0678  0.2110  0.8292
16120TIP3   OH269774   5.761   6.036  13.656 -0.2018  0.1939  0.0259
16120TIP3    H169775   5.846   6.049  13.615 -0.5234 -0.2876 -0.8176
16120TIP3    H269776   5.727   6.125  13.670 -0.4944  0.3749 -1.6506
16121TIP3   OH269777   0.284   3.759   2.555  0.2847 -0.5450 -0.2591
16121TIP3    H169778   0.258   3.733   2.467 -0.5339 -0.4856 -0.0465
16121TIP3    H269779   0.224   3.712   2.613 -1.4050  1.8999  0.1374
16122TIP3   OH269780   3.914   3.982   4.077  0.2845  0.1737 -0.4012
16122TIP3    H169781   3.902   4.052   4.013 -0.9471 -1.7293 -2.4322
16122TIP3    H269782   3.833   3.931   4.071  1.0577 -1.3344  1.0937
16123TIP3   OH269783   4.077   4.325  11.217  0.7303 -0.6237 -0.2262
16123TIP3    H169784   4.092   4.413  11.183  0.6477 -0.4594  0.1654
16123TIP3    H269785   4.096   4.331  11.310  1.7686 -1.2784 -0.3801
16124TIP3   OH269786   4.264   6.353  13.560 -0.1763  0.4539  0.1692
16124TIP3    H169787   4.195   6.364  13.495 -1.1028 -0.9896  0.8462
16124TIP3    H269788   4.322   6.286  13.523 -0.1556  0.3534  0.3796
16125TIP3   OH269789   1.116   0.876  16.350  0.0915 -0.2288 -0.7509
16125TIP3    H169790   1.191   0.923  16.389  0.2498  0.4677 -1.8668
16125TIP3    H269791   1.040   0.929  16.374  0.1478  0.0031 -1.0881
16126TIP3   OH269792   2.663   0.518  13.495 -0.1064  0.0318  0.6902
16126TIP3    H169793   2.670   0.510  13.591 -1.2789 -1.2118  0.7010
16126TIP3    H269794   2.669   0.612  13.479 -1.1051  0.3779  2.1158
16127TIP3   OH269795   2.729   5.772   1.133  0.4550  0.0740  0.1024
16127TIP3    H169796   2.667   5.838   1.163 -0.0355  0.0642 -0.8578
16127TIP3    H269797   2.812   5.820   1.123 -0.3710  1.1319 -2.6847
16128TIP3   OH269798   5.595   6.236  15.426  0.1075  0.4089 -0.2710
16128TIP3    H169799   5.604   6.262  15.334  1.9521  0.7201 -0.0354
16128TIP3    H269800   5.538   6.159  15.423  1.6006 -0.6945 -1.8929
16129TIP3   OH269801   2.300   3.451  14.160  0.8197 -0.1288 -0.3931
16129TIP3    H169802   2.393   3.472  14.165  0.5810  0.6958  0.9701
16129TIP3    H269803   2.266   3.468  14.248 -0.4269 -1.3872 -0.5936
16130TIP3   OH269804   5.565   3.930  15.504  0.6401 -1.0723 -0.0772
16130TIP3    H169805   5.488   3.955  15.453  0.7288  0.9636  0.7144
16130TIP3    H269806   5.570   3.835  15.493 -1.1319 -1.0866 -1.3103
16131TIP3   OH269807   5.632   5.177   5.210 -0.0587 -0.7328  0.2062
16131TIP3    H169808   5.633   5.105   5.146  1.4303 -1.9105  1.4607
16131TIP3    H269809   5.686   5.145   5.282 -2.9280 -0.1434  2.8335
16132TIP3   OH269810   4.537   1.002  10.923 -0.5504  0.9019  0.4714
16132TIP3    H169811   4.590   0.925  10.943 -0.1710  1.1238  0.3422
16132TIP3    H269812   4.554   1.019  10.830  1.2831  2.5661  1.0451
16133TIP3   OH269813   0.345   2.995  16.002  0.1945 -0.1200  0.5038
16133TIP3    H169814   0.279   2.948  15.950  1.6510  0.1357 -1.7278
16133TIP3    H269815   0.310   3.084  16.009  0.0839 -0.0815 -0.3338
16134TIP3   OH269816   2.035   5.380  14.652  0.1471  0.4786 -0.2262
16134TIP3    H169817   2.076   5.424  14.577 -0.2538  0.4901 -0.4443
16134TIP3    H269818   2.105   5.373  14.717  0.5191  0.4152 -0.6249
16135TIP3   OH269819   4.396   3.794  12.033 -0.4638  0.0334  0.8511
16135TIP3    H169820   4.459   3.865  12.022 -0.6802  0.3594  1.6751
16135TIP3    H269821   4.395   3.777  12.127 -0.8511 -0.6640  0.7264
16136TIP3   OH269822   1.335   2.352  13.587 -0.5432  0.4851  0.1010
16136TIP3    H169823   1.262   2.403  13.621 -1.8743 -1.1458 -0.1834
16136TIP3    H269824   1.308   2.328  13.498  0.4056 -0.0030 -0.0729
16137TIP3   OH269825   4.609   1.371  14.902 -0.6895 -0.8148  0.0367
16137TIP3    H169826   4.576   1.295  14.951  0.4790 -0.7772  0.9338
16137TIP3    H269827   4.701   1.376  14.926 -0.5887  0.4797 -0.5614
16138TIP3   OH269828   2.326   2.967   0.448 -0.1905 -0.3079 -0.2747
16138TIP3    H169829   2.374   2.995   0.370  0.2629  0.1268  0.1503
16138TIP3    H269830   2.237   3.000   0.435  0.1608  0.7600 -0.0989
16139TIP3   OH269831   3.585   0.570   2.942  0.0225 -0.1444 -0.0545
16139TIP3    H169832   3.615   0.655   2.908 -0.0491 -0.3219 -0.5669
16139TIP3    H269833   3.493   0.565   2.916 -0.2140 -0.0144  0.7083
16140TIP3   OH269834   1.799   4.745  16.538  0.1960  0.3939  0.8350
16140TIP3    H169835   1.727   4.683  16.547 -0.4763  0.5700 -2.1623
16140TIP3    H269836   1.760   4.821  16.494  1.4256  2.1833  2.6289
16141TIP3   OH269837   3.111   0.912   5.275  0.5001  0.0515  0.1073
16141TIP3    H169838   3.077   0.888   5.189 -1.4106  0.7659  0.6136
16141TIP3    H269839   3.148   0.830   5.309 -0.4776 -0.7144 -0.6062
16142TIP3   OH269840   5.594   1.681  13.126 -0.2607  0.1287 -0.1659
16142TIP3    H169841   5.586   1.601  13.177  2.0569 -1.8620 -2.6748
16142TIP3    H269842   5.526   1.674  13.060 -0.4068  0.5404 -0.0648
16143TIP3   OH269843   3.545   5.818   1.644 -0.0755 -0.0311 -0.2320
16143TIP3    H169844   3.568   5.885   1.580 -1.5071  2.5140  1.7140
16143TIP3    H269845   3.451   5.802   1.629 -0.5292  0.8919  1.3617
16144TIP3   OH269846   1.715   0.569  13.741 -0.0992 -0.0606 -0.2138
16144TIP3    H169847   1.719   0.607  13.829  0.6043 -0.5653 -0.0174
16144TIP3    H269848   1.741   0.478  13.753 -0.0920 -0.1615 -0.9345
16145TIP3   OH269849   0.084   3.780  17.211 -0.3705 -0.4577  0.3752
16145TIP3    H169850   0.148   3.760  17.143 -1.8374 -2.1858 -0.5784
16145TIP3    H269851   0.132   3.834  17.274  1.4396 -0.0359 -1.2696
16146TIP3   OH269852   5.031   3.678  16.042 -0.0296  0.0154  0.4241
16146TIP3    H169853   5.077   3.686  16.125 -0.2086  1.6401  0.3966
16146TIP3    H269854   5.084   3.618  15.991  1.7658  1.3554  0.6099
16147TIP3   OH269855   0.917   0.239   2.978  0.1930 -0.3652  0.4224
16147TIP3    H169856   1.010   0.216   2.981 -0.0561 -1.4669  0.0823
16147TIP3    H269857   0.895   0.262   3.068  1.0065  0.8342  0.3381
16148TIP3   OH269858   5.763   0.515  15.985  0.3963 -0.4525  0.2653
16148TIP3    H169859   5.834   0.518  15.921  0.9338  3.2562  0.8267
16148TIP3    H269860   5.687   0.483  15.935  1.8116 -1.9994 -0.9954
16149TIP3   OH269861   0.217   0.386   3.460  0.4828 -0.0205 -0.2394
16149TIP3    H169862   0.126   0.405   3.441  0.1185 -0.3424  1.0645
16149TIP3    H269863   0.247   0.333   3.386 -0.6166 -0.5792 -0.2946
16150TIP3   OH269864   3.648   4.900  13.854  0.3565 -0.2000  0.4941
16150TIP3    H169865   3.721   4.840  13.838  2.0383  1.3138  1.8761
16150TIP3    H269866   3.652   4.962  13.781  0.7902  0.1690  0.8262
16151TIP3   OH269867   0.051   1.331   0.065  0.4888 -0.2158 -0.6044
16151TIP3    H169868   0.050   1.382   0.146  0.1111  1.3087 -1.5324
16151TIP3    H269869   0.143   1.304   0.054  0.3067 -1.7034  1.0455
16152TIP3   OH269870   3.243   5.669   4.671 -0.1108 -0.0409 -0.2184
16152TIP3    H169871   3.307   5.732   4.637  0.7671 -1.2132 -0.7677
16152TIP3    H269872   3.287   5.585   4.668 -1.6782 -0.8890 -0.5914
16153TIP3   OH269873   5.581   5.326   3.790  0.5546 -0.1191 -0.0161
16153TIP3    H169874   5.666   5.298   3.754  0.9330  2.4689 -1.3388
16153TIP3    H269875   5.537   5.244   3.813  2.9188 -1.5987 -0.4086
16154TIP3   OH269876   2.160   4.146  12.006 -0.0966 -0.4066  0.3339
16154TIP3    H169877   2.162   4.072  11.945 -0.9863  0.6382 -1.0227
16154TIP3    H269878   2.118   4.111  12.085 -0.8794 -1.2408 -0.4347
16155TIP3   OH269879   6.472   5.654  11.689 -0.1257  0.3474 -0.3804
16155TIP3    H169880   6.502   5.627  11.776  0.7606 -0.2183 -0.8465
16155TIP3    H269881   6.381   5.627  11.685 -0.0795  0.0895  0.2655
16156TIP3   OH269882   2.091   3.594  14.042  0.4629  0.3953 -0.2371
16156TIP3    H169883   2.028   3.632  14.103 -0.9348  0.9116 -1.9209
16156TIP3    H269884   2.147   3.539  14.097 -1.8113 -0.5743  1.2731
16157TIP3   OH269885   4.775   0.815  16.182 -0.4311  0.6039  0.2631
16157TIP3    H169886   4.718   0.856  16.246  1.1097 -2.3037  3.8683
16157TIP3    H269887   4.733   0.731  16.163  0.4928  0.2804 -0.4485
16158TIP3   OH269888   0.643   2.422  13.216  0.1085 -0.1421 -0.0084
16158TIP3    H169889   0.656   2.349  13.277 -1.6887 -0.5855 -0.1117
16158TIP3    H269890   0.702   2.404  13.143  2.1713  0.2968  1.4446
16159TIP3   OH269891   1.872   3.851   3.163  0.4817 -0.7493 -0.3807
16159TIP3    H169892   1.876   3.763   3.198  2.0468 -0.9100 -0.8940
16159TIP3    H269893   1.796   3.850   3.105 -0.3113 -1.3494  0.6398
16160TIP3   OH269894   4.181   6.320  16.241 -0.5849  0.2445  0.7250
16160TIP3    H169895   4.107   6.379  16.227 -1.1154 -0.3090  1.1636
16160TIP3    H269896   4.196   6.324  16.336  0.4997  1.0015  0.5517
16161TIP3   OH269897   5.074   1.210  17.134 -0.7700  0.7123 -0.2901
16161TIP3    H169898   5.001   1.273  17.138  1.0589  2.9418  0.0978
16161TIP3    H269899   5.136   1.242  17.201 -0.0690 -1.9863  0.4505
16162TIP3   OH269900   0.698   5.765   3.532  0.3407  0.7666 -0.0504
16162TIP3    H169901   0.607   5.765   3.502  0.3006  0.9747  0.0731
16162TIP3    H269902   0.743   5.825   3.473  0.8978 -1.0734 -1.6237
16163TIP3   OH269903   6.305   1.035   0.514 -0.2345  0.3720  0.3369
16163TIP3    H169904   6.385   1.073   0.478 -0.4440  0.2974 -0.2243
16163TIP3    H269905   6.277   1.098   0.580 -0.9331  1.5795 -1.0345
16164TIP3   OH269906   0.944   4.198  15.481  0.0016 -0.0815 -0.1474
16164TIP3    H169907   1.002   4.213  15.556 -1.0106 -3.6464  1.5117
16164TIP3    H269908   0.856   4.199  15.517 -0.7891  1.2088 -1.9344
16165TIP3   OH269909   4.677   1.731   4.209 -0.4322 -0.2777  0.0487
16165TIP3    H169910   4.614   1.721   4.138 -0.5387  0.0097  0.0984
16165TIP3    H269911   4.624   1.728   4.289 -0.3747 -0.1267  0.0940
16166TIP3   OH269912   5.236   1.695   1.965  0.1980 -0.2025  0.0812
16166TIP3    H169913   5.170   1.706   1.897 -0.2544  0.8583  0.6741
16166TIP3    H269914   5.221   1.606   1.999  0.0053 -0.4913 -0.7374
16167TIP3   OH269915   2.737   4.831  15.526 -0.0261  0.7840  0.2214
16167TIP3    H169916   2.750   4.792  15.440 -1.0105 -0.1391  0.4712
16167TIP3    H269917   2.728   4.756  15.585  0.5364  1.4037  1.1132
16168TIP3   OH269918   4.611   5.446   2.727  0.4487  0.2487 -0.1202
16168TIP3    H169919   4.678   5.502   2.767  1.0684 -0.0467 -0.7124
16168TIP3    H269920   4.650   5.358   2.729 -0.6838 -0.2518  1.1866
16169TIP3   OH269921   5.778   0.064   1.609  0.8098 -0.2045 -0.3839
16169TIP3    H169922   5.784   0.131   1.677 -0.5729  0.3181 -0.7449
16169TIP3    H269923   5.779   0.113   1.527 -0.4851 -0.5806 -0.6419
16170TIP3   OH269924   4.006   5.963   4.466  0.0659 -0.2354  0.3563
16170TIP3    H169925   3.999   6.058   4.457  1.2526  0.1338  2.5324
16170TIP3    H269926   4.060   5.935   4.392 -0.2767  0.7715 -0.2885
16171TIP3   OH269927   4.594   1.418   4.330 -0.3300  0.4043  0.3444
16171TIP3    H169928   4.634   1.459   4.407  1.3575 -0.6524  0.0591
16171TIP3    H269929   4.536   1.351   4.366  0.6293 -0.2446  0.6979
16172TIP3   OH269930   1.582   4.097   3.387 -0.0424 -0.1044  0.1123
16172TIP3    H169931   1.515   4.165   3.394 -1.2208 -1.2265  0.2364
16172TIP3    H269932   1.665   4.145   3.378 -0.7987  1.3257  0.4698
16173TIP3   OH269933   0.865   1.746  13.718 -0.0945  0.3351  0.5261
16173TIP3    H169934   0.823   1.831  13.704 -0.8674  0.0169  0.8256
16173TIP3    H269935   0.822   1.711  13.796 -1.7561 -1.5227 -1.1177
16174TIP3   OH269936   5.280   3.970   4.516 -0.3440  0.1898 -0.0443
16174TIP3    H169937   5.343   4.019   4.462 -0.4235  1.7287  1.1772
16174TIP3    H269938   5.334   3.906   4.562 -0.1383 -0.5056 -1.2240
16175TIP3   OH269939   5.485   1.985   4.148 -0.6288 -0.2844  0.1799
16175TIP3    H169940   5.549   2.005   4.216 -0.9558  4.5356 -0.5549
16175TIP3    H269941   5.536   1.945   4.078  0.6245 -0.8551  1.3686
16176TIP3   OH269942   6.715   3.629   4.430 -0.0354  0.3932 -0.4926
16176TIP3    H169943   6.768   3.550   4.433 -0.8841 -0.1501  1.3842
16176TIP3    H269944   6.633   3.602   4.388 -0.1564  0.3810 -0.2502
16177TIP3   OH269945   5.414   2.418  12.770 -0.3763 -0.2327 -0.6188
16177TIP3    H169946   5.414   2.323  12.786  0.7131 -0.2733 -0.8282
16177TIP3    H269947   5.373   2.427  12.684  0.1942 -0.5795 -0.9319
16178TIP3   OH269948   5.401   0.387  16.495 -0.2628 -0.5619  0.2044
16178TIP3    H169949   5.321   0.338  16.515 -0.1508 -0.4348  1.0368
16178TIP3    H269950   5.457   0.371  16.571  1.1838 -2.0071 -1.0988
16179TIP3   OH269951   1.095   1.569   0.548 -0.4092 -0.4117 -0.1673
16179TIP3    H169952   1.107   1.627   0.623 -2.2816 -0.0817 -0.0538
16179TIP3    H269953   1.052   1.624   0.482 -0.5155 -1.1843 -0.7647
16180TIP3   OH269954   5.881   6.274  15.681 -0.2932  0.2248 -0.3062
16180TIP3    H169955   5.818   6.272  15.609 -1.6799 -2.2029  0.8280
16180TIP3    H269956   5.842   6.333  15.746 -1.3760 -1.1099  0.3032
16181TIP3   OH269957   4.916   6.083  16.602 -0.2191  0.4722  0.0798
16181TIP3    H169958   4.986   6.139  16.634 -1.1946  2.1010 -0.5465
16181TIP3    H269959   4.902   6.020  16.673  3.4053 -1.5026 -0.6628
16182TIP3   OH269960   2.165   0.167   6.247  0.1701  0.3623 -0.2114
16182TIP3    H169961   2.146   0.073   6.246 -2.0418  0.7381 -0.4090
16182TIP3    H269962   2.234   0.177   6.312  1.0731 -1.4809 -0.8218
16183TIP3   OH269963   6.076   4.697   1.650  0.1140 -0.2670  0.4026
16183TIP3    H169964   6.081   4.623   1.710  0.8786 -0.3409  0.2612
16183TIP3    H269965   6.152   4.686   1.592 -0.9049 -0.5178 -0.9504
16184TIP3   OH269966   0.262   6.741   2.128  0.1217  0.4850 -0.6858
16184TIP3    H169967   0.295   6.725   2.216 -1.1516 -1.5819 -0.5078
16184TIP3    H269968   0.332   6.714   2.070  1.1143  2.2065 -0.3756
16185TIP3   OH269969   1.434   2.418   4.338 -0.3698  0.2347 -0.1259
16185TIP3    H169970   1.493   2.388   4.408  0.7251 -0.6810 -1.3976
16185TIP3    H269971   1.435   2.513   4.345 -1.1756  0.1644  1.7939
16186TIP3   OH269972   4.269   0.406   0.186 -0.4472  0.1913 -0.2653
16186TIP3    H169973   4.263   0.384   0.279  1.3362  1.2906  0.1495
16186TIP3    H269974   4.291   0.323   0.143  0.2733 -0.0240  0.4993
16187TIP3   OH269975   3.438   2.138   0.350 -0.0500  0.3042  0.0741
16187TIP3    H169976   3.367   2.080   0.378 -0.2852  1.0445  1.0772
16187TIP3    H269977   3.397   2.197   0.287 -0.3920  0.8408  0.7785
16188TIP3   OH269978   2.846   3.248   3.325 -0.3427 -0.1348  0.2940
16188TIP3    H169979   2.798   3.276   3.247 -3.1152 -1.5281  1.3436
16188TIP3    H269980   2.792   3.278   3.398  2.1186  1.0361  1.7508
16189TIP3   OH269981   0.039   6.724   5.062 -0.4632 -0.0108  0.3942
16189TIP3    H169982   0.011   6.787   5.128 -0.7505 -0.0461  0.3058
16189TIP3    H269983   0.008   6.760   4.979 -1.3011 -0.6461  0.4201
16190TIP3   OH269984   1.667   4.750   0.842  0.7038  0.0561  0.4824
16190TIP3    H169985   1.697   4.799   0.765 -1.5942  0.2230 -0.3857
16190TIP3    H269986   1.651   4.662   0.810  0.6037 -0.1159  0.9964
16191TIP3   OH269987   5.454   1.084   0.309  0.2083  0.3494  0.5204
16191TIP3    H169988   5.464   1.085   0.214  0.9910  0.4821  0.6028
16191TIP3    H269989   5.405   1.004   0.327  1.9719 -0.8510  0.1880
16192TIP3   OH269990   0.416   0.641  13.049  0.2054 -0.2950  0.3152
16192TIP3    H169991   0.393   0.610  12.962 -0.6289  0.9855  0.0508
16192TIP3    H269992   0.428   0.736  13.039  3.1348 -0.4920  0.9758
16193TIP3   OH269993   0.993   4.601  12.346 -0.3456 -0.0933 -0.2478
16193TIP3    H169994   0.918   4.625  12.292  1.3255  1.8892 -1.8917
16193TIP3    H269995   0.956   4.586  12.433 -2.8806 -1.3902 -1.4294
16194TIP3   OH269996   1.188   0.862   1.304  0.3582  0.7880 -0.2646
16194TIP3    H169997   1.216   0.948   1.273 -1.4182  1.5016  0.0194
16194TIP3    H269998   1.173   0.811   1.224 -0.6640  1.4488 -0.5095
16195TIP3   OH269999   1.388   4.615  17.337 -0.5188 -0.8024  0.2811
16195TIP3    H170000   1.456   4.618  17.405 -0.5784 -1.1704  0.3596
16195TIP3    H270001   1.383   4.705  17.305 -0.1133 -0.7352  0.3915
16196TIP3   OH270002   5.732   6.022  16.398 -0.6238  0.0523  0.7191
16196TIP3    H170003   5.706   6.029  16.306 -0.0994 -0.3097  0.5389
16196TIP3    H270004   5.769   5.934  16.405 -2.3479 -0.6430  1.7039
16197TIP3   OH270005   4.607   5.333  12.005  0.1893 -0.1346  0.2443
16197TIP3    H170006   4.529   5.289  12.039 -0.7142  2.3416  1.6903
16197TIP3    H270007   4.582   5.359  11.916 -0.3765  0.0012  0.4351
16198TIP3   OH270008   5.501   0.859  15.800 -0.2224 -0.3397 -0.5187
16198TIP3    H170009   5.475   0.771  15.774 -0.8056 -0.8297  1.6089
16198TIP3    H270010   5.428   0.892  15.852  0.2058  1.2131 -0.8376
16199TIP3   OH270011   2.415   3.046  11.275 -0.4107 -0.2562 -0.1086
16199TIP3    H170012   2.502   3.010  11.257 -0.1543  0.3865 -0.1927
16199TIP3    H270013   2.354   2.977  11.250  0.1263 -1.4411  1.6827
16200TIP3   OH270014   2.584   0.273  13.310  0.2809 -0.2206  0.0965
16200TIP3    H170015   2.659   0.215  13.303 -0.2752 -0.9865  0.3450
16200TIP3    H270016   2.616   0.359  13.282  1.3318 -0.4595  0.5464
16201TIP3   OH270017   5.642   4.559  14.096  0.5548 -0.2230  0.3284
16201TIP3    H170018   5.710   4.589  14.036 -0.1747 -1.2187 -1.0774
16201TIP3    H270019   5.601   4.486  14.050 -1.5869  0.4621  1.0529
16202TIP3   OH270020   1.382   1.619  11.098 -0.1728 -0.1321 -0.4941
16202TIP3    H170021   1.361   1.535  11.057  0.8006  0.3497 -2.0558
16202TIP3    H270022   1.471   1.607  11.133  0.2981  0.4503 -1.4260
16203TIP3   OH270023   0.455   4.931  14.388 -0.6129 -0.4537  0.5867
16203TIP3    H170024   0.543   4.964  14.409 -0.8429  0.9540 -0.5161
16203TIP3    H270025   0.440   4.959  14.298 -2.8870  0.8866  1.3020
16204TIP3   OH270026   1.960   6.142  13.306 -0.2249 -0.2237  0.0139
16204TIP3    H170027   2.033   6.110  13.359 -0.1898 -0.0395  0.0769
16204TIP3    H270028   2.001   6.191  13.235 -0.3357  1.7633  1.2584
16205TIP3   OH270029   4.898   2.736  15.613  0.5816  0.2640  0.0870
16205TIP3    H170030   4.823   2.729  15.672  1.2241 -1.2002  0.7714
16205TIP3    H270031   4.928   2.646  15.600 -1.1762  0.0448 -4.7154
16206TIP3   OH270032   0.105   5.651  15.924  0.2036 -0.1430  0.3136
16206TIP3    H170033   0.117   5.745  15.937  1.4068 -0.4494  1.7242
16206TIP3    H270034   0.186   5.623  15.881 -0.5430 -0.4089 -0.9704
16207TIP3   OH270035   5.635   3.709  15.712 -0.5658 -0.0641  0.7914
16207TIP3    H170036   5.657   3.625  15.672  0.0431  0.7354 -0.6476
16207TIP3    H270037   5.544   3.724  15.686 -0.5008 -0.0377  0.5708
16208TIP3   OH270038   5.466   1.550  16.498  0.2834  0.6073 -0.2207
16208TIP3    H170039   5.553   1.518  16.476 -0.2150 -0.9171 -0.1041
16208TIP3    H270040   5.467   1.642  16.473  2.0079  0.6850  0.0397
16209TIP3   OH270041   5.811   4.946   4.027 -1.4607 -0.2991  0.0153
16209TIP3    H170042   5.815   5.015   4.093 -1.6608 -0.7804  0.5427
16209TIP3    H270043   5.835   4.989   3.945 -2.5241  0.6134  0.1666
16210TIP3   OH270044   4.661   3.538  13.154  0.4215  0.6504  0.0512
16210TIP3    H170045   4.700   3.618  13.188  0.7983  0.5066 -0.0363
16210TIP3    H270046   4.621   3.564  13.071  0.8522  0.6755 -0.1521
16211TIP3   OH270047   0.089   0.777  15.038  0.2779  0.0553 -0.1149
16211TIP3    H170048   0.149   0.832  14.988  0.6049  0.0827  0.2984
16211TIP3    H270049   0.042   0.839  15.094 -0.4126  0.0792 -0.7053
16212TIP3   OH270050   2.756   5.801   3.147  0.0756 -0.5752 -0.3574
16212TIP3    H170051   2.711   5.869   3.097 -0.1325 -0.6903 -0.3318
16212TIP3    H270052   2.798   5.848   3.219  2.4071 -0.0680 -1.9428
16213TIP3   OH270053   1.035   0.500   0.285  0.6203 -0.1074 -0.1956
16213TIP3    H170054   1.097   0.500   0.212  1.4050  2.1330  0.3904
16213TIP3    H270055   1.090   0.519   0.362 -0.0092 -3.3182  1.2270
16214TIP3   OH270056   4.859   6.224   2.466 -0.5698 -0.2836 -0.2796
16214TIP3    H170057   4.787   6.167   2.440 -0.3247  0.1995 -2.2043
16214TIP3    H270058   4.886   6.266   2.384  0.8320  0.7642  0.6822
16215TIP3   OH270059   1.187   4.723   3.059  1.0980  0.1040  0.2075
16215TIP3    H170060   1.148   4.641   3.029 -0.5476  1.0923 -0.5206
16215TIP3    H270061   1.249   4.697   3.127 -0.3534 -1.6386  0.9418
16216TIP3   OH270062   1.811   3.742  15.351  0.1618 -0.0613  0.8315
16216TIP3    H170063   1.861   3.821  15.328  1.3849 -0.7495  1.0692
16216TIP3    H270064   1.777   3.710  15.267  1.2287 -0.3057  0.4736
16217TIP3   OH270065   2.796   1.033  16.444 -0.0849  0.2124 -0.0691
16217TIP3    H170066   2.849   1.030  16.365  2.0267  1.5236  1.2162
16217TIP3    H270067   2.751   1.118  16.440 -1.5249 -0.5331 -0.7337
16218TIP3   OH270068   0.619   6.556  16.726  0.3564  0.3161  0.0830
16218TIP3    H170069   0.651   6.576  16.814 -0.8716  1.3917  0.3078
16218TIP3    H270070   0.694   6.572  16.669  1.1645 -0.3864  0.9047
16219TIP3   OH270071   2.789   4.644  13.720 -0.6909  0.2270 -0.3350
16219TIP3    H170072   2.702   4.674  13.746 -0.8933  1.2501 -2.0183
16219TIP3    H270073   2.817   4.708  13.654  1.5254  0.1753  0.4621
16220TIP3   OH270074   4.090   0.914   5.118 -0.1411  0.1313 -0.0115
16220TIP3    H170075   4.146   0.941   5.190 -0.5001  1.2231 -0.1308
16220TIP3    H270076   4.020   0.979   5.116 -0.8752 -0.6484 -0.4927
16221TIP3   OH270077   2.138   1.974   5.307 -0.4413  0.1425  0.0571
16221TIP3    H170078   2.083   1.914   5.256 -0.4892 -1.5481  1.9690
16221TIP3    H270079   2.098   1.974   5.395  0.1253  2.2689  0.3660
16222TIP3   OH270080   5.607   3.320  12.664  0.7341  0.1544  0.2193
16222TIP3    H170081   5.676   3.323  12.598 -0.3403  1.6952 -0.9047
16222TIP3    H270082   5.585   3.227  12.672  2.6525 -0.3261  0.3495
16223TIP3   OH270083   4.461   1.648   1.554 -0.2138 -0.3931  0.2568
16223TIP3    H170084   4.481   1.707   1.627  2.3853 -0.6383 -0.1397
16223TIP3    H270085   4.418   1.573   1.594  0.3871 -0.1307  1.4301
16224TIP3   OH270086   1.731   1.533  16.706 -0.0500  0.3738  0.6270
16224TIP3    H170087   1.647   1.524  16.752  0.1251 -1.4814  0.6551
16224TIP3    H270088   1.790   1.474  16.753  0.3027 -1.1019 -1.5495
16225TIP3   OH270089   2.124   1.194  11.880 -0.0036  0.1018  0.1443
16225TIP3    H170090   2.190   1.249  11.924  0.9889 -0.8449 -0.1155
16225TIP3    H270091   2.053   1.186  11.944  1.0574 -0.5980  1.2901
16226TIP3   OH270092   0.550   6.169   3.959 -0.2883 -0.5160  0.9748
16226TIP3    H170093   0.457   6.152   3.975 -0.7038 -0.1400 -0.7721
16226TIP3    H270094   0.557   6.265   3.958 -0.5878 -0.4300 -2.0868
16227TIP3   OH270095   0.173   5.922   4.919 -0.0713  0.0181  0.0234
16227TIP3    H170096   0.085   5.885   4.933 -0.0251 -1.0821 -2.2024
16227TIP3    H270097   0.209   5.931   5.007 -2.1441 -0.1491  0.9616
16228TIP3   OH270098   4.827   4.106  12.050 -0.4833  0.3614 -0.0986
16228TIP3    H170099   4.901   4.156  12.084 -0.6753 -0.2334  1.2934
16228TIP3    H270100   4.799   4.153  11.972  1.5405  0.4369 -0.8241
16229TIP3   OH270101   1.405   0.472  14.835  0.1524 -0.3271  0.0761
16229TIP3    H170102   1.330   0.451  14.779  0.6886  1.5742 -1.4908
16229TIP3    H270103   1.386   0.430  14.918 -1.9667 -1.0888 -0.7340
16230TIP3   OH270104   5.613   1.419   4.997  0.4048 -0.2608 -0.4831
16230TIP3    H170105   5.609   1.323   4.998 -1.5024 -0.2291 -0.7227
16230TIP3    H270106   5.545   1.444   4.934  2.0384  1.2272 -1.7323
16231TIP3   OH270107   6.160   1.096  12.499  0.3558 -0.1789  0.5529
16231TIP3    H170108   6.107   1.077  12.421 -2.2855  0.2603  2.1167
16231TIP3    H270109   6.201   1.013  12.520 -2.7533 -1.6460  1.3636
16232TIP3   OH270110   6.386   6.181   3.479 -0.2422  0.6585 -1.1301
16232TIP3    H170111   6.441   6.141   3.546 -2.3262 -2.2124 -0.9448
16232TIP3    H270112   6.322   6.233   3.528  0.9646  2.3073 -1.2332
16233TIP3   OH270113   2.176   1.580  13.958 -0.1543  0.3038  0.1276
16233TIP3    H170114   2.133   1.587  13.872 -0.7181 -1.0519  0.2742
16233TIP3    H270115   2.104   1.563  14.019  0.4271 -0.6736  0.5685
16234TIP3   OH270116   2.469   1.899  15.059 -0.2620  0.4020 -0.0426
16234TIP3    H170117   2.439   1.940  14.977  0.0170 -1.0868 -0.9197
16234TIP3    H270118   2.476   1.806  15.038  2.0784  0.2897  1.0065
16235TIP3   OH270119   3.194   3.991   3.610 -0.0143 -0.1565  0.3746
16235TIP3    H170120   3.205   4.077   3.568  0.6908 -0.1105  0.6444
16235TIP3    H270121   3.211   3.928   3.540  2.8909 -0.1060  0.9173
16236TIP3   OH270122   2.590   4.476   3.432 -0.1295 -0.5592  0.2352
16236TIP3    H170123   2.545   4.482   3.516  0.2293  0.6374  0.3643
16236TIP3    H270124   2.528   4.514   3.369  0.3346  0.2826  0.2727
16237TIP3   OH270125   0.080   1.170  13.754 -0.2274 -0.1736 -0.8352
16237TIP3    H170126   0.002   1.124  13.724  0.7355 -1.7859 -1.0356
16237TIP3    H270127   0.074   1.168  13.849 -1.0669  0.8969 -0.8569
16238TIP3   OH270128   2.517   6.746   5.873  0.6039  0.0974 -0.0518
16238TIP3    H170129   2.572   6.742   5.951 -0.2377 -1.3353  0.5131
16238TIP3    H270130   2.435   6.786   5.903 -0.2780 -1.8088  0.1934
16239TIP3   OH270131   1.190   4.304  14.634 -0.0242  0.1678 -0.1456
16239TIP3    H170132   1.121   4.239  14.620  1.1366 -1.0348 -0.5119
16239TIP3    H270133   1.271   4.259  14.609  1.0673  1.0717  1.5481
16240TIP3   OH270134   0.515   1.059   1.436  0.1326  0.1816  0.2300
16240TIP3    H170135   0.432   1.023   1.403 -0.1107  0.8743  0.0632
16240TIP3    H270136   0.570   1.069   1.358 -0.6266  2.3083 -0.1160
16241TIP3   OH270137   1.448   6.683   0.357  0.1274  0.4642  0.2448
16241TIP3    H170138   1.418   6.742   0.426 -0.0800 -0.3689  0.8796
16241TIP3    H270139   1.369   6.664   0.306  0.3129  1.2163 -0.3437
16242TIP3   OH270140   3.649   4.760  13.570 -0.5696 -0.0536 -0.0324
16242TIP3    H170141   3.612   4.672  13.578 -0.4289 -0.0403  0.8983
16242TIP3    H270142   3.585   4.816  13.615 -0.9690  0.4127 -1.1535
16243TIP3   OH270143   5.581   1.086  16.382 -0.7899 -0.1105 -0.0592
16243TIP3    H170144   5.551   1.068  16.293 -1.0340  0.0661 -0.0134
16243TIP3    H270145   5.669   1.049  16.386 -1.0599 -0.7742 -0.1508
16244TIP3   OH270146   6.492   2.970   4.932 -0.4331 -0.7042  0.5344
16244TIP3    H170147   6.422   2.979   4.867  0.1688 -0.8962 -0.1595
16244TIP3    H270148   6.448   2.975   5.016 -1.5735 -2.8470  0.1373
16245TIP3   OH270149   1.801   3.302  11.634 -0.2144 -1.0777 -0.4832
16245TIP3    H170150   1.738   3.248  11.682 -0.9979 -0.3962 -0.7028
16245TIP3    H270151   1.773   3.294  11.542  0.1708 -0.9579 -0.6129
16246TIP3   OH270152   3.636   5.622   1.345 -0.6270  0.0916 -0.1970
16246TIP3    H170153   3.620   5.608   1.438 -0.5662 -1.6881 -0.4144
16246TIP3    H270154   3.590   5.550   1.302 -0.8668  1.0300 -1.5738
16247TIP3   OH270155   5.457   2.365   0.385  0.1664 -0.0760 -0.8291
16247TIP3    H170156   5.542   2.321   0.380 -0.0134 -0.5941  0.3271
16247TIP3    H270157   5.430   2.355   0.477 -1.0393  0.2792 -1.1266
16248TIP3   OH270158   3.831   0.110  14.417  0.4731 -0.3549  0.2309
16248TIP3    H170159   3.923   0.127  14.396  0.0575  0.5192 -0.9758
16248TIP3    H270160   3.804   0.184  14.472  0.1018  0.1941 -0.6626
16249TIP3   OH270161   1.801   0.504  13.423  0.2220  0.1338  0.5569
16249TIP3    H170162   1.843   0.544  13.347  0.2394  0.3797  0.6949
16249TIP3    H270163   1.834   0.554  13.498 -2.2285  2.0372  0.5009
16250TIP3   OH270164   5.633   1.691  11.008  0.2683 -0.3807 -0.3400
16250TIP3    H170165   5.705   1.706  11.070  0.2951  1.2498 -0.7052
16250TIP3    H270166   5.612   1.778  10.975 -2.7763 -0.5969  0.7105
16251TIP3   OH270167   6.719   5.215   2.412  0.4043 -0.5260 -0.3105
16251TIP3    H170168   6.643   5.161   2.389 -0.2386  0.4877 -0.6309
16251TIP3    H270169   6.783   5.196   2.344 -0.5801  0.6090 -1.6248
16252TIP3   OH270170   0.224   1.049   3.045 -0.3079  0.1470 -0.1128
16252TIP3    H170171   0.179   0.966   3.057  1.2383 -0.6592  0.3485
16252TIP3    H270172   0.300   1.044   3.103  0.7648  1.1668 -1.3768
16253TIP3   OH270173   1.346   1.021   3.707 -0.0324  0.1214 -0.1107
16253TIP3    H170174   1.287   0.951   3.738 -0.5511  1.0796  1.1680
16253TIP3    H270175   1.287   1.093   3.683  0.5440  0.4768 -0.4718
16254TIP3   OH270176   5.991   3.372   5.631  0.4706  0.0619  0.1615
16254TIP3    H170177   5.990   3.305   5.699 -1.3159  1.6096  1.7361
16254TIP3    H270178   5.915   3.427   5.649  0.5277  1.1677 -2.4797
16255TIP3   OH270179   4.447   6.031   6.107  0.5065 -0.1705 -0.3439
16255TIP3    H170180   4.370   5.996   6.152  0.5094 -0.4607 -0.5691
16255TIP3    H270181   4.447   6.124   6.130  0.7863 -0.4036  0.6732
16256TIP3   OH270182   6.203   1.748   3.949  0.1370  0.0493 -0.3040
16256TIP3    H170183   6.137   1.775   3.884  0.6484 -1.2105 -1.3909
16256TIP3    H270184   6.286   1.779   3.913  0.3214  0.2512  0.2867
16257TIP3   OH270185   2.051   3.222   1.121  0.1294 -0.2193 -0.0606
16257TIP3    H170186   2.138   3.213   1.082 -0.4842 -1.1689 -1.2706
16257TIP3    H270187   2.036   3.139   1.166 -1.5350 -1.5576 -2.8544
16258TIP3   OH270188   6.057   3.599   5.204 -0.5066  0.4656 -0.0197
16258TIP3    H170189   6.126   3.664   5.194  0.4441 -0.7405 -1.8717
16258TIP3    H270190   6.094   3.533   5.262 -0.3735  0.1605 -0.4528
16259TIP3   OH270191   4.282   2.662   6.393 -0.1410 -0.3393 -0.2756
16259TIP3    H170192   4.208   2.718   6.419 -0.7972 -0.5502 -1.6466
16259TIP3    H270193   4.242   2.578   6.370  0.6960 -0.9291  0.3660
16260TIP3   OH270194   1.845   0.933  15.202  0.1681  0.0926  0.3167
16260TIP3    H170195   1.814   0.889  15.123  1.9250 -3.8631  1.5820
16260TIP3    H270196   1.898   1.006  15.169  0.2838 -1.0043 -2.1434
16261TIP3   OH270197   4.879   1.821  11.430  0.1153  0.0725  0.0890
16261TIP3    H170198   4.946   1.834  11.363  1.3558 -1.1649  1.0293
16261TIP3    H270199   4.879   1.727  11.447 -1.5220  0.1111  0.4976
16262TIP3   OH270200   5.714   1.636   0.816 -0.0563  0.3462 -0.1733
16262TIP3    H170201   5.773   1.575   0.771 -0.5990 -1.4658  1.4473
16262TIP3    H270202   5.633   1.587   0.827 -0.3733  1.2001  1.5553
16263TIP3   OH270203   4.535   5.781  16.094  0.2802  0.1105 -0.0719
16263TIP3    H170204   4.605   5.788  16.030 -0.5117 -0.8893 -1.0822
16263TIP3    H270205   4.552   5.698  16.139  0.0499  0.1371  0.0658
16264TIP3   OH270206   0.043   1.276   2.214  0.7484  0.1418 -0.5183
16264TIP3    H170207   0.117   1.302   2.159  0.5966  1.0599 -0.3098
16264TIP3    H270208   0.044   1.339   2.286  0.3644 -0.4568  0.0236
16265TIP3   OH270209   5.680   5.951   6.246  0.2057  0.8569 -0.3107
16265TIP3    H170210   5.610   5.983   6.188 -0.6665 -0.6545 -0.1322
16265TIP3    H270211   5.641   5.876   6.291  1.6717  0.5281  0.4411
16266TIP3   OH270212   5.381   3.895  11.359  0.2367 -0.3431  0.1814
16266TIP3    H170213   5.356   3.835  11.289 -1.3903 -0.2295  0.6210
16266TIP3    H270214   5.429   3.841  11.422 -0.5825 -1.0249  0.2240
16267TIP3   OH270215   5.237   4.022   6.565 -0.3873 -0.3201  0.0180
16267TIP3    H170216   5.248   3.961   6.491 -1.1550  0.8399 -1.0859
16267TIP3    H270217   5.325   4.030   6.601 -0.0423 -1.1235 -0.5949
16268TIP3   OH270218   4.958   1.817   2.847 -0.1702  0.3124  0.7317
16268TIP3    H170219   4.900   1.840   2.920  1.6468  0.4923  2.1804
16268TIP3    H270220   4.996   1.900   2.819 -0.5038  0.1820 -0.1572
16269TIP3   OH270221   2.611   4.896  13.078 -0.5824  0.5515  0.1180
16269TIP3    H170222   2.528   4.942  13.091 -1.1665 -1.2433  3.9995
16269TIP3    H270223   2.678   4.961  13.098 -1.0019  1.6907 -1.9257
16270TIP3   OH270224   4.979   0.898  13.780  0.2056 -0.4564  0.5133
16270TIP3    H170225   4.990   0.993  13.772  2.1918 -0.7518 -1.3377
16270TIP3    H270226   5.017   0.863  13.700  0.6908 -2.8999  1.7184
16271TIP3   OH270227   1.724   0.641   1.696  0.1869 -0.2034  0.0689
16271TIP3    H170228   1.761   0.599   1.619  1.9312 -1.1943  1.3602
16271TIP3    H270229   1.629   0.640   1.682  0.4835  0.0650 -2.2274
16272TIP3   OH270230   3.736   2.408  12.924  0.0020  0.0007 -0.0869
16272TIP3    H170231   3.665   2.452  12.877 -0.7283 -0.9231  0.1088
16272TIP3    H270232   3.699   2.323  12.948  1.1786 -0.4890  0.0418
16273TIP3   OH270233   4.951   1.856  13.261 -0.2117  0.2541 -0.0936
16273TIP3    H170234   4.993   1.827  13.180  1.3238  1.0743  0.3533
16273TIP3    H270235   4.940   1.776  13.313  0.7710 -0.0062 -0.2649
16274TIP3   OH270236   2.822   3.308   4.985 -0.0056  0.5886 -0.0835
16274TIP3    H170237   2.815   3.258   5.066  2.3338 -2.8311 -1.7446
16274TIP3    H270238   2.732   3.338   4.967 -1.0478 -0.7541  2.4076
16275TIP3   OH270239   0.509   6.037  11.584 -0.3372 -0.1841 -0.2732
16275TIP3    H170240   0.507   6.108  11.648  0.4675 -0.6790  0.3045
16275TIP3    H270241   0.555   6.074  11.509 -0.0056 -0.0529 -0.0094
16276TIP3   OH270242   0.273   6.606   0.240 -0.2274 -0.5065 -0.5938
16276TIP3    H170243   0.187   6.646   0.249 -0.4259 -0.9259 -0.5817
16276TIP3    H270244   0.310   6.610   0.328 -0.0836  0.0011 -0.6742
16277TIP3   OH270245   1.467   5.583  13.108  0.0153  0.0860 -0.1281
16277TIP3    H170246   1.463   5.506  13.052 -0.1430  0.3341 -0.4579
16277TIP3    H270247   1.391   5.575  13.166  1.2662 -1.2179  1.4347
16278TIP3   OH270248   4.768   5.735   1.026 -0.6977 -0.4130 -0.0277
16278TIP3    H170249   4.741   5.818   1.066  2.1884  0.3675  0.5042
16278TIP3    H270250   4.790   5.679   1.101  2.1026  0.1086 -0.3843
16279TIP3   OH270251   6.408   2.028  11.393 -0.5000 -0.3454 -0.1537
16279TIP3    H170252   6.373   2.022  11.304  1.3545  2.0314 -1.1313
16279TIP3    H270253   6.383   2.115  11.423 -0.0663 -0.6611  1.2144
16280TIP3   OH270254   1.275   1.233   0.292 -0.4275 -0.1064 -0.1303
16280TIP3    H170255   1.315   1.251   0.377  0.7102 -0.0197 -0.6530
16280TIP3    H270256   1.280   1.138   0.283 -0.9953 -0.1577  0.1102
16281TIP3   OH270257   5.049   3.730   5.663  0.8969  0.2739  0.1717
16281TIP3    H170258   5.122   3.771   5.710  0.8443  2.1145 -1.2392
16281TIP3    H270259   5.039   3.783   5.584  0.1474 -1.9183 -1.2979
16282TIP3   OH270260   0.514   3.051  11.011 -0.2928  0.6934  0.0830
16282TIP3    H170261   0.484   2.990  11.078  1.5649 -2.1759 -1.4905
16282TIP3    H270262   0.444   3.053  10.946  0.2957 -1.2098 -0.6673
16283TIP3   OH270263   4.810   4.180  11.007 -0.4531  0.4336 -0.3536
16283TIP3    H170264   4.740   4.185  11.072  0.4016  1.0025  0.5441
16283TIP3    H270265   4.781   4.111  10.946 -0.2790 -1.6690  1.8250
16284TIP3   OH270266   4.289   6.397  15.726  0.9611 -0.5012 -0.4689
16284TIP3    H170267   4.381   6.422  15.735  0.5603  0.4934  1.5269
16284TIP3    H270268   4.290   6.301  15.721  2.0362 -0.5999  1.0959
16285TIP3   OH270269   2.542   2.980  11.819 -0.1417 -0.0151 -0.5090
16285TIP3    H170270   2.555   3.004  11.728 -3.4462 -0.3874 -1.2049
16285TIP3    H270271   2.592   2.900  11.831  0.3866  0.0821 -1.9707
16286TIP3   OH270272   4.774   4.467   0.055 -0.0734 -0.1562 -0.0425
16286TIP3    H170273   4.740   4.529   0.120 -0.1099  1.0882 -1.1917
16286TIP3    H270274   4.713   4.394   0.057 -0.0487 -0.1623  1.3451
16287TIP3   OH270275   5.006   2.427   1.212  0.1057 -0.1781 -0.4802
16287TIP3    H170276   4.985   2.473   1.130 -0.8945 -1.2216 -0.8374
16287TIP3    H270277   5.100   2.409   1.205  0.1805  0.3778 -1.0660
16288TIP3   OH270278   6.192   4.484   1.865 -0.2845  0.2123 -0.6108
16288TIP3    H170279   6.142   4.464   1.944  1.4134 -2.2823 -0.0490
16288TIP3    H270280   6.200   4.401   1.819  2.2099  0.7173 -1.2848
16289TIP3   OH270281   3.420   2.866  14.226 -0.1794 -0.5268  0.3513
16289TIP3    H170282   3.393   2.958  14.226  2.1971  0.3732 -2.9418
16289TIP3    H270283   3.374   2.829  14.151  0.6733 -1.3599  0.2300
16290TIP3   OH270284   5.950   6.309   3.322 -0.4171 -0.0225  0.1795
16290TIP3    H170285   5.910   6.340   3.241 -0.5607 -0.0228  0.2490
16290TIP3    H270286   6.043   6.324   3.310 -0.4343 -0.0546  0.0005
16291TIP3   OH270287   4.354   0.664   4.346 -0.0923  0.6559 -0.4046
16291TIP3    H170288   4.303   0.650   4.265  0.1649  0.8064 -0.5928
16291TIP3    H270289   4.342   0.757   4.365 -1.0707  0.3931  0.3554
16292TIP3   OH270290   0.090   1.209   4.184  0.8927  0.3018 -0.0907
16292TIP3    H170291   0.039   1.129   4.167  1.0317 -0.6668  3.3080
16292TIP3    H270292   0.138   1.224   4.103 -1.1977 -1.4488 -1.8035
16293TIP3   OH270293   3.584   6.378   0.740 -0.6900  0.0578  0.0303
16293TIP3    H170294   3.520   6.355   0.673  0.3739 -1.2672 -0.5596
16293TIP3    H270295   3.646   6.306   0.740  0.7614  1.2676  0.6605
16294TIP3   OH270296   1.154   5.947   0.471  0.5942  0.4448  0.0422
16294TIP3    H170297   1.114   5.862   0.491  0.8311  0.4142  0.3819
16294TIP3    H270298   1.247   5.928   0.465  0.5796  0.5449 -0.6158
16295TIP3   OH270299   1.867   4.899  14.221 -0.2265  0.1249  0.0334
16295TIP3    H170300   1.847   4.897  14.128  0.4906 -0.3173 -0.1178
16295TIP3    H270301   1.809   4.967  14.256  2.1340  3.1300 -1.4031
16296TIP3   OH270302   0.920   2.973   2.114  0.2392 -0.2692  0.5212
16296TIP3    H170303   0.932   2.905   2.047 -1.7841 -2.3770  2.1444
16296TIP3    H270304   1.009   2.994   2.142  0.9667 -2.3512  0.0091
16297TIP3   OH270305   5.464   0.310   6.295 -0.0491 -0.2224  0.0437
16297TIP3    H170306   5.501   0.224   6.277  0.0231  0.1927 -1.9794
16297TIP3    H270307   5.394   0.293   6.358  0.7394 -1.5896  0.5845
16298TIP3   OH270308   0.408   2.819   1.973  0.0495  0.0426 -0.0317
16298TIP3    H170309   0.449   2.860   1.897  0.4259 -1.6218 -0.7638
16298TIP3    H270310   0.477   2.816   2.039  1.5021 -3.4441 -1.5130
16299TIP3   OH270311   6.187   4.564  16.925 -0.1819  0.2225 -0.1598
16299TIP3    H170312   6.251   4.621  16.967  0.2139 -0.2688 -0.0891
16299TIP3    H270313   6.120   4.549  16.992 -0.3265  0.6664 -0.2059
16300TIP3   OH270314   2.247   1.753   2.592  0.4912  0.3262 -0.2043
16300TIP3    H170315   2.330   1.721   2.626  0.1081 -0.3077  0.1583
16300TIP3    H270316   2.271   1.825   2.533  1.2391  0.6411  0.4658
16301TIP3   OH270317   3.244   1.831  16.506  0.1590 -0.7902 -0.1393
16301TIP3    H170318   3.172   1.767  16.502  0.6848 -1.5170  1.3825
16301TIP3    H270319   3.201   1.914  16.526 -0.5671 -0.5483 -2.4051
16302TIP3   OH270320   0.967   1.309   2.124  0.1066  0.3915  0.0130
16302TIP3    H170321   1.038   1.248   2.145 -0.4180 -0.0253  0.6187
16302TIP3    H270322   0.986   1.337   2.035 -0.1020 -1.3600 -0.6370
16303TIP3   OH270323   2.060   0.971  14.613 -0.2081  0.5668 -0.3727
16303TIP3    H170324   1.965   0.963  14.606 -0.2526  1.0665 -0.3924
16303TIP3    H270325   2.093   0.882  14.604 -0.6696  0.4051 -0.4661
16304TIP3   OH270326   2.580   2.558  17.356  0.0405  0.3433 -0.4214
16304TIP3    H170327   2.537   2.543  17.272  0.5766  2.0214 -1.0396
16304TIP3    H270328   2.581   2.654  17.366  0.1946  0.1984  1.3918
16305TIP3   OH270329   1.957   5.196  12.757  0.0785  0.2787 -0.4175
16305TIP3    H170330   2.006   5.235  12.685  0.4272  2.0066  0.7064
16305TIP3    H270331   2.019   5.137  12.800 -0.1736 -0.8824 -1.5519
16306TIP3   OH270332   4.348   5.278   4.862  0.0184 -0.1329 -0.5082
16306TIP3    H170333   4.347   5.189   4.897  0.2740 -0.0412 -0.2598
16306TIP3    H270334   4.417   5.277   4.796 -1.5993 -0.7674 -2.2746
16307TIP3   OH270335   2.591   4.934   0.982  0.4615 -0.7416 -0.3949
16307TIP3    H170336   2.616   4.847   1.013  0.4815 -0.3979  0.5761
16307TIP3    H270337   2.496   4.930   0.973  0.5217 -1.0456 -0.9555
16308TIP3   OH270338   0.854   4.503   2.513  0.1981  0.7437 -0.6409
16308TIP3    H170339   0.841   4.420   2.560  0.9908  0.5388 -0.7734
16308TIP3    H270340   0.770   4.519   2.470  0.5361 -0.9216 -2.0619
16309TIP3   OH270341   5.766   5.375  12.915 -0.2434 -0.3532 -0.0726
16309TIP3    H170342   5.775   5.333  13.000  0.7271 -1.6680 -0.7890
16309TIP3    H270343   5.839   5.436  12.910 -0.1560 -0.4581 -0.0676
16310TIP3   OH270344   3.898   6.370   1.310 -0.4869 -0.5879 -0.3643
16310TIP3    H170345   3.879   6.447   1.363 -2.9034 -2.0752  1.1160
16310TIP3    H270346   3.991   6.378   1.289 -0.5357  2.4144  0.1660
16311TIP3   OH270347   5.485   0.358  15.290 -0.9818  0.0510  0.5062
16311TIP3    H170348   5.451   0.270  15.305 -1.4830  0.3722  1.3460
16311TIP3    H270349   5.545   0.349  15.216  0.2507 -1.3083  1.6246
16312TIP3   OH270350   3.338   4.516   1.528 -0.3434 -0.7610  0.1000
16312TIP3    H170351   3.404   4.536   1.461  1.8817 -1.0832  2.0734
16312TIP3    H270352   3.258   4.500   1.478  1.1447 -0.7712 -2.4700
16313TIP3   OH270353   5.516   6.017   4.612 -0.2601 -0.0926  0.3728
16313TIP3    H170354   5.476   6.075   4.676  0.7254 -1.2544  2.1455
16313TIP3    H270355   5.600   6.057   4.592  0.5948 -1.0169  1.8992
16314TIP3   OH270356   1.692   5.693   0.604  0.2745  0.1291 -0.2546
16314TIP3    H170357   1.715   5.704   0.512  0.5255  0.8438 -0.1121
16314TIP3    H270358   1.601   5.723   0.610 -0.2226 -1.2581 -0.5284
16315TIP3   OH270359   1.693   4.331   2.433  0.2545 -0.4120  0.3827
16315TIP3    H170360   1.697   4.422   2.402 -1.6157 -0.3938  0.1072
16315TIP3    H270361   1.636   4.286   2.371 -0.3561 -1.3266  1.5593
16316TIP3   OH270362   0.449   0.445   3.574 -0.2262 -0.1646  0.2596
16316TIP3    H170363   0.359   0.421   3.553 -0.8294  0.3846  2.0281
16316TIP3    H270364   0.453   0.539   3.558 -0.0711 -0.1262  0.5234
16317TIP3   OH270365   5.136   0.810   0.772 -0.1587  0.1924 -0.0821
16317TIP3    H170366   5.055   0.781   0.731 -0.0036 -0.5290  0.1165
16317TIP3    H270367   5.205   0.772   0.719  0.0700  1.1340 -0.4914
16318TIP3   OH270368   2.686   2.639   2.257 -0.3567  0.3024 -0.0443
16318TIP3    H170369   2.717   2.706   2.318  0.6544  0.2755 -0.4978
16318TIP3    H270370   2.633   2.686   2.194 -0.3013  0.5444  0.0896
16319TIP3   OH270371   1.845   3.477  11.173 -0.3846  0.1117  0.3414
16319TIP3    H170372   1.841   3.497  11.079 -2.0828 -0.5623  0.2347
16319TIP3    H270373   1.937   3.491  11.196 -0.1817  1.5812 -1.1192
16320TIP3   OH270374   4.650   0.113   0.024  0.2880  0.2035  0.2669
16320TIP3    H170375   4.681   0.191  -0.021  0.1646 -1.0689 -2.1309
16320TIP3    H270376   4.696   0.041  -0.017  0.4199 -1.0498  2.4579
16321TIP3   OH270377   4.258   5.774  15.409 -0.3857 -0.5581  0.2371
16321TIP3    H170378   4.264   5.700  15.348 -1.5545 -0.4597 -0.0107
16321TIP3    H270379   4.250   5.850  15.352  2.1417 -0.0442  0.4466
16322TIP3   OH270380   4.476   4.774  14.503  0.4450  0.2870 -0.7999
16322TIP3    H170381   4.427   4.696  14.476 -0.0900  0.8744 -1.5662
16322TIP3    H270382   4.567   4.754  14.479  0.0403  0.6635 -2.8636
16323TIP3   OH270383   6.063   0.891   0.944 -0.1992  0.7114  0.0776
16323TIP3    H170384   6.029   0.823   1.002  0.6742  1.8137  1.9640
16323TIP3    H270385   6.012   0.881   0.863 -1.4664 -0.8863  1.0124
16324TIP3   OH270386   5.828   1.696   3.444 -0.4388 -0.3977  0.1542
16324TIP3    H170387   5.745   1.742   3.450 -0.7910 -0.9301 -0.5885
16324TIP3    H270388   5.805   1.607   3.419  0.5132  0.2027 -3.3855
16325TIP3   OH270389   1.936   6.237  14.042 -0.4916  0.0120  0.2130
16325TIP3    H170390   1.994   6.176  13.996 -0.3432  1.0691 -1.0880
16325TIP3    H270391   1.868   6.258  13.977  0.5168  2.6580 -0.0731
16326TIP3   OH270392   4.646   2.279   1.167  0.5617  0.4429  0.2557
16326TIP3    H170393   4.641   2.373   1.154 -2.0475  0.5269  1.3879
16326TIP3    H270394   4.710   2.268   1.238  0.1431  1.4507  0.8021
16327TIP3   OH270395   3.147   0.959  16.816  0.2634  0.4020 -0.0284
16327TIP3    H170396   3.185   0.883  16.860 -0.0820 -0.8048 -1.6571
16327TIP3    H270397   3.152   0.936  16.723  1.3272  2.9726 -0.6791
16328TIP3   OH270398   5.733   3.224   0.247  0.2790  0.1524  0.4965
16328TIP3    H170399   5.680   3.262   0.177 -1.0521 -2.5452 -0.0990
16328TIP3    H270400   5.803   3.177   0.202  0.9119  0.5013  1.1076
16329TIP3   OH270401   4.156   4.275  15.764  0.3709  0.3951  0.1868
16329TIP3    H170402   4.212   4.207  15.802 -0.1538  0.0182  0.3022
16329TIP3    H270403   4.067   4.250  15.790 -0.1561 -0.5556 -2.2406
16330TIP3   OH270404   0.167   6.141   0.049  0.5280  0.1011  0.0400
16330TIP3    H170405   0.165   6.045   0.057  0.1687  0.1423  0.5263
16330TIP3    H270406   0.131   6.172   0.132 -2.2222  0.6118 -1.2214
16331TIP3   OH270407   5.321   0.644   5.155  0.3133  0.0443  0.6036
16331TIP3    H170408   5.297   0.730   5.122 -0.9899 -0.4189  0.2741
16331TIP3    H270409   5.375   0.605   5.087 -2.0539 -0.7648 -0.9609
16332TIP3   OH270410   5.969   1.169   3.009  0.4577  0.5510 -0.2500
16332TIP3    H170411   5.879   1.172   3.043  0.9011  1.5138  0.9024
16332TIP3    H270412   6.020   1.221   3.071  2.0001 -0.7382 -0.3780
16333TIP3   OH270413   5.835   3.498   4.308 -0.4108 -0.1874  0.0154
16333TIP3    H170414   5.759   3.455   4.346 -0.0137 -1.3390 -0.4364
16333TIP3    H270415   5.864   3.560   4.375 -2.2688  0.9531 -0.1711
16334TIP3   OH270416   6.639   1.396   0.890 -0.1915 -0.4648 -0.7652
16334TIP3    H170417   6.559   1.346   0.873 -0.5659 -0.1827  0.0980
16334TIP3    H270418   6.611   1.466   0.949  0.6189 -0.1272 -0.7725
16335TIP3   OH270419   5.300   6.608   4.195 -0.6662 -0.1146  0.3223
16335TIP3    H170420   5.388   6.615   4.156 -0.0366 -1.2037  1.4709
16335TIP3    H270421   5.263   6.529   4.155 -1.4460  0.7723 -0.7383
16336TIP3   OH270422   5.967   4.229   3.929  0.0437 -0.0810 -0.5882
16336TIP3    H170423   5.882   4.228   3.972 -1.0320 -0.5226 -2.5884
16336TIP3    H270424   5.957   4.290   3.856  1.1738 -0.7677 -1.3635
16337TIP3   OH270425   2.358   3.256   4.396 -0.2168  0.8111 -0.1563
16337TIP3    H170426   2.421   3.320   4.360  0.2055 -0.1810 -1.2695
16337TIP3    H270427   2.342   3.286   4.485  2.4266  0.7092  0.4351
16338TIP3   OH270428   1.474   5.782  17.100 -0.2209  0.4125 -0.0578
16338TIP3    H170429   1.392   5.830  17.112  0.1996  0.8307  1.3907
16338TIP3    H270430   1.523   5.799  17.180  1.4471  0.4669 -1.0447
16339TIP3   OH270431   5.446   2.577   3.384 -0.3901  0.4216 -0.1594
16339TIP3    H170432   5.374   2.580   3.322 -0.4596  0.0256 -0.1013
16339TIP3    H270433   5.520   2.618   3.338  0.1185 -1.5676 -1.2442
16340TIP3   OH270434   1.431   1.432   2.073 -0.7492  0.9370 -0.2382
16340TIP3    H170435   1.429   1.481   2.155 -2.6149 -0.7824  0.8340
16340TIP3    H270436   1.523   1.433   2.047  0.3340 -0.1927  3.0073
16341TIP3   OH270437   6.125   3.378   1.884 -0.3873  0.0799  0.0562
16341TIP3    H170438   6.052   3.402   1.940 -0.6974  0.2361 -0.4108
16341TIP3    H270439   6.104   3.290   1.853 -1.0151  0.6016 -1.0849
16342TIP3   OH270440   5.549   5.265   1.755 -0.2722  0.1634  0.7435
16342TIP3    H170441   5.498   5.189   1.726  0.6694 -0.2966  0.2699
16342TIP3    H270442   5.559   5.252   1.849 -2.2254  0.9947  1.1218
16343TIP3   OH270443   4.723   6.249  13.660 -0.2218  0.0618 -0.0590
16343TIP3    H170444   4.735   6.343  13.647 -0.2568 -0.1026 -1.3478
16343TIP3    H270445   4.705   6.214  13.573  1.1195 -1.3428  0.1805
16344TIP3   OH270446   2.917   1.264   1.651 -0.1418 -0.3351  0.4461
16344TIP3    H170447   2.882   1.312   1.726  1.1787 -1.3394  1.7674
16344TIP3    H270448   2.864   1.294   1.576  1.0046  3.6075  1.0089
16345TIP3   OH270449   0.259   3.655   1.216 -0.1495  0.3425  0.6488
16345TIP3    H170450   0.323   3.588   1.191 -0.0477  0.6870 -0.0305
16345TIP3    H270451   0.292   3.736   1.177  0.0619  0.9255  1.9694
16346TIP3   OH270452   1.816   2.293   4.774 -0.9434 -0.1620 -0.3893
16346TIP3    H170453   1.817   2.213   4.826 -1.2191  1.4332  2.2424
16346TIP3    H270454   1.870   2.355   4.823 -2.2716  1.8478 -1.3171
16347TIP3   OH270455   2.848   3.244  12.089  0.1514  0.2613  0.2923
16347TIP3    H170456   2.874   3.216  12.177 -0.2833  0.2652  0.4246
16347TIP3    H270457   2.753   3.253  12.094 -0.0002 -0.7550 -0.4699
16348TIP3   OH270458   2.084   5.472  15.746  0.3087 -0.2921  0.6325
16348TIP3    H170459   2.096   5.420  15.826  1.8756  0.3544  0.8428
16348TIP3    H270460   1.994   5.506  15.752 -1.8536 -4.9011 -0.6917
16349TIP3   OH270461   2.703   6.014   1.760 -0.4037 -0.0762  0.1694
16349TIP3    H170462   2.746   6.091   1.723 -1.1849  1.5914  2.5332
16349TIP3    H270463   2.758   5.989   1.834 -0.6286 -1.2982 -0.0488
16350TIP3   OH270464   0.802   5.567   4.604  0.5365  0.1992 -0.7832
16350TIP3    H170465   0.707   5.561   4.601  0.5608 -0.4251 -0.4510
16350TIP3    H270466   0.830   5.556   4.513  0.3496 -0.9273 -0.7240
16351TIP3   OH270467   5.868   6.330  14.777  0.6712 -1.3030 -0.2207
16351TIP3    H170468   5.830   6.252  14.735 -0.7245 -0.5507 -0.4264
16351TIP3    H270469   5.819   6.403  14.740  0.7993 -0.4580  1.1915
16352TIP3   OH270470   4.959   2.188  12.635 -0.1332  0.0981 -0.1938
16352TIP3    H170471   4.947   2.272  12.680  0.2557 -0.6129  1.3257
16352TIP3    H270472   5.054   2.176  12.633 -0.1621 -0.0316 -0.9497
16353TIP3   OH270473   3.324   2.539   5.734 -0.0677  0.4580 -0.2494
16353TIP3    H170474   3.287   2.506   5.652 -1.3203 -1.3414  0.9688
16353TIP3    H270475   3.277   2.621   5.750  0.8525  1.3328 -1.7436
16354TIP3   OH270476   6.657   5.629  11.505  0.5126 -0.4649  0.3303
16354TIP3    H170477   6.717   5.697  11.534 -0.9699  1.8460 -1.6412
16354TIP3    H270478   6.580   5.638  11.562  0.4851 -0.8027  0.3518
16355TIP3   OH270479   4.074   0.463   4.436  0.1746  0.1421 -0.0018
16355TIP3    H170480   4.043   0.551   4.417 -0.0535  0.0899  0.1143
16355TIP3    H270481   4.051   0.449   4.528  1.7625  0.5979  0.4915
16356TIP3   OH270482   4.461   2.785   5.124  0.3315  0.0972 -0.2157
16356TIP3    H170483   4.460   2.869   5.078  0.3393 -0.3597 -1.0716
16356TIP3    H270484   4.547   2.783   5.167 -0.9913  2.1148  2.9281
16357TIP3   OH270485   4.368   4.167   5.948 -0.1244 -0.2141  0.1670
16357TIP3    H170486   4.273   4.176   5.945 -0.7674 -3.7503  2.7834
16357TIP3    H270487   4.400   4.218   5.874 -3.8896  2.3539  0.0654
16358TIP3   OH270488   1.000   2.608  17.020  0.4972  0.0478  0.6363
16358TIP3    H170489   1.010   2.603  16.925  0.4468 -0.8289  0.6751
16358TIP3    H270490   1.016   2.701  17.040  2.3118 -0.0866 -0.0022
16359TIP3   OH270491   1.877   3.249  14.124 -0.5631 -0.7937  0.1210
16359TIP3    H170492   1.806   3.313  14.137  0.4524  0.6442 -1.0718
16359TIP3    H270493   1.844   3.190  14.056 -1.5469 -1.6506  1.2985
16360TIP3   OH270494   1.401   0.604  15.440 -0.2427 -0.1187 -0.1346
16360TIP3    H170495   1.351   0.557  15.506 -1.8971  0.0231 -1.2173
16360TIP3    H270496   1.361   0.691  15.437  2.6515  1.4295  1.7181
16361TIP3   OH270497   2.372   0.427   1.718 -0.2005  0.2560 -0.1047
16361TIP3    H170498   2.427   0.379   1.656  0.5217 -0.4382  1.0316
16361TIP3    H270499   2.341   0.503   1.669 -0.3011 -0.6769 -1.5483
16362TIP3   OH270500   2.198   0.392  11.125  0.5032  0.0167  0.2146
16362TIP3    H170501   2.199   0.475  11.172  0.6355 -0.0694  0.3604
16362TIP3    H270502   2.290   0.369  11.114  0.4899  0.2547 -0.4649
16363TIP3   OH270503   2.142   2.312  15.491 -0.4376 -0.2206 -0.2415
16363TIP3    H170504   2.111   2.337  15.404  0.1227 -0.8632 -0.6402
16363TIP3    H270505   2.238   2.312  15.483 -0.3913 -0.8088  0.2248
16364TIP3   OH270506   0.194   4.194   1.674 -0.2880 -0.2737 -0.3285
16364TIP3    H170507   0.237   4.112   1.696  0.4551 -0.4195 -2.0852
16364TIP3    H270508   0.255   4.262   1.702  1.0434 -0.4716 -2.4642
16365TIP3   OH270509   1.924   3.509  13.598  0.6781 -0.2661 -0.0265
16365TIP3    H170510   1.926   3.414  13.585  1.9030 -0.1910 -0.5189
16365TIP3    H270511   1.968   3.545  13.521 -0.4671  0.7648 -0.2331
16366TIP3   OH270512   1.015   4.723   1.316 -0.0166 -0.2233 -0.5335
16366TIP3    H170513   0.966   4.806   1.314 -1.2476 -0.9234 -0.3926
16366TIP3    H270514   1.067   4.725   1.236 -1.2918 -0.0214 -1.4009
16367TIP3   OH270515   2.755   5.851   2.738  0.1503  0.3370  0.4025
16367TIP3    H170516   2.669   5.811   2.730  0.2038  0.3823 -0.5193
16367TIP3    H270517   2.759   5.881   2.829 -1.1716  1.1868  0.2045
16368TIP3   OH270518   0.731   5.846  15.029 -0.4098 -0.2793 -0.9007
16368TIP3    H170519   0.824   5.845  15.051 -0.6858  0.0783  0.3188
16368TIP3    H270520   0.720   5.927  14.979 -0.5071  1.0050  1.0991
16369TIP3   OH270521   2.100   1.252  14.627 -0.4755 -0.0321  0.0963
16369TIP3    H170522   2.023   1.295  14.664 -0.1058 -0.8644  1.9399
16369TIP3    H270523   2.070   1.165  14.603 -0.1371 -0.3707  0.8508
16370TIP3   OH270524   4.121   2.057  15.676 -0.3924 -0.5515  0.0165
16370TIP3    H170525   4.034   2.096  15.664 -0.0136  0.5328  0.6693
16370TIP3    H270526   4.108   1.964  15.656 -1.3315 -0.1279 -1.5893
16371TIP3   OH270527   2.353   5.589  13.270 -0.4682  0.0406  0.2280
16371TIP3    H170528   2.302   5.627  13.341 -1.1354  0.1419 -0.2965
16371TIP3    H270529   2.318   5.501  13.259 -1.2595  0.4634 -0.8179
16372TIP3   OH270530   4.100   3.318   3.423  0.4937  0.8039  0.2988
16372TIP3    H170531   4.178   3.264   3.435  0.6923  0.7351 -1.1210
16372TIP3    H270532   4.134   3.402   3.391 -0.1171 -0.1336 -3.1452
16373TIP3   OH270533   0.915   1.803   4.328 -0.8705  0.3049 -0.0507
16373TIP3    H170534   0.934   1.876   4.386  1.6192 -1.1626  1.1512
16373TIP3    H270535   0.880   1.843   4.249  0.7096  2.8048  0.4289
16374TIP3   OH270536   3.233   4.516  12.771 -0.5536  0.0199  0.5868
16374TIP3    H170537   3.278   4.436  12.799  0.0254 -0.9844 -2.7061
16374TIP3    H270538   3.304   4.575  12.747 -1.0023  0.6317  0.7562
16375TIP3   OH270539   1.746   1.840   5.823 -0.2062 -0.5797 -0.7628
16375TIP3    H170540   1.672   1.901   5.816 -0.8979 -1.1023  1.2320
16375TIP3    H270541   1.809   1.885   5.878  1.4270  0.2073 -3.1344
16376TIP3   OH270542   0.884   4.645  15.874  0.6245 -0.2787  0.1862
16376TIP3    H170543   0.944   4.623  15.802  0.1238  0.0205 -0.3325
16376TIP3    H270544   0.835   4.565  15.889 -2.4846  0.7917 -2.9369
16377TIP3   OH270545   2.249   3.969   2.099  0.2469 -0.4639  0.4169
16377TIP3    H170546   2.317   3.903   2.085  0.7924  0.2565 -0.4698
16377TIP3    H270547   2.289   4.051   2.071 -0.4719  0.2331  1.3483
16378TIP3   OH270548   4.731   4.135   4.598 -0.2881  0.0249  0.8301
16378TIP3    H170549   4.790   4.174   4.663 -1.4884  0.1681  1.8612
16378TIP3    H270550   4.698   4.209   4.548 -0.4743  0.0665  1.0120
16379TIP3   OH270551   6.692   1.994  11.333  0.1625 -0.5776 -0.0948
16379TIP3    H170552   6.677   1.922  11.394 -0.9717 -0.2180  0.0912
16379TIP3    H270553   6.618   1.988  11.272 -0.5393  1.0212  0.5390
16380TIP3   OH270554   4.977   6.715   5.829 -0.0683 -0.1670 -0.1417
16380TIP3    H170555   4.956   6.694   5.920  2.6825  1.2354  0.9202
16380TIP3    H270556   4.899   6.761   5.797 -0.6504  0.3750  1.8983
16381TIP3   OH270557   6.250   3.761   0.051 -0.2821  0.2338  0.3782
16381TIP3    H170558   6.178   3.769  -0.012 -0.5971  0.4379  0.7582
16381TIP3    H270559   6.221   3.813   0.126 -1.5820 -2.8901  2.2405
16382TIP3   OH270560   5.746   6.712   3.318  0.9328 -0.6513  0.2774
16382TIP3    H170561   5.663   6.677   3.288  1.0854  0.5478 -1.7413
16382TIP3    H270562   5.779   6.648   3.381 -0.4674 -2.2371 -0.5527
16383TIP3   OH270563   5.935   3.868  11.946 -1.3118 -0.2438 -0.7457
16383TIP3    H170564   5.983   3.947  11.921 -2.9120  0.7330 -0.8671
16383TIP3    H270565   5.924   3.819  11.865  2.4255 -2.3032 -0.2502
16384TIP3   OH270566   3.084   0.477   2.652  0.0556 -0.0574  0.5728
16384TIP3    H170567   3.089   0.392   2.695  0.1896  0.1271  0.9264
16384TIP3    H270568   3.007   0.519   2.689 -0.6255 -0.4408 -0.3769
16385TIP3   OH270569   4.582   3.739  15.010  0.5530 -0.1780 -0.1899
16385TIP3    H170570   4.527   3.684  14.954  0.5853  0.1641 -0.5641
16385TIP3    H270571   4.560   3.712  15.099 -1.3211  0.9431 -0.2582
16386TIP3   OH270572   5.321   3.811   5.736 -0.1641  0.1918  0.3955
16386TIP3    H170573   5.326   3.800   5.831  1.2660 -0.3523  0.2947
16386TIP3    H270574   5.412   3.822   5.709 -0.5218  0.0295 -0.9463
16387TIP3   OH270575   1.162   4.664  15.292 -0.1862 -0.2968  0.0528
16387TIP3    H170576   1.227   4.622  15.348 -0.1938 -0.3755  0.0032
16387TIP3    H270577   1.212   4.722  15.235  0.1897 -2.3230 -1.8480
16388TIP3   OH270578   2.220   2.783  15.452  0.1397 -0.0665  0.3580
16388TIP3    H170579   2.150   2.847  15.440  1.3912  1.6384  1.6834
16388TIP3    H270580   2.214   2.757  15.544  0.9021 -0.2986  0.3516
16389TIP3   OH270581   6.683   6.077  15.584 -0.4835 -0.1757 -0.0149
16389TIP3    H170582   6.773   6.076  15.617 -0.1415  0.8914 -0.8428
16389TIP3    H270583   6.632   6.119  15.653 -0.5990 -1.8412  0.9717
16390TIP3   OH270584   1.124   4.551   2.414 -0.0815 -0.3370 -0.3871
16390TIP3    H170585   1.150   4.467   2.375  1.1158 -0.6798  1.0651
16390TIP3    H270586   1.039   4.534   2.454 -0.3544 -0.5464 -1.0424
16391TIP3   OH270587   5.806   5.044   2.558  0.4630 -0.3133  0.2638
16391TIP3    H170588   5.848   5.073   2.639  0.0148  0.5381  0.2061
16391TIP3    H270589   5.876   5.046   2.493  0.8638 -1.1609  0.6528
16392TIP3   OH270590   6.244   0.191   5.482 -0.0763  0.1470 -0.6189
16392TIP3    H170591   6.235   0.214   5.575  2.0799 -0.7932 -0.1073
16392TIP3    H270592   6.211   0.102   5.476  0.1703  0.0543 -0.6418
16393TIP3   OH270593   5.760   6.571   6.387 -0.3098  0.6486 -0.2249
16393TIP3    H170594   5.740   6.664   6.398  1.3280  0.9884  0.1418
16393TIP3    H270595   5.675   6.529   6.376 -1.1450  2.0569  0.6017
16394TIP3   OH270596   1.547   1.450   6.667  0.3110  0.7060  0.6796
16394TIP3    H170597   1.583   1.474   6.752 -0.8268 -1.2844  1.7852
16394TIP3    H270598   1.597   1.372   6.641 -0.0227  0.7066  0.0117
16395TIP3   OH270599   6.046   5.440   4.496 -0.4687  0.2062 -0.4751
16395TIP3    H170600   5.981   5.505   4.472  0.9758  2.4153  1.1380
16395TIP3    H270601   6.128   5.472   4.458  0.2130 -0.9002 -0.0093
16396TIP3   OH270602   4.496   0.503   2.969  0.1691  0.2063 -0.7774
16396TIP3    H170603   4.562   0.434   2.969 -0.9602 -0.9294  0.1861
16396TIP3    H270604   4.473   0.515   3.061 -1.6777 -0.1534 -1.1469
16397TIP3   OH270605   4.334   3.052  13.243  0.1509 -0.4423 -0.0657
16397TIP3    H170606   4.403   3.030  13.305  0.7586 -0.3724 -0.7063
16397TIP3    H270607   4.378   3.100  13.173 -0.9219  1.7171  0.6559
16398TIP3   OH270608   2.414   1.086   3.243 -0.0240  0.4424  0.3896
16398TIP3    H170609   2.466   1.094   3.323  0.2498  0.2042  0.2370
16398TIP3    H270610   2.468   1.129   3.175  1.3495 -2.2675 -0.3945
16399TIP3   OH270611   5.399   0.854   1.068 -1.5316  0.0469  0.6120
16399TIP3    H170612   5.421   0.799   1.143  0.9393 -0.2489 -0.2530
16399TIP3    H270613   5.474   0.912   1.058 -1.9025  0.2365 -1.5001
16400TIP3   OH270614   4.536   0.930  16.000  0.4357  0.8004 -0.2641
16400TIP3    H170615   4.605   0.980  16.042 -0.5984  1.3640  0.8397
16400TIP3    H270616   4.457   0.950  16.051 -0.5134  0.0516 -1.3695
16401TIP3   OH270617   1.911   2.136   3.084  0.1183  0.7171 -0.3139
16401TIP3    H170618   1.967   2.183   3.146  0.9069 -0.1347 -0.3605
16401TIP3    H270619   1.969   2.072   3.043 -0.9195 -0.2645 -0.2886
16402TIP3   OH270620   3.448   0.233  17.298  0.5775  0.0797 -0.3816
16402TIP3    H170621   3.427   0.302  17.361  0.4013  0.5637 -0.9603
16402TIP3    H270622   3.454   0.154  17.351 -1.6375  0.0855  0.0074
16403TIP3   OH270623   2.543   6.711  12.215  0.4404  0.5402  0.6738
16403TIP3    H170624   2.585   6.641  12.164  0.6962  0.1356  1.4159
16403TIP3    H270625   2.449   6.697  12.203  0.4825 -0.1066  1.0201
16404TIP3   OH270626   2.134   2.334  12.679  0.7744  0.1467 -0.1677
16404TIP3    H170627   2.043   2.360  12.697 -0.0411 -2.2108 -0.4170
16404TIP3    H270628   2.131   2.238  12.681  2.8310 -0.0342 -2.2598
16405TIP3   OH270629   2.582   0.869  12.924 -0.2987  0.1952 -0.5582
16405TIP3    H170630   2.619   0.801  12.869 -0.6334 -2.1551  1.8889
16405TIP3    H270631   2.496   0.887  12.886  0.0487 -0.3008 -1.6044
16406TIP3   OH270632   1.509   2.178   3.279  0.0969 -0.2384  0.0105
16406TIP3    H170633   1.504   2.087   3.305  2.3510  0.2372  2.5368
16406TIP3    H270634   1.490   2.177   3.185 -2.3752 -2.9103  0.4185
16407TIP3   OH270635   3.673   2.526  16.757 -0.3230  0.0972  0.5862
16407TIP3    H170636   3.629   2.610  16.771  0.4552  0.6679 -0.2882
16407TIP3    H270637   3.712   2.505  16.842 -0.5737  0.5943  0.8248
16408TIP3   OH270638   1.148   3.366  13.781  0.2277  1.2764  0.3341
16408TIP3    H170639   1.237   3.402  13.788  1.6070 -1.4449 -1.2174
16408TIP3    H270640   1.109   3.414  13.708  1.8504  0.1088 -1.4127
16409TIP3   OH270641   4.697   5.417  14.712  0.3183 -0.3680 -0.0185
16409TIP3    H170642   4.634   5.485  14.687 -1.6175 -1.7290  0.8972
16409TIP3    H270643   4.775   5.466  14.740 -0.6498  1.4331 -0.2860
16410TIP3   OH270644   1.667   2.734  13.780  0.4086  0.2253 -0.2465
16410TIP3    H170645   1.712   2.718  13.862  0.2090 -0.3346 -0.2436
16410TIP3    H270646   1.611   2.810  13.797 -1.9376 -1.6764  1.0743
16411TIP3   OH270647   1.440   1.843  12.842  0.1661 -0.1116 -0.2657
16411TIP3    H170648   1.401   1.762  12.811  2.1685 -1.0110 -0.5980
16411TIP3    H270649   1.434   1.903  12.767 -0.1137 -0.3886 -0.4676
16412TIP3   OH270650   3.336   0.414   2.267 -0.0083 -0.2469  0.2190
16412TIP3    H170651   3.286   0.412   2.349  0.1325  1.2669  0.3705
16412TIP3    H270652   3.271   0.403   2.198 -0.3409  0.1298  0.4732
16413TIP3   OH270653   5.362   5.593  15.888 -0.4946  0.1664  0.5840
16413TIP3    H170654   5.387   5.518  15.942  0.1743 -1.0426 -1.2740
16413TIP3    H270655   5.426   5.661  15.910  0.2040 -0.5472  0.7911
16414TIP3   OH270656   6.611   4.465   4.531 -0.6244  0.3487  0.0548
16414TIP3    H170657   6.516   4.455   4.525 -0.5761  0.0648 -0.2583
16414TIP3    H270658   6.643   4.376   4.550 -0.4085  0.4180  0.0144
16415TIP3   OH270659   0.811   3.013   4.077 -0.0591  0.0330  0.0326
16415TIP3    H170660   0.758   3.037   4.001 -1.2384  0.5766  0.9837
16415TIP3    H270661   0.894   2.983   4.040 -0.7289 -0.0685 -1.4767
16416TIP3   OH270662   3.328   6.670  14.638 -0.1368 -0.5397 -0.0160
16416TIP3    H170663   3.286   6.664  14.724  0.6641 -1.8777  0.2984
16416TIP3    H270664   3.262   6.712  14.583 -1.0031 -0.4897  1.0190
16417TIP3   OH270665   2.493   2.859   5.340 -0.8777 -0.0657 -0.2408
16417TIP3    H170666   2.521   2.783   5.290 -0.0208 -0.2362  0.4848
16417TIP3    H270667   2.459   2.823   5.422 -1.3494  0.2778 -0.2788
16418TIP3   OH270668   1.246   2.082   4.580  0.1204  0.1861  0.3804
16418TIP3    H170669   1.320   2.040   4.536 -1.0570  0.9410 -2.6157
16418TIP3    H270670   1.280   2.167   4.607  0.6560  0.0958  0.0267
16419TIP3   OH270671   3.488   4.798   1.350  0.8399 -0.4546 -0.2266
16419TIP3    H170672   3.454   4.887   1.359 -1.7642 -1.3247 -0.5723
16419TIP3    H270673   3.560   4.793   1.413  0.7353  1.7325  0.1382
16420TIP3   OH270674   1.169   2.136   0.169 -0.3731  0.0108  0.4075
16420TIP3    H170675   1.148   2.229   0.159  0.2421  0.1623  0.4904
16420TIP3    H270676   1.251   2.125   0.120 -0.2639 -0.4156  0.6853
16421TIP3   OH270677   0.663   5.120   4.025  0.0183 -0.5279  0.0503
16421TIP3    H170678   0.604   5.107   3.950 -0.9237  0.5668  0.5628
16421TIP3    H270679   0.657   5.039   4.074 -0.7303 -0.6056 -0.1532
16422TIP3   OH270680   2.149   3.671   4.968  0.0680 -0.5145  0.0533
16422TIP3    H170681   2.094   3.744   4.998 -0.7220 -1.2634  0.4666
16422TIP3    H270682   2.163   3.689   4.875  0.4296  0.4998  0.2811
16423TIP3   OH270683   1.607   0.133   0.879 -0.1553  0.4381 -0.0473
16423TIP3    H170684   1.654   0.052   0.860 -1.0971 -0.1485  0.0291
16423TIP3    H270685   1.585   0.168   0.793 -1.5676 -0.5087 -0.1165
16424TIP3   OH270686   1.689   3.413   2.602 -0.2158  0.6233  0.0833
16424TIP3    H170687   1.733   3.497   2.589  0.4354  0.1709 -0.8009
16424TIP3    H270688   1.707   3.391   2.693 -0.9800  1.7587  0.5203
16425TIP3   OH270689   4.639   3.318   4.861  0.4215 -0.1868  0.0638
16425TIP3    H170690   4.675   3.233   4.887  0.3081 -1.1296 -2.5415
16425TIP3    H270691   4.715   3.368   4.829  0.0456 -0.7113 -1.7674
16426TIP3   OH270692   3.322   0.598  12.072  0.4391 -0.6081 -0.1467
16426TIP3    H170693   3.259   0.558  12.132  2.2056 -1.5956  1.1251
16426TIP3    H270694   3.377   0.526  12.042  3.1448  0.6070  1.5108
16427TIP3   OH270695   4.843   5.628   2.142 -0.0451 -0.0108 -0.0014
16427TIP3    H170696   4.927   5.587   2.124  0.3863  0.0761  1.6752
16427TIP3    H270697   4.863   5.720   2.159 -0.3967 -0.0895  0.9050
16428TIP3   OH270698   5.798   3.712  10.484 -0.5236  0.7734 -0.3981
16428TIP3    H170699   5.852   3.770  10.430  0.8709 -1.8028 -1.9707
16428TIP3    H270700   5.827   3.727  10.574 -0.1008  2.3526 -0.7789
16429TIP3   OH270701   0.891   0.763   4.126  0.1243  0.4368 -0.1909
16429TIP3    H170702   0.852   0.700   4.066 -0.4618  1.4097 -0.8657
16429TIP3    H270703   0.978   0.779   4.091  0.2644  0.0273 -0.0321
16430TIP3   OH270704   3.725   5.620   4.432 -0.1130  0.0875 -0.7141
16430TIP3    H170705   3.802   5.669   4.459  0.1747  0.0102 -1.3855
16430TIP3    H270706   3.659   5.686   4.414 -0.5123  0.1256  0.7385
16431TIP3   OH270707   4.109   5.172  11.664  0.5410 -0.2435  0.0764
16431TIP3    H170708   4.077   5.165  11.574  1.0540  0.5182 -0.1724
16431TIP3    H270709   4.117   5.266  11.680 -1.0702 -0.2852  1.4691
16432TIP3   OH270710   4.786   6.178  12.953 -0.4055  0.2036 -0.3024
16432TIP3    H170711   4.692   6.184  12.971 -0.7157 -0.0074 -1.7485
16432TIP3    H270712   4.797   6.218  12.867  1.0967  1.7209  0.5323
16433TIP3   OH270713   1.055   4.460   4.281  0.3700  0.1795 -0.2426
16433TIP3    H170714   1.016   4.388   4.231 -0.0808  0.5356 -0.4054
16433TIP3    H270715   1.110   4.416   4.346  2.6353 -0.2912 -2.3167
16434TIP3   OH270716   1.877   5.884   1.918  0.1281  0.0868 -0.1945
16434TIP3    H170717   1.917   5.837   1.991  1.5265  2.3208  0.5795
16434TIP3    H270718   1.913   5.842   1.840 -0.8742 -1.9035  0.3460
16435TIP3   OH270719   3.478   0.522  14.263 -0.3861 -0.0272  0.1622
16435TIP3    H170720   3.438   0.437  14.245 -0.7783 -0.2538  1.9243
16435TIP3    H270721   3.566   0.516  14.226 -0.2195 -1.4103  0.7247
16436TIP3   OH270722   4.618   3.143  14.633  0.3904 -0.2506 -0.0675
16436TIP3    H170723   4.690   3.162  14.573  0.3427  2.0470  0.5169
16436TIP3    H270724   4.539   3.166  14.584  0.2511  0.0282  0.2788
16437TIP3   OH270725   3.479   3.752   3.771  0.3686  0.2553 -0.0950
16437TIP3    H170726   3.572   3.734   3.777  0.3937 -0.0399 -1.1944
16437TIP3    H270727   3.473   3.838   3.731  0.1631  0.2695 -0.0390
16438TIP3   OH270728   2.541   3.126   4.687 -0.0825 -0.2753 -0.4765
16438TIP3    H170729   2.551   3.130   4.782 -0.1058 -1.8833 -0.3759
16438TIP3    H270730   2.447   3.122   4.672 -0.0791 -0.0203 -0.5631
16439TIP3   OH270731   3.282   5.648   5.206 -0.6669 -0.0876  0.6542
16439TIP3    H170732   3.198   5.693   5.208 -0.3026  0.8568 -1.9140
16439TIP3    H270733   3.284   5.605   5.120  0.9700 -1.1019  1.1638
16440TIP3   OH270734   3.972   4.413  13.608 -0.6080  0.2537  0.2563
16440TIP3    H170735   3.946   4.506  13.611  1.0835  0.7579  0.1494
16440TIP3    H270736   3.991   4.390  13.699 -0.9941  0.0079  0.2774
16441TIP3   OH270737   3.278   6.519  14.219  0.0166  0.1334 -0.1288
16441TIP3    H170738   3.275   6.424  14.212  3.6922 -0.0528 -1.6797
16441TIP3    H270739   3.267   6.550  14.129  2.3259  0.8559 -0.2351
16442TIP3   OH270740   2.138   0.818  13.126 -0.0445 -0.0921  0.4088
16442TIP3    H170741   2.152   0.831  13.032  1.3525  0.2727  0.6449
16442TIP3    H270742   2.069   0.881  13.148  1.5061  1.8301  0.1137
16443TIP3   OH270743   6.023   6.580   5.804 -0.1439 -0.0218 -0.3849
16443TIP3    H170744   5.967   6.642   5.851 -0.4023  0.1125 -0.8574
16443TIP3    H270745   6.042   6.511   5.867 -1.9416 -0.7569 -0.6023
16444TIP3   OH270746   1.927   1.569   5.950 -0.2971  0.0547 -0.0429
16444TIP3    H170747   1.853   1.560   5.890 -0.2029  3.4507 -0.9081
16444TIP3    H270748   1.995   1.612   5.898  0.0917  2.3642  2.1532
16445TIP3   OH270749   5.293   3.715   5.997  0.2508 -0.1901 -0.3475
16445TIP3    H170750   5.370   3.680   6.044  0.1142  0.2377  0.2048
16445TIP3    H270751   5.272   3.796   6.043 -1.8011 -1.3223  0.8675
16446TIP3   OH270752   1.816   3.575   3.256 -0.3727  0.1221 -0.4372
16446TIP3    H170753   1.725   3.604   3.261 -0.2072  0.7603 -0.9206
16446TIP3    H270754   1.811   3.482   3.237 -0.9233 -0.0512  0.4987
16447TIP3   OH270755   6.568   4.070   2.578 -0.5421 -0.3314 -0.1206
16447TIP3    H170756   6.494   4.010   2.577  0.4248 -1.6749  2.1791
16447TIP3    H270757   6.645   4.014   2.564  0.2062  0.7664 -0.5920
16448TIP3   OH270758   1.966   4.207  17.320 -0.3609 -0.5881  0.1157
16448TIP3    H170759   1.910   4.284  17.317 -0.4303 -0.6457 -0.1090
16448TIP3    H270760   2.009   4.212  17.405  0.9233  0.6031 -0.5686
16449TIP3   OH270761   4.491   0.977   5.757 -0.4913 -0.6680  0.1037
16449TIP3    H170762   4.552   1.034   5.805 -0.9104 -1.0709  1.1297
16449TIP3    H270763   4.518   0.986   5.666 -0.5004  1.1457  0.2342
16450TIP3   OH270764   4.573   1.512  13.441 -0.2509 -0.3703  0.0780
16450TIP3    H170765   4.535   1.588  13.486 -1.3317  0.2741 -1.8009
16450TIP3    H270766   4.660   1.501  13.481 -0.7847  0.7087  1.6362
16451TIP3   OH270767   0.240   2.492   5.163  0.0777  0.4448  0.5313
16451TIP3    H170768   0.198   2.577   5.179  0.2194  0.6521 -0.1330
16451TIP3    H270769   0.248   2.488   5.068  1.2043  0.2324  0.6246
16452TIP3   OH270770   2.454   2.316   0.065 -0.5461  0.0729  0.0984
16452TIP3    H170771   2.367   2.356   0.064  0.5427  2.6101 -0.4012
16452TIP3    H270772   2.515   2.390   0.055  1.6222 -1.7678 -1.2658
16453TIP3   OH270773   5.725   0.359   6.243  0.2078 -0.2608  0.1352
16453TIP3    H170774   5.762   0.420   6.307  0.3834 -0.8734  0.6232
16453TIP3    H270775   5.638   0.339   6.277  0.1580 -0.2980 -0.0147
16454TIP3   OH270776   0.707   1.389   1.935  0.6097  0.0717 -0.2546
16454TIP3    H170777   0.713   1.480   1.907 -1.3644 -0.0852 -1.3945
16454TIP3    H270778   0.625   1.385   1.986  0.4652 -1.1240 -0.5387
16455TIP3   OH270779   0.251   4.868  15.039  0.2431 -0.2567  0.1159
16455TIP3    H170780   0.191   4.803  15.004 -0.2946  0.1970  0.1938
16455TIP3    H270781   0.283   4.830  15.121  0.3923 -0.6789 -0.1341
16456TIP3   OH270782   4.077   0.216   0.992  0.5867  0.0481  0.0115
16456TIP3    H170783   4.170   0.195   0.986  0.4041 -0.6511 -0.6386
16456TIP3    H270784   4.037   0.168   0.919 -0.3405  0.0035  0.5336
16457TIP3   OH270785   3.885   0.733  12.162 -0.0471 -0.1007  0.0826
16457TIP3    H170786   3.920   0.645  12.158 -0.0633 -0.0450 -2.9790
16457TIP3    H270787   3.790   0.722  12.159 -0.0976  0.0178  0.8877
16458TIP3   OH270788   4.801   6.675  15.559  0.5693 -0.6032  0.8026
16458TIP3    H170789   4.722   6.672  15.506  0.4109 -0.6443  1.0375
16458TIP3    H270790   4.803   6.589  15.602  0.9183 -0.7281  0.5434
16459TIP3   OH270791   4.681   0.046   5.260  0.2606 -0.1996  0.4399
16459TIP3    H170792   4.684   0.092   5.175 -1.7079  0.7609  0.8415
16459TIP3    H270793   4.731   0.103   5.319 -1.4410  1.0817  0.7293
16460TIP3   OH270794   1.416   4.695  13.242 -0.0376 -0.3415  0.3698
16460TIP3    H170795   1.442   4.729  13.328 -2.8926 -0.8188  1.5175
16460TIP3    H270796   1.425   4.600  13.251  3.0677 -0.3142 -1.1538
16461TIP3   OH270797   4.251   2.538   5.746  0.4807  0.4215  0.2724
16461TIP3    H170798   4.186   2.468   5.734 -0.5944  1.6378 -1.7007
16461TIP3    H270799   4.244   2.562   5.838 -0.7209 -0.6047  0.4769
16462TIP3   OH270800   5.489   6.480  13.539  0.1461  0.3324 -0.5605
16462TIP3    H170801   5.518   6.495  13.450 -0.5528  0.6804 -0.7409
16462TIP3    H270802   5.516   6.559  13.587  1.4218 -0.2900 -0.2204
16463TIP3   OH270803   3.149   2.442  14.750  0.1786 -0.6617  0.0019
16463TIP3    H170804   3.203   2.514  14.717 -0.0586 -0.8787 -0.8766
16463TIP3    H270805   3.097   2.481  14.820 -0.7777  0.3119 -1.2123
16464TIP3   OH270806   2.075   5.479  10.847  0.1780 -0.4707  0.1883
16464TIP3    H170807   2.144   5.418  10.821  1.6168  1.3920 -0.6196
16464TIP3    H270808   2.052   5.453  10.937  0.5472 -2.2987 -0.2018
16465TIP3   OH270809   5.966   3.276   3.602 -0.6824  0.0348  0.0792
16465TIP3    H170810   6.045   3.256   3.552 -0.5608  0.6761  0.0042
16465TIP3    H270811   5.900   3.297   3.535 -0.2589  1.8581  0.1724
16466TIP3   OH270812   1.617   5.115   3.481 -1.0115  0.3641  0.2315
16466TIP3    H170813   1.682   5.141   3.546 -0.2740  1.8396 -1.0303
16466TIP3    H270814   1.544   5.176   3.494 -0.9086  0.5915 -0.2291
16467TIP3   OH270815   3.176   2.314  11.173  0.0449 -0.2462  0.3202
16467TIP3    H170816   3.250   2.375  11.180 -0.3456  0.4152 -1.0045
16467TIP3    H270817   3.184   2.258  11.250  0.6883  1.1819  1.3391
16468TIP3   OH270818   5.193   2.017  16.461 -0.0195  0.8381 -0.2101
16468TIP3    H170819   5.119   2.005  16.519 -0.9101  0.8813 -1.3017
16468TIP3    H270820   5.223   2.106  16.478 -0.3850  0.9088  0.0657
16469TIP3   OH270821   1.791   0.028   5.894 -0.5853  0.1748  0.9093
16469TIP3    H170822   1.840  -0.054   5.893 -0.7728  0.0681  0.3946
16469TIP3    H270823   1.815   0.069   5.977 -0.8248 -0.5956  1.3642
16470TIP3   OH270824   5.792   2.938   1.603  0.2411 -0.0524  0.4882
16470TIP3    H170825   5.839   2.876   1.659  0.0343 -1.6864 -1.0446
16470TIP3    H270826   5.701   2.907   1.605 -0.0387  0.7477  0.3820
16471TIP3   OH270827   0.271   0.232  11.818 -0.4571 -0.2458 -0.3310
16471TIP3    H170828   0.239   0.153  11.862  0.4401 -0.9395 -0.8826
16471TIP3    H270829   0.239   0.304  11.872 -0.2259 -1.0286  0.8945
16472TIP3   OH270830   0.241   1.204   1.570  0.3277 -0.1592  1.1037
16472TIP3    H170831   0.258   1.214   1.476  2.5132  0.8850  1.5635
16472TIP3    H270832   0.212   1.291   1.598  0.4925 -0.2463  1.5473
16473TIP3   OH270833   1.270   2.627   1.882  0.8398  0.1288 -0.0331
16473TIP3    H170834   1.293   2.698   1.942 -0.9046  1.1437 -0.4801
16473TIP3    H270835   1.207   2.667   1.821 -1.5028 -2.1980  0.7086
16474TIP3   OH270836   4.192   3.984  14.142 -0.1450 -0.2078 -0.3592
16474TIP3    H170837   4.135   4.033  14.200  0.6148 -0.5268  0.6851
16474TIP3    H270838   4.233   4.050  14.086 -2.7623 -0.0886 -2.3399
16475TIP3   OH270839   3.695   4.145   0.878  0.2607 -0.1259 -0.6805
16475TIP3    H170840   3.703   4.137   0.783  1.1061 -3.0087 -0.4881
16475TIP3    H270841   3.701   4.054   0.910  4.2865  0.9360  2.4027
16476TIP3   OH270842   2.974   1.387  16.673 -0.4591  0.3368  0.0509
16476TIP3    H170843   3.034   1.363  16.744 -0.6591 -0.5491 -0.0660
16476TIP3    H270844   3.031   1.397  16.596 -0.6233 -3.2037 -0.7372
16477TIP3   OH270845   6.044   0.533  12.356 -0.1009  0.3450  0.1937
16477TIP3    H170846   5.952   0.508  12.341 -0.0238  0.7249 -1.0114
16477TIP3    H270847   6.073   0.475  12.426 -1.5640  0.9211  1.3435
16478TIP3   OH270848   4.911   5.190  15.916 -0.3694  0.6053  0.6630
16478TIP3    H170849   4.896   5.100  15.946 -0.5854  0.3752 -0.1001
16478TIP3    H270850   4.990   5.184  15.862  0.1042  1.0381  1.3049
16479TIP3   OH270851   0.694   3.942   4.777  0.4788  0.0019  0.0019
16479TIP3    H170852   0.789   3.933   4.768  0.4481  1.3316 -2.3990
16479TIP3    H270853   0.660   3.855   4.759  1.1878 -0.1364 -0.7336
16480TIP3   OH270854   4.249   2.613   5.478 -0.2566  0.8861 -0.1778
16480TIP3    H170855   4.261   2.599   5.572  0.6461  0.0718 -0.3996
16480TIP3    H270856   4.221   2.528   5.445 -1.3735  1.3680 -0.5460
16481TIP3   OH270857   6.752   1.058   1.386 -0.3152  0.1175  0.3589
16481TIP3    H170858   6.725   0.967   1.373 -2.6700  0.7458  0.4691
16481TIP3    H270859   6.763   1.067   1.481 -0.9402  0.1593  0.4302
16482TIP3   OH270860   0.070   6.707  14.352  0.0757 -0.1128 -0.6098
16482TIP3    H170861   0.159   6.703  14.317  0.7327  2.4575  0.5753
16482TIP3    H270862   0.014   6.692  14.276  1.4920  0.6076 -1.8521
16483TIP3   OH270863   5.054   5.624   3.230 -0.0720  0.3654  0.1011
16483TIP3    H170864   5.147   5.603   3.223 -0.2082 -0.3677  0.4610
16483TIP3    H270865   5.052   5.715   3.259  0.5462  0.0689  1.1087
16484TIP3   OH270866   1.636   3.097  13.033  0.1951  0.0489  0.6290
16484TIP3    H170867   1.680   3.097  13.118 -0.4978 -2.4995  1.0653
16484TIP3    H270868   1.544   3.085  13.053  0.1138 -1.4253 -0.4661
16485TIP3   OH270869   4.927   0.743  13.138  0.1875 -0.5428 -0.2250
16485TIP3    H170870   4.971   0.696  13.209 -1.2681 -1.5076  0.0805
16485TIP3    H270871   4.918   0.678  13.068  0.3405 -0.0031 -0.7523
16486TIP3   OH270872   0.871   5.473   0.570  0.9007 -0.0301  0.1340
16486TIP3    H170873   0.785   5.431   0.580  0.4003  1.3629  2.2506
16486TIP3    H270874   0.854   5.548   0.512  0.1600  1.4749  2.1972
16487TIP3   OH270875   4.342   4.334  15.561  0.3784  0.0401  0.4167
16487TIP3    H170876   4.397   4.372  15.629 -0.5414  0.7244  0.7971
16487TIP3    H270877   4.261   4.311  15.606 -0.0252 -0.0219 -0.3315
16488TIP3   OH270878   0.112   4.531   3.872  0.0970  0.0575  0.1258
16488TIP3    H170879   0.052   4.592   3.828 -1.3682 -1.3184  0.1207
16488TIP3    H270880   0.066   4.506   3.952  1.4056  0.1852  0.9582
16489TIP3   OH270881   3.169   1.004   1.081 -0.3950 -0.1927 -0.4623
16489TIP3    H170882   3.142   1.094   1.102  0.6508  0.0615 -0.1196
16489TIP3    H270883   3.231   0.982   1.151 -3.0233 -2.4023  1.3718
16490TIP3   OH270884   1.171   0.386  12.583  0.1202 -0.3440 -0.4362
16490TIP3    H170885   1.219   0.355  12.659 -1.0792 -0.1744  0.4257
16490TIP3    H270886   1.216   0.465  12.555  0.5702 -0.4084  0.0986
16491TIP3   OH270887   3.977   1.552   0.289  0.1347  0.0432 -0.1412
16491TIP3    H170888   3.926   1.534   0.210  0.4791 -0.1036 -0.3345
16491TIP3    H270889   4.030   1.628   0.266 -0.7773  0.8755  0.4264
16492TIP3   OH270890   4.431   0.378  17.297 -0.0774 -0.6065  0.5493
16492TIP3    H170891   4.400   0.301  17.345  0.2047 -2.4505 -2.0546
16492TIP3    H270892   4.525   0.363  17.285 -0.1165 -0.1380 -0.4463
16493TIP3   OH270893   4.741   6.509  14.422 -0.3467 -0.1271  0.2421
16493TIP3    H170894   4.747   6.472  14.510 -1.4617 -0.4690  0.1902
16493TIP3    H270895   4.832   6.510  14.390 -0.0077 -0.5805  1.1537
16494TIP3   OH270896   1.886   4.010   2.186  0.0343 -0.0581  0.1154
16494TIP3    H170897   1.950   3.966   2.130 -0.4020  0.3900 -0.7472
16494TIP3    H270898   1.939   4.054   2.252  0.9922  3.3128 -2.6161
16495TIP3   OH270899   6.722   4.877  14.484  0.0864  1.2430 -0.3103
16495TIP3    H170900   6.793   4.836  14.434 -0.6679  0.9119 -1.1364
16495TIP3    H270901   6.765   4.944  14.537  1.4164 -0.6682  1.2043
16496TIP3   OH270902   3.147   5.782   2.496 -0.0519 -0.4298  0.2700
16496TIP3    H170903   3.139   5.816   2.585 -0.5429 -1.4604  0.6382
16496TIP3    H270904   3.241   5.766   2.485  0.1316  0.6166  0.2381
16497TIP3   OH270905   3.359   1.271   2.547  0.1648  0.9146  0.1504
16497TIP3    H170906   3.285   1.230   2.592  0.6693 -0.2258 -0.0141
16497TIP3    H270907   3.358   1.232   2.459  2.4279 -1.1022  0.9031
16498TIP3   OH270908   5.681   1.798   6.272 -0.1020 -0.3638 -0.1008
16498TIP3    H170909   5.645   1.772   6.356 -0.5885 -1.4493 -0.6356
16498TIP3    H270910   5.622   1.867   6.241 -0.6406 -0.8228 -0.1128
16499TIP3   OH270911   3.515   5.619   5.900  0.8813  0.1545  0.1267
16499TIP3    H170912   3.528   5.525   5.889 -0.3728 -0.0163 -0.0957
16499TIP3    H270913   3.468   5.646   5.821 -2.4587  0.1360  1.9041
16500TIP3   OH270914   0.303   1.548   6.043  0.4400  0.7087 -0.2393
16500TIP3    H170915   0.361   1.546   5.966  0.3693 -0.3939 -0.2735
16500TIP3    H270916   0.253   1.467   6.037  0.6177  0.4876  1.1257
16501TIP3   OH270917   3.923   0.395   3.938  0.0984  0.2416  0.2435
16501TIP3    H170918   3.844   0.437   3.907 -0.1952 -0.7928 -0.4558
16501TIP3    H270919   3.900   0.302   3.945  1.3830 -0.1533 -0.4637
16502TIP3   OH270920   5.975   2.694  16.293 -0.2407 -0.0089  0.5039
16502TIP3    H170921   5.973   2.774  16.240  1.7705 -0.8135 -0.9084
16502TIP3    H270922   6.016   2.720  16.375 -1.0531  0.7120  0.6983
16503TIP3   OH270923   2.700   6.225  11.380  0.0124 -0.3505  0.3275
16503TIP3    H170924   2.691   6.318  11.358  0.9645 -0.3464 -0.0924
16503TIP3    H270925   2.684   6.179  11.298  1.6311 -0.4367  0.0307
16504TIP3   OH270926   3.312   3.728   6.085 -0.1422  0.2367 -0.5631
16504TIP3    H170927   3.272   3.726   5.998  1.0257  0.0974 -1.1158
16504TIP3    H270928   3.248   3.685   6.142 -0.6436 -0.2408 -1.4638
16505TIP3   OH270929   4.935   5.901  11.568 -0.7455 -0.3252 -0.5075
16505TIP3    H170930   4.863   5.943  11.520 -0.9040  1.1054  0.8850
16505TIP3    H270931   5.012   5.953  11.546 -0.7731  0.1831  0.5401
16506TIP3   OH270932   1.261   1.749  14.591  0.4897 -0.1882  0.3147
16506TIP3    H170933   1.228   1.838  14.588  2.2884  0.5182  0.2549
16506TIP3    H270934   1.348   1.754  14.551  1.2681 -1.6668  1.6898
16507TIP3   OH270935   4.731   1.126   5.275 -0.0811  0.9866 -0.7775
16507TIP3    H170936   4.662   1.070   5.239 -0.4428  1.4793 -0.8703
16507TIP3    H270937   4.810   1.073   5.270 -0.6911 -0.1276  0.6213
16508TIP3   OH270938   3.853   5.098  11.747  0.2753 -0.1315  0.0154
16508TIP3    H170939   3.839   5.021  11.692 -0.0792 -0.4980  0.6150
16508TIP3    H270940   3.948   5.100  11.762  0.2604 -0.5572  0.1554
16509TIP3   OH270941   0.528   5.662  16.393 -0.0275  0.7096  0.0403
16509TIP3    H170942   0.563   5.751  16.388  0.2580  0.6168  0.3080
16509TIP3    H270943   0.568   5.616  16.320  1.8841  0.1133  1.3881
16510TIP3   OH270944   2.449   2.692  16.709  0.2018 -0.0421  0.1889
16510TIP3    H170945   2.528   2.660  16.753  0.8777  1.2364 -0.0700
16510TIP3    H270946   2.478   2.717  16.622 -0.8539 -1.2052 -0.5303
16511TIP3   OH270947   6.260   6.622  14.232 -0.6346  0.2789  0.2200
16511TIP3    H170948   6.259   6.609  14.326 -2.1553 -0.8446  0.0707
16511TIP3    H270949   6.206   6.552  14.196 -1.4197  1.6135 -1.3661
16512TIP3   OH270950   0.344   4.068   4.502 -0.5344 -0.0675  0.2385
16512TIP3    H170951   0.393   4.139   4.460 -0.9924  0.2891  0.2952
16512TIP3    H270952   0.256   4.077   4.468 -0.4059 -1.1334 -0.3858
16513TIP3   OH270953   1.648   5.610  14.838 -0.5142  0.2063  0.4391
16513TIP3    H170954   1.612   5.585  14.924  0.7640 -0.2733  0.8658
16513TIP3    H270955   1.739   5.580  14.841 -0.3261  0.5762 -0.9342
16514TIP3   OH270956   2.097   0.440   3.904  0.0388 -0.0657  0.0572
16514TIP3    H170957   2.054   0.472   3.983 -0.4339 -1.3869  0.3653
16514TIP3    H270958   2.155   0.370   3.935 -0.4343 -0.8569 -0.8036
16515TIP3   OH270959   2.544   4.361  12.763  0.3669  0.7198  0.2234
16515TIP3    H170960   2.481   4.419  12.720 -0.5831 -1.7630 -1.9903
16515TIP3    H270961   2.620   4.362  12.704  0.2103 -0.4585 -0.0217
16516TIP3   OH270962   6.368   0.149  13.329  0.3730 -0.4420  0.0976
16516TIP3    H170963   6.379   0.212  13.257  0.6895  1.9223  2.0967
16516TIP3    H270964   6.273   0.135  13.334  0.1782  0.8384  0.3634
16517TIP3   OH270965   5.548   4.473   4.415  0.2380  0.2616  0.0488
16517TIP3    H170966   5.537   4.385   4.452 -0.6661  0.2043 -0.3458
16517TIP3    H270967   5.481   4.480   4.348  0.7556  1.0052 -0.4116
16518TIP3   OH270968   1.024   2.195  17.057  0.6880 -0.1536 -0.2795
16518TIP3    H170969   1.118   2.177  17.060  0.8208  0.4352 -0.6599
16518TIP3    H270970   1.012   2.243  16.975 -0.0537 -0.8101 -0.5733
16519TIP3   OH270971   3.402   2.124  15.734  0.7313  0.2469  0.1755
16519TIP3    H170972   3.391   2.112  15.828  1.1436 -0.0151  0.1925
16519TIP3    H270973   3.497   2.122  15.720  0.6647  0.0722 -0.2722
16520TIP3   OH270974   4.605   5.035  13.759  0.0589  0.5199 -0.4149
16520TIP3    H170975   4.647   5.016  13.675  0.4776 -0.6112  0.0460
16520TIP3    H270976   4.656   4.986  13.824 -1.1859  0.1534  0.3127
16521TIP3   OH270977   2.756   5.476  11.521 -0.2703  0.6273 -0.2486
16521TIP3    H170978   2.695   5.534  11.475 -0.6330 -0.0644 -0.6575
16521TIP3    H270979   2.820   5.451  11.454 -0.7760 -0.3488 -0.3733
16522TIP3   OH270980   6.631   4.070  15.926 -0.0672  0.7669  0.0063
16522TIP3    H170981   6.546   4.047  15.887 -0.3159  0.9822  0.4164
16522TIP3    H270982   6.643   4.008  15.997 -0.7652  1.8955  1.1504
16523TIP3   OH270983   3.336   2.710   6.933 -0.5217 -0.7973  0.1657
16523TIP3    H170984   3.248   2.683   6.908 -0.7456 -1.6500  1.7232
16523TIP3    H270985   3.391   2.634   6.915 -0.1423 -0.3551 -0.5694
16524TIP3   OH270986   3.602   0.072   2.421  0.0759  0.2362  0.4870
16524TIP3    H170987   3.650   0.019   2.357 -0.7528 -1.3327  1.1106
16524TIP3    H270988   3.584   0.154   2.376  1.6801  0.1329 -0.4086
16525TIP3   OH270989   3.316   2.585  13.119  0.0062 -0.0841  0.3705
16525TIP3    H170990   3.324   2.531  13.041  0.5718  1.0385 -0.3808
16525TIP3    H270991   3.225   2.616  13.117 -0.4921 -1.4262  1.1170
16526TIP3   OH270992   6.281   2.351   2.417  0.5253  0.2324  0.3950
16526TIP3    H170993   6.215   2.357   2.486 -0.4440 -0.2259 -0.4838
16526TIP3    H270994   6.300   2.258   2.410  2.1990  0.4300  1.4664
16527TIP3   OH270995   0.597   3.175   4.483 -0.8500  0.1106 -0.0001
16527TIP3    H170996   0.596   3.188   4.388 -0.6374 -3.4496 -0.6386
16527TIP3    H270997   0.671   3.116   4.499 -1.0217  0.4220  2.3598
16528TIP3   OH270998   6.028   5.581   5.976 -0.7938 -0.0945  0.2292
16528TIP3    H170999   6.005   5.623   6.059 -0.3306  0.2405  0.1914
16528TIP3    H271000   5.987   5.635   5.909  2.0268  1.9868 -0.0169
16529TIP3   OH271001   2.297   0.778   1.141 -0.0848 -0.1997  0.6849
16529TIP3    H171002   2.326   0.802   1.228 -0.1968  2.4286  0.0969
16529TIP3    H271003   2.203   0.762   1.150  0.0767 -0.8374  1.2079
16530TIP3   OH271004   4.422   6.571  12.216  0.2281  0.5208  0.3930
16530TIP3    H171005   4.507   6.530  12.231 -0.5186 -1.0563  0.4579
16530TIP3    H271006   4.360   6.498  12.211 -1.4283  1.7001  2.2785
16531TIP3   OH271007   5.016   5.503  12.755  0.1580 -0.1293  0.1890
16531TIP3    H171008   5.101   5.510  12.797  0.3337 -1.3223  0.0689
16531TIP3    H271009   4.975   5.427  12.796 -0.4653 -0.1326 -0.4163
16532TIP3   OH271010   0.729   1.871   2.541  0.1211 -0.1666  0.0784
16532TIP3    H171011   0.721   1.780   2.513 -1.0114 -0.7603  2.0790
16532TIP3    H271012   0.816   1.876   2.581  0.3552 -0.2568 -0.4176
16533TIP3   OH271013   4.419   6.250  13.376  0.3360  0.3750  0.5593
16533TIP3    H171014   4.443   6.276  13.287  1.2442 -1.0424  0.3592
16533TIP3    H271015   4.502   6.227  13.418 -0.1374  0.5017  1.6092
16534TIP3   OH271016   0.593   1.464  12.773 -0.2182  0.0924 -0.1868
16534TIP3    H171017   0.504   1.431  12.781  0.0426 -0.2349  1.8366
16534TIP3    H271018   0.607   1.516  12.853  1.1757  0.6812 -0.7778
16535TIP3   OH271019   3.813   3.734  13.281 -0.5091  0.0899 -0.1233
16535TIP3    H171020   3.814   3.830  13.278  0.4898  0.2341  2.2279
16535TIP3    H271021   3.740   3.713  13.339  0.0353 -0.4673  0.3858
16536TIP3   OH271022   4.961   3.041  11.034 -0.2938 -0.1052  0.5599
16536TIP3    H171023   4.872   3.044  10.997  0.3038  2.9120 -0.9221
16536TIP3    H271024   4.953   3.085  11.118  0.2751  3.4422 -1.0821
16537TIP3   OH271025   0.518   4.654  14.261 -0.4569  0.0745 -0.7544
16537TIP3    H171026   0.468   4.607  14.328  0.6829  0.7618  0.6287
16537TIP3    H271027   0.548   4.734  14.305  0.2513  0.5854 -2.1148
16538TIP3   OH271028   2.114   6.496  13.328 -0.5641 -0.0435  0.4576
16538TIP3    H171029   2.179   6.427  13.342 -0.2061  0.2881  0.4401
16538TIP3    H271030   2.091   6.487  13.235  1.1647  1.2889 -0.1655
16539TIP3   OH271031   4.347   4.684  14.089 -0.2431 -0.1475  0.1936
16539TIP3    H171032   4.378   4.711  14.002 -0.4575  2.1304  0.7567
16539TIP3    H271033   4.369   4.591  14.094  1.6667  0.1358 -1.4793
16540TIP3   OH271034   6.181   4.881   3.265  0.5404 -0.2826 -0.4424
16540TIP3    H171035   6.194   4.917   3.177 -0.6217  0.2791 -0.4102
16540TIP3    H271036   6.248   4.814   3.274  0.8612 -0.1460 -1.6529
16541TIP3   OH271037   2.786   2.294  12.246 -0.2662  0.3408  0.0234
16541TIP3    H171038   2.851   2.290  12.316 -1.4119 -0.0549  1.0981
16541TIP3    H271039   2.752   2.384  12.250 -0.0957  0.4168 -0.2434
16542TIP3   OH271040   5.154   4.435  16.648 -0.0786  0.1059  0.0395
16542TIP3    H171041   5.157   4.342  16.668  1.0247  0.2136  0.4579
16542TIP3    H271042   5.128   4.439  16.556 -1.9578 -0.5256  0.4938
16543TIP3   OH271043   2.696   3.353  13.748  0.0053 -0.5505 -0.6659
16543TIP3    H171044   2.647   3.331  13.828 -0.9835  0.0583 -1.0760
16543TIP3    H271045   2.715   3.446  13.757  0.5399 -0.6425 -0.8126
16544TIP3   OH271046   3.817   2.932  12.708  0.2595  0.7971 -0.0636
16544TIP3    H171047   3.812   2.914  12.801 -1.5893 -1.5659 -0.5355
16544TIP3    H271048   3.897   2.984  12.698  1.4186 -0.2987  2.6072
16545TIP3   OH271049   0.983   2.034   5.625 -0.1489 -0.1213 -0.1597
16545TIP3    H171050   1.034   1.954   5.607  2.0392  1.9614 -5.4350
16545TIP3    H271051   0.898   2.017   5.584 -0.5059 -0.4580  0.6987
16546TIP3   OH271052   3.432   4.951  14.457  0.0260 -0.0198 -0.1461
16546TIP3    H171053   3.503   4.990  14.406  0.0327  0.5578  0.2907
16546TIP3    H271054   3.368   4.924  14.391  0.2563  0.2569 -0.4907
16547TIP3   OH271055   2.497   1.985  13.080  0.3454 -0.1242  0.1265
16547TIP3    H171056   2.526   2.058  13.135  1.4875  0.0154 -0.6230
16547TIP3    H271057   2.405   1.971  13.105 -0.2184  2.1960 -0.3765
16548TIP3   OH271058   4.870   1.460  15.799 -0.2315  0.3350  0.4392
16548TIP3    H171059   4.776   1.468  15.787 -0.1906  1.1392  0.5777
16548TIP3    H271060   4.884   1.476  15.892 -0.0933 -1.2238  0.7025
16549TIP3   OH271061   2.615   0.292   2.780  0.0005  0.1221  0.3139
16549TIP3    H171062   2.678   0.327   2.842 -0.3972  0.8023  0.3501
16549TIP3    H271063   2.661   0.293   2.696  0.4024 -0.4175  0.5304
16550TIP3   OH271064   3.299   0.834  16.102 -0.1405  0.4833  0.1031
16550TIP3    H171065   3.362   0.783  16.154  0.3724  1.7589  0.7702
16550TIP3    H271066   3.267   0.772  16.037 -0.4422 -1.0492  1.6175
16551TIP3   OH271067   3.312   4.750   5.255  0.1489  0.1126  0.3550
16551TIP3    H171068   3.392   4.793   5.286 -0.2726  0.8009  0.5143
16551TIP3    H271069   3.340   4.663   5.230  1.0039  0.4330  0.1588
16552TIP3   OH271070   5.284   1.963   2.594  0.2612 -0.0404  0.3276
16552TIP3    H171071   5.328   2.044   2.568 -0.4124  0.0312 -0.6434
16552TIP3    H271072   5.317   1.945   2.682  2.2547 -0.0042 -0.3551
16553TIP3   OH271073   0.144   5.223  11.824  0.6132  0.2672  0.0158
16553TIP3    H171074   0.124   5.273  11.903  2.1069  0.8809  0.0407
16553TIP3    H271075   0.172   5.289  11.760 -0.1490 -0.2641 -0.8885
16554TIP3   OH271076   0.441   2.449  16.597  0.2901  0.1882 -0.0069
16554TIP3    H171077   0.524   2.491  16.619  0.3767  0.1233 -0.2039
16554TIP3    H271078   0.398   2.509  16.537  0.4535 -0.0384 -0.3574
16555TIP3   OH271079   5.509   4.084  11.541 -0.1098  0.0155 -0.2642
16555TIP3    H171080   5.480   4.002  11.502  0.6019 -0.8930  1.0531
16555TIP3    H271081   5.571   4.120  11.477 -1.1110  0.0280 -1.2752
16556TIP3   OH271082   0.909   2.149  16.663 -0.0734 -0.0581  1.0673
16556TIP3    H171083   0.999   2.166  16.635  0.2487 -1.7045  0.9840
16556TIP3    H271084   0.869   2.236  16.671  1.2388  0.6602  0.1900
16557TIP3   OH271085   3.611   1.169  13.720 -0.3504  0.2920 -0.2738
16557TIP3    H171086   3.660   1.203  13.794 -0.8794  0.4944 -0.0074
16557TIP3    H271087   3.676   1.156  13.651 -0.1031  1.7292 -0.3394
16558TIP3   OH271088   6.376   5.378   2.020 -0.2811 -0.3431 -0.1596
16558TIP3    H171089   6.359   5.386   2.114  1.1785  1.1254  0.0408
16558TIP3    H271090   6.471   5.392   2.012 -0.2474 -1.2699 -1.7836
16559TIP3   OH271091   1.736   3.725   0.319 -0.0071 -0.6227  0.0011
16559TIP3    H171092   1.737   3.758   0.409 -0.5659 -0.9957  0.1474
16559TIP3    H271093   1.828   3.711   0.298  0.1326 -0.4726  0.4980
16560TIP3   OH271094   6.149   0.531   1.459  0.1141 -0.1157 -0.3887
16560TIP3    H171095   6.153   0.446   1.416  0.0584 -0.8723  1.0277
16560TIP3    H271096   6.056   0.546   1.476  0.2029 -0.2521  0.2480
16561TIP3   OH271097   2.857   6.071   0.962  0.1166  0.0814 -0.5631
16561TIP3    H171098   2.811   5.993   0.932 -0.8277  0.6266 -0.5876
16561TIP3    H271099   2.898   6.045   1.045  1.2541 -0.9118 -1.4005
16562TIP3   OH271100   6.357   3.920   4.001 -0.0222 -0.0401 -0.5270
16562TIP3    H171101   6.447   3.947   4.019 -0.3597 -0.3585  2.0169
16562TIP3    H271102   6.309   4.002   3.993  0.1957  0.1511  0.0054
16563TIP3   OH271103   0.061   5.563  12.291  0.1815 -0.0268  0.2850
16563TIP3    H171104   0.057   5.520  12.376  2.4811 -1.7978 -0.3738
16563TIP3    H271105  -0.030   5.572  12.263 -0.5675 -0.3258  2.4572
16564TIP3   OH271106   4.896   6.759  13.467  0.3019 -0.0487 -0.3769
16564TIP3    H171107   4.942   6.786  13.387  0.2360  1.1749 -0.0289
16564TIP3    H271108   4.946   6.684  13.499  1.2031  0.3578 -0.7874
16565TIP3   OH271109   0.913   1.535  13.561 -0.1588 -0.3685  0.3141
16565TIP3    H171110   0.893   1.615  13.609 -0.6857 -1.1435  1.4388
16565TIP3    H271111   0.879   1.465  13.617  0.0545 -1.3593 -0.7681
16566TIP3   OH271112   6.243   3.579   2.510 -0.3609 -0.1703  0.1069
16566TIP3    H171113   6.193   3.514   2.560  0.3995  1.4997  3.3584
16566TIP3    H271114   6.181   3.610   2.444 -1.8185 -1.8417  0.5948
16567TIP3   OH271115   0.353   0.526   3.027  0.2524 -0.0880 -0.0637
16567TIP3    H171116   0.375   0.569   3.110  2.6714 -0.8793 -0.2169
16567TIP3    H271117   0.390   0.584   2.960  1.1322 -1.0205 -0.4026
16568TIP3   OH271118   6.235   2.880  11.426  0.0326 -0.3088  0.2287
16568TIP3    H171119   6.330   2.876  11.414  0.1190 -1.0618  1.0889
16568TIP3    H271120   6.224   2.905  11.518 -0.5772 -2.3433  0.7598
16569TIP3   OH271121   5.649   2.034  13.459 -0.4104  0.6954  0.6451
16569TIP3    H171122   5.700   1.954  13.444  0.1998  1.5302 -2.8275
16569TIP3    H271123   5.703   2.086  13.519  0.9020 -0.1123  0.2093
16570TIP3   OH271124   3.406   5.285   5.034  0.0253 -0.1384 -0.3372
16570TIP3    H171125   3.349   5.360   5.052 -0.6154 -1.0902  1.9952
16570TIP3    H271126   3.399   5.231   5.113  0.8796 -2.3963 -1.7321
16571TIP3   OH271127   6.559   0.966   1.081  0.0506  0.1279  0.0553
16571TIP3    H171128   6.602   0.899   1.133  1.3324  0.8421 -0.0544
16571TIP3    H271129   6.565   0.935   0.991 -2.2695 -1.1649  0.2407
16572TIP3   OH271130   6.543   0.158   3.833 -0.4833 -0.2372 -0.2803
16572TIP3    H171131   6.476   0.089   3.833 -1.2202  0.4566 -0.6523
16572TIP3    H271132   6.533   0.200   3.918  0.8322 -1.3731  0.4817
16573TIP3   OH271133   4.538   4.016  13.499  0.5502  0.5775  0.5948
16573TIP3    H171134   4.633   4.026  13.505  0.5397  2.6524 -1.6435
16573TIP3    H271135   4.518   3.943  13.559  3.4572  0.3735  1.4491
16574TIP3   OH271136   4.069   1.755  17.185  0.3326  0.2443  0.1893
16574TIP3    H171137   4.012   1.786  17.115  1.3138 -1.9145 -1.6793
16574TIP3    H271138   4.010   1.715  17.249 -0.3729 -3.1073 -2.3108
16575TIP3   OH271139   3.875   6.162   2.800  0.2711 -0.2798 -0.0203
16575TIP3    H171140   3.783   6.141   2.785  0.2090 -0.0744  0.0626
16575TIP3    H271141   3.910   6.180   2.712  0.0227  0.4662  0.0238
16576TIP3   OH271142   2.384   3.387  11.477 -0.1269 -0.6544  0.5569
16576TIP3    H171143   2.397   3.369  11.384 -2.9779 -0.8497  0.0922
16576TIP3    H271144   2.372   3.300  11.516 -1.4687 -0.4873  0.5857
16577TIP3   OH271145   2.219   1.167  14.396 -0.6507  0.3605 -0.0457
16577TIP3    H171146   2.306   1.187  14.431  0.0786 -0.6707 -1.2148
16577TIP3    H271147   2.163   1.237  14.429  0.5446  0.8483  1.0117
16578TIP3   OH271148   4.628   4.569  10.970 -0.3032  0.6783  0.1003
16578TIP3    H171149   4.553   4.511  10.967 -0.9071  1.3300  1.6568
16578TIP3    H271150   4.594   4.655  10.946 -0.2836  1.1611  1.6942
16579TIP3   OH271151   1.579   1.499   4.356 -0.1859  0.3789  0.0746
16579TIP3    H171152   1.505   1.467   4.305  0.6796 -2.0865  0.2491
16579TIP3    H271153   1.653   1.496   4.296 -0.0056  2.0363  0.1491
16580TIP3   OH271154   4.636   5.519   0.916  0.7022 -0.8287  0.4377
16580TIP3    H171155   4.558   5.544   0.868  0.6642  0.0727  0.9389
16580TIP3    H271156   4.666   5.600   0.957  3.8361 -0.3619 -2.4095
16581TIP3   OH271157   5.720   0.139   0.141 -0.2936 -0.3924 -0.7370
16581TIP3    H171158   5.701   0.101   0.227 -0.1098 -0.6570 -0.8127
16581TIP3    H271159   5.802   0.186   0.154 -0.8881  0.5953 -0.4577
16582TIP3   OH271160   2.354   0.804  17.129  0.0927 -0.5523 -0.6373
16582TIP3    H171161   2.270   0.828  17.089  1.2653 -0.2070 -3.1412
16582TIP3    H271162   2.402   0.760  17.058  2.2041 -0.2584  0.5350
16583TIP3   OH271163   2.399   1.218  13.241 -0.7384  0.1111 -0.4625
16583TIP3    H171164   2.442   1.290  13.196  0.0340  0.1900  0.3872
16583TIP3    H271165   2.452   1.202  13.319 -2.4503  0.4665  0.8376
16584TIP3   OH271166   2.617   4.324  16.017  0.1541 -0.0070  0.1945
16584TIP3    H171167   2.525   4.316  15.992 -0.3787  2.7476  0.8876
16584TIP3    H271168   2.654   4.385  15.952  1.4280 -0.8205  0.1229
16585TIP3   OH271169   2.028   0.937   3.525  0.3533  0.3254 -0.0003
16585TIP3    H171170   1.983   0.926   3.609  2.7498  1.5208  1.5680
16585TIP3    H271171   2.007   1.026   3.498  0.8862  0.5221  0.2108
16586TIP3   OH271172   4.625   3.485   1.749  0.1232 -0.5243  0.3286
16586TIP3    H171173   4.583   3.571   1.754  1.9392  0.5121 -0.7874
16586TIP3    H271174   4.622   3.462   1.656  0.9993 -0.9198  0.3818
16587TIP3   OH271175   5.189   6.742   5.152  0.6046  0.2323  0.2005
16587TIP3    H171176   5.181   6.650   5.126 -1.3065  0.5981 -0.6692
16587TIP3    H271177   5.248   6.780   5.087 -0.0830 -0.0042 -0.5939
16588TIP3   OH271178   4.516   5.702  15.172  0.3184 -0.5289 -0.0374
16588TIP3    H171179   4.568   5.639  15.222  0.3555 -1.8206 -1.6224
16588TIP3    H271180   4.426   5.672  15.182  0.2633 -0.4302 -0.2327
16589TIP3   OH271181   1.036   3.506  15.310  0.0499  0.3530 -0.0484
16589TIP3    H171182   1.113   3.513  15.367  0.4702  1.6824 -0.7520
16589TIP3    H271183   0.977   3.575  15.341  0.1960  0.9514 -1.0813
16590TIP3   OH271184   0.671   4.121   2.825 -0.2322  0.5105  0.1086
16590TIP3    H171185   0.655   4.143   2.917 -0.4771 -0.9338  0.4428
16590TIP3    H271186   0.595   4.069   2.799 -0.1412  0.8733 -0.9081
16591TIP3   OH271187   0.925   4.976  15.056  0.2198  0.0363 -0.8465
16591TIP3    H171188   0.844   4.926  15.050  0.0424  0.0650  0.9828
16591TIP3    H271189   0.914   5.032  15.132  1.3475  1.1980 -1.4976
16592TIP3   OH271190   6.371   2.895  14.239 -0.0829  0.2305  0.1607
16592TIP3    H171191   6.335   2.819  14.193 -2.0654  1.1549  0.1034
16592TIP3    H271192   6.466   2.880  14.238 -0.2283 -1.0138 -2.0154
16593TIP3   OH271193   5.609   0.795   4.252  0.3966 -0.7060 -0.1145
16593TIP3    H171194   5.595   0.873   4.306 -0.1091  0.8219 -2.3162
16593TIP3    H271195   5.700   0.769   4.271  0.3766  0.0412  1.1126
16594TIP3   OH271196   6.194   3.215   6.687  0.2246  0.2335  0.4000
16594TIP3    H171197   6.289   3.227   6.678  0.2441  1.6945  1.9545
16594TIP3    H271198   6.176   3.132   6.643  2.0393  0.4576 -0.9043
16595TIP3   OH271199   6.252   0.881   3.773 -0.3578 -0.4490 -0.6110
16595TIP3    H171200   6.252   0.786   3.765  1.5196 -0.4421 -1.0303
16595TIP3    H271201   6.280   0.914   3.688  2.8379  0.2692  0.5681
16596TIP3   OH271202   0.761   3.869   1.087  0.7352 -0.2615 -0.3108
16596TIP3    H171203   0.829   3.808   1.059  1.8571  1.2268 -0.9444
16596TIP3    H271204   0.808   3.939   1.131 -0.6807 -0.7193  2.1322
16597TIP3   OH271205   1.139   0.200  12.326 -0.1723  0.0929  0.1465
16597TIP3    H171206   1.205   0.268  12.341  0.7276 -0.4838 -0.9671
16597TIP3    H271207   1.169   0.127  12.380 -0.8623  0.3988  0.9581
16598TIP3   OH271208   4.250   2.698  16.360 -0.1609  0.3936 -0.6551
16598TIP3    H171209   4.266   2.634  16.429 -0.2810  1.9363  0.8713
16598TIP3    H271210   4.266   2.783  16.402 -1.6882  1.4588 -2.1062
16599TIP3   OH271211   3.632   4.762   4.784 -0.1206 -0.3956  0.2228
16599TIP3    H171212   3.719   4.726   4.768 -1.0522 -2.3044 -0.9511
16599TIP3    H271213   3.630   4.779   4.878  2.4340  2.4068 -0.1115
16600TIP3   OH271214   1.773   0.420   2.043  0.0109  0.5130 -0.7199
16600TIP3    H171215   1.817   0.431   2.128  0.6099 -0.5523 -0.8707
16600TIP3    H271216   1.743   0.329   2.043  0.9807  0.1656 -2.0801
16601TIP3   OH271217   5.972   6.096  15.254  0.6670  0.0751  0.3870
16601TIP3    H171218   5.882   6.071  15.278  1.0981 -0.8999  1.0599
16601TIP3    H271219   5.968   6.114  15.161 -0.9221  3.2430  0.9255
16602TIP3   OH271220   4.930   0.921  16.518 -0.1921  0.0163  0.7263
16602TIP3    H171221   5.016   0.943  16.553  0.5512 -0.6060 -0.6458
16602TIP3    H271222   4.902   0.999  16.472  1.2281 -0.8663 -1.7962
16603TIP3   OH271223   3.434   2.073  16.862  0.3405 -0.0883  0.8839
16603TIP3    H171224   3.479   2.019  16.796 -0.3256 -0.1572  0.4765
16603TIP3    H271225   3.450   2.163  16.834 -1.7753 -0.1210 -0.6739
16604TIP3   OH271226   5.087   6.612   1.647  0.3420 -0.4435  0.0538
16604TIP3    H171227   5.043   6.684   1.693  2.1123  1.1528 -0.6477
16604TIP3    H271228   5.154   6.582   1.709  0.0616 -1.0373  0.0728
16605TIP3   OH271229   2.810   0.466   5.706 -0.5757 -0.1279  0.1310
16605TIP3    H171230   2.814   0.402   5.635  1.1512  0.7636 -0.6376
16605TIP3    H271231   2.798   0.414   5.785  2.1363 -1.5796 -0.3038
16606TIP3   OH271232   0.472   6.361  16.313  0.1770 -0.1452 -0.4779
16606TIP3    H171233   0.395   6.313  16.343  0.4745 -0.7568 -0.6920
16606TIP3    H271234   0.459   6.450  16.347  0.5743 -0.8422  1.5857
16607TIP3   OH271235   1.792   2.179   0.274 -0.4500 -0.5964  0.0916
16607TIP3    H171236   1.882   2.211   0.266 -1.3335  1.8247 -1.0822
16607TIP3    H271237   1.752   2.234   0.341 -1.5320 -0.4223 -0.6669
16608TIP3   OH271238   6.134   1.167  11.835 -0.1086  0.4442 -0.2383
16608TIP3    H171239   6.067   1.204  11.892 -1.0501 -0.0683 -0.9663
16608TIP3    H271240   6.173   1.242  11.791 -1.9076  0.6594 -1.6124
16609TIP3   OH271241   2.323   4.172  13.734 -0.0880  0.2745  0.0626
16609TIP3    H171242   2.315   4.153  13.828  0.5190  2.5063  0.6449
16609TIP3    H271243   2.416   4.160  13.715 -0.3208 -0.7988 -0.4211
16610TIP3   OH271244   5.593   0.196   4.715  0.1141 -0.0806 -0.2656
16610TIP3    H171245   5.669   0.146   4.688 -1.7502 -2.0414 -2.2898
16610TIP3    H271246   5.566   0.156   4.798 -1.1070 -2.3923 -1.6502
16611TIP3   OH271247   1.577   5.323  14.367 -0.1225  0.2618 -0.3664
16611TIP3    H171248   1.606   5.340  14.278  3.3651 -1.0419  0.3781
16611TIP3    H271249   1.582   5.408  14.411  3.0154  0.1199 -0.2578
16612TIP3   OH271250   5.232   5.842   5.871  0.2528  0.4914 -0.3237
16612TIP3    H171251   5.173   5.799   5.810  0.9086 -0.8818 -0.0449
16612TIP3    H271252   5.316   5.845   5.825  0.9279 -1.1733  0.6987
16613TIP3   OH271253   5.787   4.308  16.120  0.0801  0.1446 -0.1771
16613TIP3    H171254   5.849   4.235  16.119  0.9455  0.8290  1.3061
16613TIP3    H271255   5.774   4.329  16.027  1.7292 -0.3042 -0.5443
16614TIP3   OH271256   6.627   0.136   1.174  0.7115  0.4617 -0.5037
16614TIP3    H171257   6.615   0.045   1.147 -1.1147  1.4701 -3.6735
16614TIP3    H271258   6.547   0.157   1.223  1.9119 -0.0463  1.7740
16615TIP3   OH271259   5.375   4.353  14.611  0.1296  0.2698 -0.3416
16615TIP3    H171260   5.341   4.281  14.558  0.4801  0.3557 -0.6840
16615TIP3    H271261   5.421   4.310  14.683  1.4158  0.1312 -1.2190
16616TIP3   OH271262   6.464   4.480  17.344 -0.6118 -0.2580  0.3936
16616TIP3    H171263   6.474   4.385  17.349  1.7310 -0.1851 -1.4090
16616TIP3    H271264   6.541   4.515  17.389 -1.3316  0.8165  0.8318
16617TIP3   OH271265   6.425   2.513  12.839 -0.1789  0.3564 -0.0864
16617TIP3    H171266   6.449   2.447  12.773 -0.7185  0.6277 -0.5679
16617TIP3    H271267   6.414   2.593  12.788  2.4499  1.3422  0.7287
16618TIP3   OH271268   5.397   0.753  12.953  0.6137 -0.4632 -0.1238
16618TIP3    H171269   5.432   0.794  13.032 -1.1804  2.2475 -0.6241
16618TIP3    H271270   5.474   0.740  12.898  1.4861  0.6670  0.7639
16619TIP3   OH271271   5.772   1.665   4.881  0.7342  0.4203 -0.1487
16619TIP3    H171272   5.710   1.632   4.816  1.3659 -1.6632  0.2523
16619TIP3    H271273   5.822   1.731   4.834 -0.7823  1.0909 -0.8968
16620TIP3   OH271274   4.220   3.924  10.733  0.5263 -0.0977 -0.1689
16620TIP3    H171275   4.193   3.912  10.642  0.6917  0.1552 -0.2517
16620TIP3    H271276   4.299   3.870  10.741  0.7436  0.2013 -0.2876
16621TIP3   OH271277   0.185   6.249  15.094  0.0825  0.0922 -0.0614
16621TIP3    H171278   0.198   6.318  15.029 -1.3954 -1.0823 -1.7011
16621TIP3    H271279   0.094   6.257  15.121 -0.2077 -1.3421 -0.4941
16622TIP3   OH271280   1.043   1.844  12.535  0.3089 -0.0284  0.0678
16622TIP3    H171281   1.031   1.823  12.627  1.2257 -0.0435  0.1957
16622TIP3    H271282   0.996   1.926  12.521  2.7414  1.6946  1.3185
16623TIP3   OH271283   5.962   2.520   1.375  0.1700 -0.0091  0.2252
16623TIP3    H171284   5.882   2.503   1.325  0.6811 -3.0164  0.2386
16623TIP3    H271285   6.019   2.566   1.314 -0.0798 -1.5805 -1.2791
16624TIP3   OH271286   0.881   5.946   3.385  0.2165 -0.2261  0.0505
16624TIP3    H171287   0.836   6.024   3.419  2.3278  2.1963 -2.2376
16624TIP3    H271288   0.968   5.950   3.424  0.1761 -1.7975  0.3374
16625TIP3   OH271289   2.549   5.965  12.798  0.3247  0.5509 -0.0435
16625TIP3    H171290   2.551   5.871  12.815  1.0169  0.5248 -0.2288
16625TIP3    H271291   2.623   5.980  12.740 -0.7791  0.9384 -1.4237
16626TIP3   OH271292   6.645   3.505  12.881 -0.0914  0.0807  0.4362
16626TIP3    H171293   6.606   3.539  12.800  0.2240  0.0096  0.2511
16626TIP3    H271294   6.698   3.578  12.914  1.6224 -0.6179 -0.6415
16627TIP3   OH271295   3.468   2.995   2.169  0.0493  0.6196  0.6567
16627TIP3    H171296   3.502   2.985   2.258 -0.5087 -1.0187  0.7102
16627TIP3    H271297   3.425   2.912   2.150  1.1836  0.4797 -1.5862
16628TIP3   OH271298   2.011   4.349   2.147 -0.0466 -0.6294 -0.5111
16628TIP3    H171299   2.068   4.315   2.216 -0.2162 -0.6311 -0.3681
16628TIP3    H271300   1.925   4.356   2.190 -0.2439 -1.0178 -0.8375
16629TIP3   OH271301   0.893   6.676  13.321  0.0757 -0.5072  0.4814
16629TIP3    H171302   0.801   6.649  13.325  0.2055 -0.8064  1.9433
16629TIP3    H271303   0.900   6.746  13.386  1.0161 -0.9480  0.8652
16630TIP3   OH271304   1.806   3.114   5.552 -0.1042 -0.5194  0.0978
16630TIP3    H171305   1.729   3.125   5.496  1.0599  1.0629 -1.2929
16630TIP3    H271306   1.773   3.066   5.628 -1.8409 -2.4187 -1.7103
16631TIP3   OH271307   5.040   4.024   3.573  0.1139  0.0740  0.4178
16631TIP3    H171308   5.092   4.085   3.625  0.2136  0.4927 -0.1671
16631TIP3    H271309   4.962   4.008   3.626  0.6430 -0.2451  1.1191
16632TIP3   OH271310   5.061   1.856  14.615 -0.7391 -0.5829 -0.4909
16632TIP3    H171311   5.029   1.831  14.528 -0.6719 -4.2958  0.4073
16632TIP3    H271312   5.018   1.795  14.675  1.4567 -0.0596  1.7568
16633TIP3   OH271313   1.785   1.882  12.655  0.2756  0.1424 -0.0606
16633TIP3    H171314   1.783   1.914  12.745  3.4207  3.8057 -1.0141
16633TIP3    H271315   1.830   1.797  12.661  0.4788  0.3356  1.7801
16634TIP3   OH271316   3.141   4.370  11.914 -0.0250 -0.4187  0.0471
16634TIP3    H171317   3.115   4.316  11.839 -2.6107 -0.6255  0.9854
16634TIP3    H271318   3.201   4.314  11.964  2.2215 -0.0642 -2.0435
16635TIP3   OH271319   2.112   5.418   4.215 -0.2589 -0.0241  0.3557
16635TIP3    H171320   2.050   5.358   4.172  0.2085  0.2641 -0.7661
16635TIP3    H271321   2.161   5.458   4.142 -0.1297  1.2506  1.1087
16636TIP3   OH271322   3.019   2.516   4.359 -0.7091  0.6870 -0.5964
16636TIP3    H171323   2.959   2.533   4.432 -0.5416  2.1342 -0.7605
16636TIP3    H271324   3.102   2.492   4.401 -1.4905 -1.9178 -0.3702
16637TIP3   OH271325   3.916   6.200   1.572 -0.0001 -0.4399  0.2189
16637TIP3    H171326   3.892   6.168   1.485  3.1616 -0.5677 -0.7072
16637TIP3    H271327   3.910   6.295   1.564 -0.6344 -0.4706  0.2033
16638TIP3   OH271328   2.971   4.683   1.389 -0.0275 -0.1875 -0.5845
16638TIP3    H171329   3.042   4.748   1.394 -1.9528  2.0907 -0.6820
16638TIP3    H271330   2.947   4.666   1.480 -0.7286  0.7407 -0.5752
16639TIP3   OH271331   1.053   2.698  13.782 -0.6343  0.5748  0.3951
16639TIP3    H171332   1.020   2.673  13.868 -1.9464  0.1899 -0.1993
16639TIP3    H271333   0.995   2.768  13.753 -0.3292  0.5588 -0.2740
16640TIP3   OH271334   3.720   5.707  13.993  0.0141  0.1059  0.2826
16640TIP3    H171335   3.656   5.778  14.004 -0.8171 -0.5442 -0.2002
16640TIP3    H271336   3.714   5.683  13.900  2.1670  1.1212 -0.1851
16641TIP3   OH271337   5.184   5.207   3.625  0.7549 -0.3668 -0.9259
16641TIP3    H171338   5.192   5.115   3.648  1.2235 -0.1566 -0.1778
16641TIP3    H271339   5.265   5.227   3.577  0.3291 -0.5114 -1.7172
16642TIP3   OH271340   0.905   0.040   0.464  0.0970 -0.0321  0.4135
16642TIP3    H171341   0.864   0.078   0.386  0.7442 -0.0200  0.0702
16642TIP3    H271342   0.997   0.063   0.456  0.2398 -0.3876  0.9780
16643TIP3   OH271343   3.641   4.667  11.446  0.2195  0.5336  0.3373
16643TIP3    H171344   3.565   4.625  11.406  1.1854 -0.8133 -0.1688
16643TIP3    H271345   3.682   4.598  11.498  0.8695  1.3496  0.9392
16644TIP3   OH271346   4.658   3.905  12.364 -0.7371 -0.1657  0.4068
16644TIP3    H171347   4.575   3.917  12.317 -0.0953  1.8381 -0.3171
16644TIP3    H271348   4.661   3.980  12.425 -0.6216 -1.6245  2.2979
16645TIP3   OH271349   0.388   1.249   4.780 -0.0008 -0.5291  1.0240
16645TIP3    H171350   0.428   1.327   4.741 -2.6531 -0.2291 -1.4337
16645TIP3    H271351   0.352   1.280   4.863  0.5314  0.4147  0.9213
16646TIP3   OH271352   1.230   4.296   4.448 -0.1103  0.0331 -0.2988
16646TIP3    H171353   1.277   4.217   4.471 -0.2113 -0.0881 -0.5030
16646TIP3    H271354   1.285   4.368   4.480  0.4416 -0.0898 -0.9405
16647TIP3   OH271355   0.454   3.315  11.134  0.2853  0.1581 -0.1730
16647TIP3    H171356   0.436   3.332  11.041  0.6691  0.1478 -0.2540
16647TIP3    H271357   0.513   3.239  11.133  0.5217  0.3391  0.0651
16648TIP3   OH271358   0.155   0.814  14.281 -0.0909  0.3428 -0.2447
16648TIP3    H171359   0.206   0.857  14.212  0.5939  1.1466  0.7441
16648TIP3    H271360   0.141   0.725  14.248  1.5726  0.2356 -0.7399
16649TIP3   OH271361   4.968   1.167  12.411 -0.3075  0.2093 -0.1962
16649TIP3    H171362   4.891   1.163  12.467  1.4384  0.1332  2.3629
16649TIP3    H271363   4.945   1.231  12.343 -3.3375 -1.3724 -0.8409
16650TIP3   OH271364   1.613   0.057  13.451 -0.0315 -0.2252  0.2888
16650TIP3    H171365   1.694   0.107  13.443 -0.4575  0.4162 -0.0904
16650TIP3    H271366   1.548   0.109  13.403 -0.6011 -0.8738  0.3471
16651TIP3   OH271367   4.837   2.009   1.083 -0.1935 -0.3513  0.3473
16651TIP3    H171368   4.810   1.954   1.010  1.9610 -0.9048 -0.1146
16651TIP3    H271369   4.902   1.957   1.130 -0.1315  0.7446  1.5459
16652TIP3   OH271370   6.386   6.390  15.765 -0.1678  0.1755 -0.1925
16652TIP3    H171371   6.341   6.350  15.690 -0.5326 -3.1748  1.6422
16652TIP3    H271372   6.330   6.464  15.790 -1.4723 -0.3024 -1.5570
16653TIP3   OH271373   5.893   6.418  16.146  0.2563 -0.3964 -0.1591
16653TIP3    H171374   5.888   6.487  16.212 -2.5444  0.1851 -0.8450
16653TIP3    H271375   5.986   6.409  16.128  0.9282  1.0908  2.1161
16654TIP3   OH271376   6.461   0.565   5.182 -0.4095 -0.5220  0.8086
16654TIP3    H171377   6.488   0.651   5.215 -1.2885  0.6245 -1.1937
16654TIP3    H271378   6.365   0.568   5.183 -0.4653 -0.9090 -0.4967
16655TIP3   OH271379   3.317   1.636   6.474  0.2072  0.1630 -0.4549
16655TIP3    H171380   3.296   1.729   6.481 -0.4009  0.0853 -1.1077
16655TIP3    H271381   3.294   1.613   6.384 -1.3976 -1.0152  0.2063
16656TIP3   OH271382   4.031   0.023   1.362  0.4767  0.4702  0.2502
16656TIP3    H171383   4.072   0.017   1.275 -0.3418  0.8606 -0.1707
16656TIP3    H271384   4.051   0.111   1.392 -0.0507  0.6644  0.0402
16657TIP3   OH271385   3.876   0.046  11.861  0.1008 -0.5545  0.1494
16657TIP3    H171386   3.915  -0.041  11.849  0.5627 -0.2937 -0.3252
16657TIP3    H271387   3.840   0.044  11.949 -1.4584 -1.8193 -0.4742
16658TIP3   OH271388   6.326   2.066  16.701 -0.3969  0.0154  0.5888
16658TIP3    H171389   6.414   2.056  16.666 -0.8287  0.9372 -0.8522
16658TIP3    H271390   6.337   2.118  16.781  0.0602  3.8726 -1.7742
16659TIP3   OH271391   4.704   5.586  16.635  0.0040 -0.0230  0.6727
16659TIP3    H171392   4.626   5.559  16.684 -0.4585  0.6469  0.3260
16659TIP3    H271393   4.743   5.655  16.688 -0.8177  1.1079 -0.1499
16660TIP3   OH271394   5.612   4.447  13.348  0.3216 -0.1380 -0.0767
16660TIP3    H171395   5.585   4.518  13.290 -0.0812 -0.8044 -0.7053
16660TIP3    H271396   5.582   4.475  13.435 -1.0570 -0.1690 -0.5335
16661TIP3   OH271397   5.857   6.067   3.215 -0.4166  0.1986  0.1196
16661TIP3    H171398   5.913   5.993   3.238 -1.0884 -1.2661 -2.5375
16661TIP3    H271399   5.900   6.142   3.256  0.9105 -1.4709  2.0037
16662TIP3   OH271400   2.210   1.432   3.951 -0.0270 -0.3618 -0.3064
16662TIP3    H171401   2.212   1.340   3.978 -0.0245 -0.1097  0.5755
16662TIP3    H271402   2.290   1.470   3.989 -0.5959  0.2586  0.2995
16663TIP3   OH271403   1.906   1.024   0.122 -0.5388  0.0749 -0.3438
16663TIP3    H171404   1.872   1.101   0.168 -0.2104 -0.4743  0.8808
16663TIP3    H271405   1.856   1.021   0.040 -2.6332 -0.0343  0.8444
16664TIP3   OH271406   6.196   3.720  16.007 -0.3158  0.0341  0.4519
16664TIP3    H171407   6.270   3.706  16.066  1.6177 -1.0123 -2.0558
16664TIP3    H271408   6.185   3.636  15.962 -0.8695  1.1412 -1.5770
16665TIP3   OH271409   1.693   6.195  15.062  0.1675  0.1673 -0.7963
16665TIP3    H171410   1.777   6.219  15.024  0.4439  0.8160  0.1976
16665TIP3    H271411   1.637   6.272  15.047 -0.1217 -0.0889 -1.0590
16666TIP3   OH271412   5.970   3.637   1.869  0.6238 -0.4268  0.4087
16666TIP3    H171413   6.019   3.701   1.819  1.7365 -0.2156  1.7006
16666TIP3    H271414   5.927   3.582   1.803  0.5587  0.9231 -0.7224
16667TIP3   OH271415   2.693   0.957   1.810 -0.3778 -0.4553 -0.0326
16667TIP3    H171416   2.618   1.014   1.831  1.3556  2.0687 -0.2773
16667TIP3    H271417   2.762   0.987   1.870  0.8504 -1.7866 -0.7476
16668TIP3   OH271418   1.663   1.491  15.822 -0.4245 -0.2379 -0.3384
16668TIP3    H171419   1.742   1.529  15.861 -1.0910  0.5971  0.2436
16668TIP3    H271420   1.607   1.566  15.804  0.5910 -0.3195 -4.8432
16669TIP3   OH271421   2.757   4.767  13.301  0.0238 -0.1744 -0.5188
16669TIP3    H171422   2.676   4.789  13.256  0.4522  0.8746 -0.7962
16669TIP3    H271423   2.754   4.817  13.382  1.4676  1.8132 -1.6111
16670TIP3   OH271424   5.058   3.633   3.226 -0.2130  0.0461  0.0552
16670TIP3    H171425   5.072   3.541   3.248 -0.8251  0.0682  0.5573
16670TIP3    H271426   5.091   3.681   3.302  0.8728  0.2921 -0.5439
16671TIP3   OH271427   0.357   4.059  16.033  0.5093  0.1593 -0.1442
16671TIP3    H171428   0.393   4.078  15.946  0.2998 -1.2617 -0.5788
16671TIP3    H271429   0.341   4.144  16.072  0.6505  0.8274 -1.4887
16672TIP3   OH271430   0.181   0.873  12.486 -0.6675 -0.3660 -0.4293
16672TIP3    H171431   0.206   0.780  12.488 -0.2356 -0.2400  0.6820
16672TIP3    H271432   0.217   0.909  12.567 -2.9508  0.2241  0.4060
16673TIP3   OH271433   5.652   6.100  14.751  0.0001  0.2754  1.1139
16673TIP3    H171434   5.638   6.033  14.684 -2.0700  2.1326 -0.4718
16673TIP3    H271435   5.569   6.102  14.799 -0.0780  1.8563  0.9445
16674TIP3   OH271436   3.994   4.428   5.220 -0.2020 -0.4789  0.1785
16674TIP3    H171437   4.040   4.347   5.196  0.7347 -0.0161  0.3369
16674TIP3    H271438   3.945   4.406   5.298 -0.1227 -0.9554  0.0965
16675TIP3   OH271439   0.507   5.005  11.401 -0.0971  0.3032 -0.2596
16675TIP3    H171440   0.586   4.968  11.439 -0.0519 -0.4289 -1.0214
16675TIP3    H271441   0.484   4.945  11.330 -0.7947  1.0207 -0.6669
16676TIP3   OH271442   4.510   6.537  15.712  0.7097 -0.7598 -0.1463
16676TIP3    H171443   4.602   6.511  15.719  0.9551 -0.0015 -0.4311
16676TIP3    H271444   4.501   6.609  15.774  0.2784 -0.8948 -0.0490
16677TIP3   OH271445   1.432   6.378  16.503 -0.6370  0.2170 -0.1441
16677TIP3    H171446   1.342   6.366  16.532  0.1947 -0.5409  2.3503
16677TIP3    H271447   1.455   6.467  16.532  0.1937 -0.5365  1.6272
16678TIP3   OH271448   5.866   2.489  15.942 -0.4212 -0.0287  0.8426
16678TIP3    H171449   5.934   2.530  15.888 -2.2081 -0.1219 -1.6656
16678TIP3    H271450   5.901   2.401  15.961  1.0800  0.6851  1.5547
16679TIP3   OH271451   4.026   0.813   5.684  0.0218  0.3928 -0.3356
16679TIP3    H171452   4.040   0.903   5.711 -1.4789  0.0981  1.7120
16679TIP3    H271453   4.090   0.762   5.735 -0.1438  0.1817 -0.3330
16680TIP3   OH271454   4.575   6.155   4.317  0.4019 -0.0348  0.2340
16680TIP3    H171455   4.493   6.120   4.282  0.7711 -0.4596 -0.2242
16680TIP3    H271456   4.572   6.248   4.297  0.3878 -0.1868 -0.5172
16681TIP3   OH271457   3.446   2.951   3.191  0.0497  0.0059 -0.0868
16681TIP3    H171458   3.432   2.881   3.127  1.2824 -0.7598  0.4597
16681TIP3    H271459   3.485   3.022   3.140  0.7566 -0.4905 -0.2444
16682TIP3   OH271460   0.343   5.633   3.664  0.0211  0.4789 -0.3494
16682TIP3    H171461   0.250   5.631   3.643 -0.6135  0.9309  2.0984
16682TIP3    H271462   0.381   5.696   3.603 -1.6522  1.7562 -0.1292
16683TIP3   OH271463   4.054   5.074  11.979  0.2923 -0.1962  0.0423
16683TIP3    H171464   4.051   5.169  11.964  0.0068 -0.2585 -0.3062
16683TIP3    H271465   4.027   5.064  12.070 -1.4130 -0.0581 -0.4029
16684TIP3   OH271466   4.691   3.883   4.478  0.3094 -0.0846  0.5294
16684TIP3    H171467   4.609   3.885   4.429  0.7993 -0.1892 -0.3103
16684TIP3    H271468   4.707   3.975   4.503 -0.3870 -0.1526  1.2744
16685TIP3   OH271469   2.939   0.937   2.211 -0.5101 -0.0213  0.7757
16685TIP3    H171470   3.031   0.947   2.237 -1.2179  1.8381  2.8326
16685TIP3    H271471   2.919   0.846   2.231  0.7521 -0.3369  0.7188
16686TIP3   OH271472   0.027   1.814   1.714  0.2588 -0.0489 -0.4015
16686TIP3    H171473   0.118   1.844   1.713 -0.4753  2.3675  0.4053
16686TIP3    H271474  -0.003   1.828   1.624  0.0225  1.4071 -0.1124
16687TIP3   OH271475   3.699   6.146  11.264  0.2911 -0.4857  0.0097
16687TIP3    H171476   3.693   6.167  11.358 -2.2455  0.4653 -0.2730
16687TIP3    H271477   3.635   6.076  11.251  0.1841 -0.1943 -1.1036
16688TIP3   OH271478   0.661   4.078   0.527  0.1715 -0.1960 -0.4903
16688TIP3    H171479   0.688   4.070   0.619 -0.7644 -1.4621 -0.2904
16688TIP3    H271480   0.728   4.030   0.479  0.5315  0.2603 -0.4525
16689TIP3   OH271481   3.165   2.551   0.047  0.0402 -0.0517  0.4839
16689TIP3    H171482   3.110   2.618   0.088 -0.0915  0.5175 -0.5873
16689TIP3    H271483   3.115   2.522  -0.030  0.7021 -0.3993  0.1745
16690TIP3   OH271484   0.577   3.458  14.002  0.4580 -0.8363 -0.2858
16690TIP3    H171485   0.562   3.530  14.064  1.1118  0.0196 -1.0852
16690TIP3    H271486   0.655   3.414  14.035 -0.7152 -2.0643  0.9700
16691TIP3   OH271487   3.305   2.799  13.981  0.0665 -0.3796  0.1256
16691TIP3    H171488   3.325   2.751  13.901 -0.3604  0.4626 -0.5023
16691TIP3    H271489   3.251   2.873  13.952  2.5433  1.7934  0.7237
16692TIP3   OH271490   5.195   6.645   6.134  0.2554  0.0452 -0.8060
16692TIP3    H171491   5.224   6.578   6.196 -1.2525 -0.9845 -1.1525
16692TIP3    H271492   5.204   6.727   6.181  0.9201 -0.5297  0.1026
16693TIP3   OH271493   3.501   5.939  13.935 -0.7456  0.8206 -0.0860
16693TIP3    H171494   3.495   5.990  13.854 -1.8228 -0.0074 -0.5615
16693TIP3    H271495   3.523   6.003  14.002 -0.0647  1.5651 -0.9926
16694TIP3   OH271496   0.105   3.835  16.582 -0.1151  0.0476  0.1042
16694TIP3    H171497   0.060   3.787  16.651  0.2779  1.5768  1.4674
16694TIP3    H271498   0.108   3.773  16.509 -0.6174 -1.5941  1.4030
16695TIP3   OH271499   2.842   4.000  16.153 -0.1033  0.2561  0.2320
16695TIP3    H171500   2.932   3.991  16.182 -0.3642  0.0436  1.0076
16695TIP3    H271501   2.790   3.987  16.232 -0.9783 -3.0535 -0.7373
16696TIP3   OH271502   4.906   2.525   3.615 -0.1230  0.1995 -0.3810
16696TIP3    H171503   4.839   2.592   3.603  0.2934  0.9637  1.2864
16696TIP3    H271504   4.861   2.453   3.660  0.2836  1.0095  1.4021
16697TIP3   OH271505   1.084   4.907   2.879 -0.1083 -0.0903 -0.1561
16697TIP3    H171506   1.110   4.983   2.932  0.6446  0.1452 -0.8358
16697TIP3    H271507   1.131   4.833   2.918  1.4419  0.2828 -1.1904
16698TIP3   OH271508   1.039   6.478  11.659  0.1410  1.0104 -0.4247
16698TIP3    H171509   1.083   6.481  11.574  0.5744 -0.0550 -0.2570
16698TIP3    H271510   1.107   6.503  11.722  0.3187  0.0803 -0.2344
16699TIP3   OH271511   1.120   6.174   5.474  0.1423  1.0303  0.7254
16699TIP3    H171512   1.180   6.115   5.428 -0.2783  1.3733 -0.2776
16699TIP3    H271513   1.118   6.253   5.421 -1.1512  1.0502  0.7720
16700TIP3   OH271514   2.151   5.369  15.994 -0.0586  0.5653  0.5403
16700TIP3    H171515   2.071   5.389  16.043  0.1828 -0.2334  1.2754
16700TIP3    H271516   2.200   5.309  16.050  1.0188  0.9610  0.0577
16701TIP3   OH271517   0.867   1.840   4.904 -0.8024 -0.1302 -0.4282
16701TIP3    H171518   0.836   1.916   4.954  1.3847  0.6219 -0.1194
16701TIP3    H271519   0.904   1.878   4.824 -1.1703 -1.0456 -1.0539
16702TIP3   OH271520   6.506   2.081   0.663  0.2041 -0.5320  0.1831
16702TIP3    H171521   6.585   2.027   0.657  2.9413  2.6012  3.6114
16702TIP3    H271522   6.472   2.065   0.751 -2.5367 -1.0383 -0.8672
16703TIP3   OH271523   2.541   5.196  16.760  0.5682 -0.1058  0.1249
16703TIP3    H171524   2.561   5.241  16.842  0.7903 -0.2402  0.1468
16703TIP3    H271525   2.489   5.121  16.786 -0.4183  0.5257  0.0177
16704TIP3   OH271526   0.145   3.111  14.002  0.1556  0.0886 -0.0899
16704TIP3    H171527   0.062   3.069  13.980 -0.3272  0.5410  0.7933
16704TIP3    H271528   0.199   3.040  14.038 -0.6123  0.1511  1.2793
16705TIP3   OH271529   3.041   4.193   3.935 -0.4048  0.4724 -0.1727
16705TIP3    H171530   3.046   4.288   3.946 -1.2985  0.3561  1.6191
16705TIP3    H271531   2.985   4.163   4.007 -0.8419 -1.3344 -1.1962
16706TIP3   OH271532   4.424   5.393   1.087 -0.3154 -0.3215  0.8286
16706TIP3    H171533   4.372   5.357   1.015 -0.3471 -0.6319  1.0079
16706TIP3    H271534   4.513   5.400   1.051 -0.1030 -1.4604  1.0806
16707TIP3   OH271535   0.208   4.423   1.474 -0.4474 -0.3479  0.2625
16707TIP3    H171536   0.186   4.347   1.529 -1.5041 -1.2880 -1.3706
16707TIP3    H271537   0.294   4.402   1.438 -1.0288 -1.1678 -0.7345
16708TIP3   OH271538   2.222   1.251   5.546  0.7233 -0.0975 -0.2840
16708TIP3    H171539   2.310   1.230   5.515  0.4599  0.4471 -1.4312
16708TIP3    H271540   2.191   1.169   5.586  0.3799 -1.4484 -3.0791
16709TIP3   OH271541   4.987   5.475  16.816 -0.2886  0.0644  0.6149
16709TIP3    H171542   4.945   5.406  16.764  0.4023  0.5313 -0.6098
16709TIP3    H271543   4.927   5.549  16.811  0.6922  0.7908 -1.2835
16710TIP3   OH271544   1.310   0.725   6.508 -0.2795 -0.1253 -0.0378
16710TIP3    H171545   1.392   0.677   6.522  0.4534  0.8715 -0.7749
16710TIP3    H271546   1.277   0.743   6.596 -0.3052 -1.5074  0.2603
16711TIP3   OH271547   4.968   1.591  12.434 -0.0701 -0.1051  0.4112
16711TIP3    H171548   5.044   1.544  12.470  0.4494  0.0272 -0.4932
16711TIP3    H271549   4.929   1.634  12.511  1.5432  0.9075  0.7343
16712TIP3   OH271550   3.076   0.391   1.804  0.8276 -0.3137  0.0873
16712TIP3    H171551   3.034   0.476   1.812 -3.0666 -1.9888 -0.0647
16712TIP3    H271552   3.143   0.404   1.737 -1.5620  2.0677 -2.1203
16713TIP3   OH271553   3.078   2.113  11.704 -0.0133 -0.3837 -0.3999
16713TIP3    H171554   3.024   2.178  11.660  0.2245  0.1436  0.0699
16713TIP3    H271555   3.131   2.074  11.634  1.5807  1.6131 -0.4050
16714TIP3   OH271556   0.937   2.451   0.358 -0.1367 -0.1869 -0.2766
16714TIP3    H171557   0.896   2.368   0.380 -0.6401  0.2699  0.5387
16714TIP3    H271558   1.031   2.436   0.369 -0.3347 -0.1074  1.7951
16715TIP3   OH271559   4.647   0.998  12.249 -0.5472 -0.4240 -0.2793
16715TIP3    H171560   4.654   1.087  12.214  0.6007  0.1382  1.2561
16715TIP3    H271561   4.734   0.979  12.282 -1.7924 -0.2580  3.6224
16716TIP3   OH271562   0.742   0.401   2.571  0.2569 -0.0565 -0.0580
16716TIP3    H171563   0.756   0.359   2.487 -1.3292 -1.6145  0.4014
16716TIP3    H271564   0.674   0.467   2.553 -0.6221 -0.8954  0.1219
16717TIP3   OH271565   1.155   1.329   4.328  0.0469 -0.4393 -0.1106
16717TIP3    H171566   1.173   1.250   4.379 -1.6782 -2.2079 -2.0691
16717TIP3    H271567   1.073   1.363   4.365  0.8480  0.5766  0.8098
16718TIP3   OH271568   0.558   5.363   2.133 -0.2057  0.0757 -0.0601
16718TIP3    H171569   0.598   5.343   2.218 -2.0140  1.1286  1.0998
16718TIP3    H271570   0.610   5.313   2.070 -0.3659 -2.8159  1.9134
16719TIP3   OH271571   2.378   0.417   0.090  0.6480  0.4922 -0.0273
16719TIP3    H171572   2.320   0.452   0.022 -0.6332  3.8904  2.5072
16719TIP3    H271573   2.321   0.406   0.166  2.6393  0.2129  1.5007
16720TIP3   OH271574   5.753   6.660  14.905  0.0864 -0.6753  0.1524
16720TIP3    H171575   5.728   6.585  14.851  0.4971 -0.7174  0.0173
16720TIP3    H271576   5.755   6.625  14.994 -2.9085 -0.0700  0.5636
16721TIP3   OH271577   2.689   0.511   1.832  0.3334  0.9668 -0.3039
16721TIP3    H171578   2.606   0.529   1.876  0.5055 -0.1559  0.5497
16721TIP3    H271579   2.756   0.549   1.889  0.6376 -1.4475  1.0958
16722TIP3   OH271580   3.121   4.769   5.460 -0.5053 -0.0487  0.2250
16722TIP3    H171581   3.185   4.804   5.398 -0.9540 -0.0657 -0.2525
16722TIP3    H271582   3.117   4.834   5.530 -0.6598  0.4127 -0.2072
16723TIP3   OH271583   5.473   0.122   1.906  0.6171 -0.1331  0.0098
16723TIP3    H171584   5.525   0.042   1.908  0.4273 -0.4230 -2.9179
16723TIP3    H271585   5.507   0.174   1.978  2.4164 -1.8367  0.4773
16724TIP3   OH271586   2.748   6.599   0.622  0.4565  0.0623 -0.6297
16724TIP3    H171587   2.798   6.610   0.703 -1.2953  2.5512  0.2200
16724TIP3    H271588   2.755   6.683   0.577  0.3290 -0.8693 -2.4904
16725TIP3   OH271589   4.655   4.364  17.046  0.2203 -0.0863  0.1407
16725TIP3    H171590   4.619   4.394  16.963 -0.9174 -0.9790  0.2785
16725TIP3    H271591   4.593   4.298  17.076  1.5356 -1.0401  0.8512
16726TIP3   OH271592   3.805   6.520   1.584  0.2694 -0.3241  0.6966
16726TIP3    H171593   3.788   6.577   1.659 -0.6244  0.0539  0.2243
16726TIP3    H271594   3.897   6.537   1.562  0.1647  0.5535  0.8939
16727TIP3   OH271595   6.645   2.128  13.830  0.2706 -0.4280 -0.2418
16727TIP3    H171596   6.574   2.103  13.890  0.2272 -0.9440 -0.4999
16727TIP3    H271597   6.717   2.069  13.852  0.7673  0.3753  0.2987
16728TIP3   OH271598   1.807   1.569  10.892  0.1343 -0.4730  0.0142
16728TIP3    H171599   1.726   1.518  10.892  2.0242 -3.9141  2.5781
16728TIP3    H271600   1.875   1.505  10.914  3.4592  2.4321 -0.9215
16729TIP3   OH271601   2.442   2.851  13.668  0.0720 -0.0776 -0.5470
16729TIP3    H171602   2.350   2.826  13.660 -0.2600  1.4224 -1.8429
16729TIP3    H271603   2.444   2.907  13.746 -0.5634  1.5991 -1.6772
16730TIP3   OH271604   4.701   5.968  12.228  0.3285  0.5984 -0.0183
16730TIP3    H171605   4.689   5.875  12.215  1.3047  0.2287  1.4365
16730TIP3    H271606   4.771   5.992  12.167 -1.5737  0.9470 -2.1808
16731TIP3   OH271607   6.470   4.165  15.630 -0.4397 -0.3758 -0.4143
16731TIP3    H171608   6.493   4.094  15.570  0.5145 -0.1744 -0.2983
16731TIP3    H271609   6.479   4.245  15.578  0.9624 -0.1526  0.1325
16732TIP3   OH271610   4.460   0.355  16.457 -0.0481  0.0840 -0.7410
16732TIP3    H171611   4.484   0.266  16.482 -0.4003 -1.0057 -3.8691
16732TIP3    H271612   4.480   0.408  16.534  2.5670 -2.3038  0.4031
16733TIP3   OH271613   2.115   0.853  17.023  0.2197  0.0741 -0.3589
16733TIP3    H171614   2.048   0.828  16.960  1.4537  0.5568 -1.9215
16733TIP3    H271615   2.066   0.879  17.101 -1.2863 -2.1223 -0.5035
16734TIP3   OH271616   3.679   0.291   3.786  0.3207  0.4563 -0.2808
16734TIP3    H171617   3.706   0.240   3.710  1.4861 -0.0154  0.4296
16734TIP3    H271618   3.723   0.249   3.860 -3.3049 -1.2016  1.1876
16735TIP3   OH271619   5.960   4.799  12.320 -0.3293  0.1296 -0.1287
16735TIP3    H171620   5.956   4.802  12.225  0.0059  0.4307 -0.1359
16735TIP3    H271621   5.999   4.883  12.345  0.1262 -0.1864  0.2426
16736TIP3   OH271622   5.552   4.794  17.133 -0.2437 -0.4770 -0.2688
16736TIP3    H171623   5.557   4.701  17.154  2.0130 -0.6814 -1.4433
16736TIP3    H271624   5.643   4.824  17.132 -0.9324  1.8631  0.4772
16737TIP3   OH271625   3.081   3.016  16.633  0.0860  0.1667  0.1343
16737TIP3    H171626   3.048   3.050  16.550  2.2069  0.6287 -0.5817
16737TIP3    H271627   3.047   2.927  16.638 -2.9599  1.1978  0.5274
16738TIP3   OH271628   2.674   1.768   4.627  0.3366 -0.6003 -0.1852
16738TIP3    H171629   2.755   1.784   4.579 -0.3858  0.7774 -1.0046
16738TIP3    H271630   2.606   1.764   4.560 -0.7158  1.4847  0.6521
16739TIP3   OH271631   6.023   5.177  14.529 -0.2896  0.0494  0.4749
16739TIP3    H171632   6.036   5.186  14.435 -0.2524 -0.1724  0.4589
16739TIP3    H271633   6.033   5.266  14.563  3.1828 -0.3124  0.7341
16740TIP3   OH271634   0.573   0.139  12.576  0.1812 -0.1848  0.6145
16740TIP3    H171635   0.630   0.180  12.640 -0.6821  1.1079  0.5897
16740TIP3    H271636   0.484   0.160  12.607 -0.2528  0.8727 -1.2277
16741TIP3   OH271637   2.370   2.464  10.772  0.6026  0.1690  0.4560
16741TIP3    H171638   2.359   2.453  10.678  0.8272  0.8646  0.3418
16741TIP3    H271639   2.463   2.452  10.788  0.9001  1.9244  0.2954
16742TIP3   OH271640   1.257   0.502  12.239 -0.0592 -0.4086  0.3631
16742TIP3    H171641   1.344   0.519  12.203 -1.0866  1.2689 -1.5364
16742TIP3    H271642   1.267   0.518  12.333  1.8568 -1.1455  0.3302
16743TIP3   OH271643   2.141   3.435   5.129  0.3501 -0.2562 -0.3906
16743TIP3    H171644   2.163   3.448   5.221  1.4573  0.3370 -0.7153
16743TIP3    H271645   2.162   3.519   5.088 -0.3036 -0.4548 -1.1532
16744TIP3   OH271646   2.318   5.690  11.960 -0.0311 -0.1495 -0.0242
16744TIP3    H171647   2.408   5.677  11.987 -0.0659 -0.2646  0.0362
16744TIP3    H271648   2.324   5.725  11.871  0.1738  2.2990  0.8584
16745TIP3   OH271649   5.391   6.103   3.369 -0.3752  0.4079  0.0041
16745TIP3    H171650   5.487   6.107   3.378 -0.4497 -0.5754  1.6087
16745TIP3    H271651   5.378   6.038   3.299  0.1297 -0.8084  1.0044
16746TIP3   OH271652   5.086   1.642  16.598  0.2108  0.2571  0.3232
16746TIP3    H171653   5.130   1.676  16.677  1.6516  0.3066 -0.4753
16746TIP3    H271654   5.107   1.549  16.597  0.7607  0.3796 -0.3402
16747TIP3   OH271655   2.812   0.223  11.000 -0.2966 -0.3099  0.3684
16747TIP3    H171656   2.891   0.252  11.045 -0.4787 -0.5275  0.8334
16747TIP3    H271657   2.740   0.254  11.055 -0.6033  1.3664 -0.9138
16748TIP3   OH271658   3.405   3.090   5.230  0.0285 -0.1307 -0.3469
16748TIP3    H171659   3.334   3.144   5.265 -1.3462 -1.5314 -0.8581
16748TIP3    H271660   3.430   3.033   5.303  0.4602  0.1878 -0.2435
16749TIP3   OH271661   3.824   4.162  17.002 -0.3492 -0.1917 -0.5106
16749TIP3    H171662   3.780   4.138  17.084  0.3085  0.2558 -0.0178
16749TIP3    H271663   3.778   4.242  16.974 -0.9695 -0.6741 -0.9046
16750TIP3   OH271664   1.895   2.836   3.750  0.1782  0.6111  0.0101
16750TIP3    H171665   1.822   2.786   3.712  0.8317  0.6652 -1.3634
16750TIP3    H271666   1.935   2.881   3.676  0.7527  1.7156  0.9523
16751TIP3   OH271667   0.696   2.157  14.165  0.6657  0.2141  0.2393
16751TIP3    H171668   0.732   2.182  14.080  0.8188  0.7990  0.4759
16751TIP3    H271669   0.752   2.086  14.195  0.2795 -0.3769 -0.3933
16752TIP3   OH271670   2.040   0.889  12.735  0.0570  0.6702  0.4588
16752TIP3    H171671   2.127   0.900  12.775 -0.1325  2.3950  0.4724
16752TIP3    H271672   2.055   0.904  12.642 -0.2936  1.4316  0.5226
16753TIP3   OH271673   4.265   4.594   2.289  0.5670 -0.6531 -0.3700
16753TIP3    H171674   4.253   4.582   2.383 -0.5557 -0.1550 -0.4292
16753TIP3    H271675   4.217   4.521   2.250  1.6397 -1.2798 -0.5608
16754TIP3   OH271676   1.346   0.565  17.014 -0.0310 -0.1468  0.2883
16754TIP3    H171677   1.415   0.548  16.950 -0.5023  0.0648 -0.2853
16754TIP3    H271678   1.369   0.509  17.088 -0.9037 -2.4589 -1.0818
16755TIP3   OH271679   0.756   4.108   3.885  0.1610 -0.1483  0.6212
16755TIP3    H171680   0.758   4.047   3.810 -1.2390  1.2382 -0.6056
16755TIP3    H271681   0.783   4.054   3.959  0.9832 -1.7514 -0.7527
16756TIP3   OH271682   4.281   4.966   4.188  0.1330  0.3283 -0.3363
16756TIP3    H171683   4.231   5.033   4.234 -0.3691  0.2083 -0.6868
16756TIP3    H271684   4.242   4.964   4.100 -1.3450 -1.9212  0.2937
16757TIP3   OH271685   2.140   0.306  15.410 -0.3017 -0.3802 -0.0764
16757TIP3    H171686   2.158   0.335  15.500  0.8643 -2.6381  0.5067
16757TIP3    H271687   2.174   0.376  15.355 -0.9817  1.0305  1.2287
16758TIP3   OH271688   3.148   4.821  12.037 -0.0526 -0.3992  0.2574
16758TIP3    H171689   3.200   4.775  12.103 -0.1859 -0.5039  0.2905
16758TIP3    H271690   3.168   4.774  11.955 -0.6867 -0.9397  0.3994
16759TIP3   OH271691   0.418   3.454  11.808 -0.2388  0.3045 -0.2925
16759TIP3    H171692   0.479   3.380  11.811 -1.2264 -0.5083  0.5759
16759TIP3    H271693   0.417   3.488  11.897 -2.3115 -0.7973  0.1743
16760TIP3   OH271694   3.632   0.179   5.883 -0.3658 -0.1415 -0.2250
16760TIP3    H171695   3.591   0.124   5.950  0.5190 -1.1363 -0.4728
16760TIP3    H271696   3.595   0.148   5.801 -1.5945  1.2067 -0.2173
16761TIP3   OH271697   2.572   6.695   4.391 -0.4469 -0.2263 -0.1876
16761TIP3    H171698   2.551   6.700   4.297 -0.4805  0.5885 -0.1416
16761TIP3    H271699   2.570   6.601   4.410 -2.0925 -0.3245 -0.6431
16762TIP3   OH271700   1.449   0.669   4.221 -0.7989  0.5269 -0.0818
16762TIP3    H171701   1.422   0.585   4.186 -1.8522  0.3787  1.0023
16762TIP3    H271702   1.545   0.665   4.223 -0.8030 -0.2247 -1.0141
16763TIP3   OH271703   0.129   1.982  12.523 -0.5807 -0.8829 -0.2324
16763TIP3    H171704   0.036   1.990  12.542 -0.5461 -0.6429 -0.1596
16763TIP3    H271705   0.169   2.060  12.563 -0.2812 -1.2507  0.1926
16764TIP3   OH271706   0.664   2.709   5.394 -0.1738  0.3936  0.0979
16764TIP3    H171707   0.611   2.652   5.450  0.0679  0.2031  0.1344
16764TIP3    H271708   0.749   2.714   5.438 -1.0206  3.1153  1.6437
16765TIP3   OH271709   0.401   3.707  16.141 -0.4806  0.0577 -0.2334
16765TIP3    H171710   0.366   3.791  16.171 -0.4954  0.1571 -0.5212
16765TIP3    H271711   0.442   3.669  16.218  0.4010  0.7788 -0.3373
16766TIP3   OH271712   5.171   2.379  16.699 -0.1238 -0.6469  0.1788
16766TIP3    H171713   5.138   2.460  16.738  2.1647 -0.2227  1.4724
16766TIP3    H271714   5.102   2.314  16.714 -1.5785  0.8015  0.0048
16767TIP3   OH271715   1.041   2.210  15.088 -0.2290 -0.2817 -0.2787
16767TIP3    H171716   1.002   2.297  15.078  1.9087  0.5259 -2.5033
16767TIP3    H271717   1.133   2.227  15.105 -0.2072 -2.1562  1.8649
16768TIP3   OH271718   0.564   2.112  10.973 -0.3038  0.5335  0.0634
16768TIP3    H171719   0.606   2.090  10.890  0.0926  1.9799 -0.1447
16768TIP3    H271720   0.472   2.086  10.962  0.2766 -1.7884  0.1829
16769TIP3   OH271721   0.692   5.967   4.034 -0.3164  0.2243 -0.2440
16769TIP3    H171722   0.783   5.992   4.021 -0.5440  0.4420 -1.5118
16769TIP3    H271723   0.643   6.048   4.020 -0.7584 -0.0519 -0.3123
16770TIP3   OH271724   3.161   4.855   4.917  0.3933 -0.0273  0.1316
16770TIP3    H171725   3.222   4.799   4.964  1.9530  2.6257  1.5046
16770TIP3    H271726   3.217   4.915   4.867 -1.0662  1.6166  0.3601
16771TIP3   OH271727   6.349   0.379  13.956 -1.0589 -0.9223 -0.1798
16771TIP3    H171728   6.364   0.297  14.002  0.7756 -0.4406  0.1772
16771TIP3    H271729   6.382   0.364  13.868  0.6466 -0.1699  0.2936
16772TIP3   OH271730   1.528   1.493  13.719 -0.3819  0.0390  0.1776
16772TIP3    H171731   1.457   1.501  13.654 -0.5682  1.2386  0.5130
16772TIP3    H271732   1.565   1.581  13.725  0.0633 -0.2067  1.2176
16773TIP3   OH271733   2.504   2.892   6.930  0.3280  0.2185  0.1375
16773TIP3    H171734   2.532   2.975   6.890 -1.0802  0.8004  0.3158
16773TIP3    H271735   2.438   2.857   6.870  0.6052 -0.5747  0.2816
16774TIP3   OH271736   0.546   5.991  16.023  0.3747  0.0616 -0.5938
16774TIP3    H171737   0.537   5.897  16.008  1.0998  0.1917 -2.0022
16774TIP3    H271738   0.626   6.016  15.976  0.7313  1.2295  0.5311
16775TIP3   OH271739   0.795   5.791   4.349  0.0854  0.1163 -0.1749
16775TIP3    H171740   0.730   5.722   4.361 -1.0739  0.9604 -1.3187
16775TIP3    H271741   0.874   5.744   4.321  0.0201 -0.9254  1.2800
16776TIP3   OH271742   6.722   2.361   0.292  0.3063  0.4025  0.2252
16776TIP3    H171743   6.720   2.426   0.221 -1.4514 -0.0822 -0.2185
16776TIP3    H271744   6.688   2.409   0.368  0.1847  0.3452  0.2069
16777TIP3   OH271745   1.760   4.241   5.949  0.4800 -0.3177 -0.5577
16777TIP3    H171746   1.831   4.281   6.000 -0.7380 -0.9507  1.7568
16777TIP3    H271747   1.721   4.313   5.901 -0.9561  1.2255  2.6488
16778TIP3   OH271748   4.796   3.084   4.937 -0.1112  0.4281 -0.0460
16778TIP3    H171749   4.890   3.094   4.925  0.7886 -2.3222  3.2398
16778TIP3    H271750   4.773   3.006   4.886 -0.5151  0.7546 -0.3758
16779TIP3   OH271751   2.429   5.854  14.223  0.3249  0.0928  0.4625
16779TIP3    H171752   2.455   5.799  14.148 -0.8867  0.1619 -0.0232
16779TIP3    H271753   2.436   5.943  14.190  0.6246  0.1598  0.7080
16780TIP3   OH271754   3.637   6.548  12.674 -0.0769  0.2428 -0.0319
16780TIP3    H171755   3.609   6.479  12.614  0.8941  0.0809 -0.3095
16780TIP3    H271756   3.556   6.577  12.716 -0.5605 -0.7090 -0.2794
16781TIP3   OH271757   1.959   2.272   4.120 -0.2653  0.5727 -0.1295
16781TIP3    H171758   1.964   2.180   4.094  1.9777  0.4166  0.5959
16781TIP3    H271759   1.883   2.277   4.177 -0.7922 -0.6925 -0.6928
16782TIP3   OH271760   4.082   5.463  14.135  0.5203  0.4468  0.1664
16782TIP3    H171761   4.161   5.462  14.082 -0.7359  2.3251 -1.9058
16782TIP3    H271762   4.012   5.485  14.074 -1.4711 -0.1645  2.1059
16783TIP3   OH271763   0.816   5.329  15.924  0.0352 -0.0404 -0.2909
16783TIP3    H171764   0.912   5.331  15.919  0.1864 -0.7587  1.4247
16783TIP3    H271765   0.794   5.402  15.982 -0.3811 -0.3765 -0.0202
16784TIP3   OH271766   6.602   0.331   5.758 -0.0903  0.1660  0.4067
16784TIP3    H171767   6.604   0.426   5.747  0.3442  0.0220 -0.8366
16784TIP3    H271768   6.509   0.308   5.757 -0.1620  0.2546 -2.5048
16785TIP3   OH271769   4.391   4.870  14.974  0.5886 -0.6638  0.3728
16785TIP3    H171770   4.339   4.870  15.055 -0.2165 -1.1016 -0.1345
16785TIP3    H271771   4.475   4.831  15.000  0.8174  0.3828  1.2832
16786TIP3   OH271772   4.776   0.250   5.455 -0.3964  0.5883  0.3941
16786TIP3    H171773   4.865   0.216   5.440 -0.8215 -0.1188 -0.6318
16786TIP3    H271774   4.775   0.274   5.548  0.1108 -1.7735  1.0881
16787TIP3   OH271775   0.248   2.805  11.439 -0.3510 -0.7250  0.4266
16787TIP3    H171776   0.243   2.826  11.345 -2.6889 -0.7567  0.4937
16787TIP3    H271777   0.258   2.890  11.481 -0.4350 -0.6034  0.2063
16788TIP3   OH271778   1.579   4.396  14.886  0.2281  0.7604 -0.3469
16788TIP3    H171779   1.501   4.429  14.841 -0.1683 -0.0143 -0.2367
16788TIP3    H271780   1.640   4.471  14.886  0.2774  0.7740 -2.2320
16789TIP3   OH271781   6.375   1.933   4.834  0.0448  0.7077 -0.7262
16789TIP3    H171782   6.376   1.843   4.867 -1.8291  0.3244 -1.5649
16789TIP3    H271783   6.397   1.924   4.741 -1.6621  0.8808 -1.1795
16790TIP3   OH271784   5.191   1.596  13.393  0.0369  0.6350  0.0495
16790TIP3    H171785   5.256   1.660  13.421 -0.1174  0.8072  0.0179
16790TIP3    H271786   5.107   1.635  13.417 -0.3576  2.2363 -3.3779
16791TIP3   OH271787   5.354   1.989   4.834 -0.4641  0.0618 -0.1664
16791TIP3    H171788   5.375   2.054   4.768 -0.6571  0.7129  0.3988
16791TIP3    H271789   5.437   1.974   4.880 -0.6705  0.7784  0.4525
16792TIP3   OH271790   4.669   4.665   4.706 -0.2606  0.3261 -0.0925
16792TIP3    H171791   4.600   4.613   4.666 -0.3141  0.5670 -0.3203
16792TIP3    H271792   4.651   4.662   4.800  0.7651 -1.5593  0.0921
16793TIP3   OH271793   4.478   1.190  15.085  0.0895  0.0453  0.1089
16793TIP3    H171794   4.429   1.128  15.139 -0.3112 -2.2429 -2.6221
16793TIP3    H271795   4.415   1.216  15.017  0.9211  1.8163 -0.0341
16794TIP3   OH271796   3.003   2.805   3.910 -0.2155  0.1148  0.0712
16794TIP3    H171797   2.979   2.896   3.926  0.6514  0.4515 -0.5049
16794TIP3    H271798   3.025   2.770   3.997 -0.6735  0.4081  0.3098
16795TIP3   OH271799   4.922   4.237   2.675 -0.5819  0.6266  0.0238
16795TIP3    H171800   4.990   4.222   2.741 -0.5991  0.4248 -0.0023
16795TIP3    H271801   4.942   4.174   2.605  2.0596  3.7047 -2.2677
16796TIP3   OH271802   6.282   4.649  12.233 -0.0838  0.0321 -0.1412
16796TIP3    H171803   6.342   4.636  12.159 -0.3557 -0.0183 -0.3544
16796TIP3    H271804   6.266   4.743  12.236 -0.8264 -0.0639 -0.7496
16797TIP3   OH271805   0.502   1.900   0.429 -0.4441 -0.2432  0.4267
16797TIP3    H171806   0.581   1.932   0.387 -0.8767  1.0445  0.5429
16797TIP3    H271807   0.454   1.855   0.360  1.0070 -2.2864  0.6725
16798TIP3   OH271808   3.251   4.778   1.904 -0.5123  0.0500 -0.0952
16798TIP3    H171809   3.273   4.858   1.952 -0.4148  0.7980 -1.3245
16798TIP3    H271810   3.335   4.733   1.893 -0.4091  0.2667 -0.2186
16799TIP3   OH271811   5.332   0.448  12.345  0.0828  0.3799  0.1495
16799TIP3    H171812   5.240   0.474  12.346  0.2109  0.8381  0.5460
16799TIP3    H271813   5.369   0.495  12.270 -0.4887 -1.5863 -1.4387
16800TIP3   OH271814   6.722   6.286  16.564  0.1728 -0.7415 -0.3384
16800TIP3    H171815   6.799   6.294  16.620  0.9760 -0.5120 -1.4384
16800TIP3    H271816   6.655   6.337  16.608  0.5889 -1.0725  0.7200
16801TIP3   OH271817   2.968   5.590  12.516  0.4423 -0.0632  0.0922
16801TIP3    H171818   3.002   5.539  12.443 -1.5242  0.7166 -1.4535
16801TIP3    H271819   3.044   5.603  12.574  1.7460 -1.8139 -1.1209
16802TIP3   OH271820   6.699   3.947  13.022 -0.3721  0.2829  0.0710
16802TIP3    H171821   6.635   3.928  13.091  0.7728 -2.2121  0.5464
16802TIP3    H271822   6.660   3.910  12.943 -1.1566  2.1282 -0.4692
16803TIP3   OH271823   1.830   0.609   5.534  0.5652 -0.4707 -0.0916
16803TIP3    H171824   1.900   0.670   5.558  0.7992 -0.6337 -0.3442
16803TIP3    H271825   1.776   0.602   5.612 -0.4610  1.4068 -0.5678
16804TIP3   OH271826   2.627   0.811  10.856 -0.0688 -0.6622  0.1991
16804TIP3    H171827   2.557   0.873  10.877 -0.5917 -1.4152  0.7261
16804TIP3    H271828   2.704   0.866  10.843 -0.7507  0.1769 -0.3668
16805TIP3   OH271829   0.411   2.378   0.739 -0.1662  0.4527 -0.3620
16805TIP3    H171830   0.489   2.325   0.723  0.6566  1.6245 -0.4122
16805TIP3    H271831   0.344   2.339   0.685  1.2392  1.2764 -2.8793
16806TIP3   OH271832   1.818   1.393   2.766  0.5116  0.0006  0.0837
16806TIP3    H171833   1.871   1.468   2.795  1.4148 -0.6547  0.1647
16806TIP3    H271834   1.763   1.372   2.841  1.3285 -0.3552  0.5938
16807TIP3   OH271835   1.209   1.598   4.937 -0.5035 -0.1213  0.0837
16807TIP3    H171836   1.189   1.504   4.942 -0.9044 -0.0386  0.0212
16807TIP3    H271837   1.129   1.641   4.968 -0.3595  0.2032  0.0019
16808TIP3   OH271838   3.942   4.052   2.719  0.4838 -0.6662 -0.0363
16808TIP3    H171839   3.864   4.047   2.774  0.1088  0.1319 -0.4795
16808TIP3    H271840   3.910   4.084   2.635  1.0202 -2.0204 -0.7902
16809TIP3   OH271841   2.907   0.947   4.670  0.0473  0.0630 -0.0861
16809TIP3    H171842   2.873   0.891   4.740 -0.9908  0.5340 -0.1975
16809TIP3    H271843   2.969   1.005   4.713 -2.0660  1.7267  0.8944
16810TIP3   OH271844   5.214   0.438   3.445 -0.5580 -0.1668  0.0107
16810TIP3    H171845   5.298   0.475   3.418 -1.5745  0.4655 -2.6577
16810TIP3    H271846   5.154   0.513   3.446 -0.6834  0.0067  4.7841
16811TIP3   OH271847   5.941   4.047   4.161 -0.2194 -0.2737  0.4845
16811TIP3    H171848   5.850   4.065   4.186  0.1518  1.5111  0.6684
16811TIP3    H271849   5.947   4.077   4.070  0.1205 -0.6160  0.3939
16812TIP3   OH271850   1.411   6.712  11.740  0.1562 -0.1957 -0.3566
16812TIP3    H171851   1.348   6.755  11.683  1.1093  1.3681 -0.2919
16812TIP3    H271852   1.459   6.653  11.682  1.4535  1.7375 -1.3646
16813TIP3   OH271853   5.646   3.713  15.358 -1.0399 -0.2817 -0.3062
16813TIP3    H171854   5.645   3.753  15.272 -2.4942 -2.0362 -1.1844
16813TIP3    H271855   5.652   3.619  15.341 -0.4568 -0.6373  1.5491
16814TIP3   OH271856   6.066   5.733  12.673  0.0439 -0.0506  0.2877
16814TIP3    H171857   6.118   5.708  12.749  0.3623  0.3030  0.1924
16814TIP3    H271858   6.048   5.651  12.627 -2.7330 -0.7491  2.3207
16815TIP3   OH271859   4.297   1.005   4.130 -0.0123  0.2255  0.4159
16815TIP3    H171860   4.205   0.983   4.119 -0.6669  2.2249  1.4439
16815TIP3    H271861   4.331   1.009   4.041 -0.9958 -0.1934  0.0034
16816TIP3   OH271862   2.254   4.317  12.871 -0.3737  0.2055  0.1308
16816TIP3    H171863   2.329   4.262  12.896 -0.6915 -0.3757 -0.1653
16816TIP3    H271864   2.259   4.321  12.775 -0.0033  1.2080  0.1869
16817TIP3   OH271865   5.739   2.559   1.243  0.3254 -0.1208  0.4064
16817TIP3    H171866   5.734   2.576   1.149  1.2722 -1.8713  0.0006
16817TIP3    H271867   5.717   2.643   1.284  1.1490  1.0197 -1.3708
16818TIP3   OH271868   4.239   0.819  11.322 -0.2947  0.2707  0.2847
16818TIP3    H171869   4.179   0.891  11.339 -1.6965 -0.5250 -0.9858
16818TIP3    H271870   4.220   0.755  11.390 -0.8875  0.0467 -0.0795
16819TIP3   OH271871   1.483   2.394   6.072  0.1017  0.0154 -0.4298
16819TIP3    H171872   1.432   2.464   6.113  0.1341  0.5669 -1.3121
16819TIP3    H271873   1.418   2.336   6.034  0.0716 -0.4956  0.3812
16820TIP3   OH271874   0.706   6.072   2.554  0.0057 -0.3895  0.6180
16820TIP3    H171875   0.765   6.096   2.626  2.1172 -0.1834 -1.0726
16820TIP3    H271876   0.658   5.996   2.587  2.0624 -1.3052  1.7055
16821TIP3   OH271877   3.532   2.521   6.241  0.0768 -0.0954  0.2441
16821TIP3    H171878   3.518   2.428   6.255 -0.7659  0.3313  3.0158
16821TIP3    H271879   3.454   2.563   6.278 -0.6858  1.6940 -3.0355
16822TIP3   OH271880   3.702   3.555   3.538  0.3898 -0.1160 -0.0742
16822TIP3    H171881   3.690   3.470   3.581 -1.6845 -0.3639 -0.9949
16822TIP3    H271882   3.647   3.615   3.588  0.5983  0.3281 -0.3741
16823TIP3   OH271883   4.415   1.441   1.815  0.6151  0.0498  0.2943
16823TIP3    H171884   4.473   1.367   1.797  0.1854  0.0428 -1.1730
16823TIP3    H271885   4.332   1.418   1.774  0.2464  1.0260  0.4565
16824TIP3   OH271886   6.742   6.075   5.450  0.3620 -0.3836  0.7327
16824TIP3    H171887   6.836   6.093   5.453  0.3268 -0.2595  1.1482
16824TIP3    H271888   6.705   6.130   5.519 -0.0173 -0.4212  0.5600
16825TIP3   OH271889   3.089   0.371  10.488  0.0683  0.6634 -0.1691
16825TIP3    H171890   3.157   0.305  10.496 -0.5618 -0.1847 -1.3537
16825TIP3    H271891   3.112   0.439  10.551  0.7554 -0.6675  1.0434
16826TIP3   OH271892   3.843   2.201   2.366  0.3706  0.3814  0.1620
16826TIP3    H171893   3.789   2.129   2.334  0.3224  0.7397 -0.5894
16826TIP3    H271894   3.782   2.259   2.411  0.4554 -0.1783  1.0109
16827TIP3   OH271895   1.699   3.911   1.168 -0.2761 -0.4640 -0.0273
16827TIP3    H171896   1.654   3.862   1.237  0.1499 -0.8683 -0.0307
16827TIP3    H271897   1.754   3.846   1.124  2.1663  0.4231  1.4912
16828TIP3   OH271898   0.196   4.028  15.186 -0.2405 -0.2428 -0.5531
16828TIP3    H171899   0.177   4.064  15.273 -0.2113 -2.9985  0.6843
16828TIP3    H271900   0.118   3.978  15.163  0.4570 -1.0131 -1.2971
16829TIP3   OH271901   2.079   1.197   1.064  0.2107 -0.5738  0.2265
16829TIP3    H171902   2.144   1.242   1.010 -0.1006  1.1001  1.1745
16829TIP3    H271903   2.129   1.130   1.110  1.2476  0.5301  0.7621
16830TIP3   OH271904   6.359   2.110  13.501 -0.0109 -0.0664  0.1096
16830TIP3    H171905   6.447   2.078  13.519  0.9504  1.8298 -0.8570
16830TIP3    H271906   6.342   2.175  13.570 -0.6023 -0.3335  0.2223
16831TIP3   OH271907   1.718   4.244  15.062  0.1204  0.1830  0.5029
16831TIP3    H171908   1.665   4.303  15.008 -2.9735 -1.8272  1.0478
16831TIP3    H271909   1.713   4.160  15.017  1.2625 -0.5040  1.6110
16832TIP3   OH271910   5.298   3.737  12.470  0.0031 -0.5272  0.1852
16832TIP3    H171911   5.210   3.769  12.450  0.1559 -1.2416 -1.9546
16832TIP3    H271912   5.286   3.646  12.496 -0.1086  0.1789  2.8724
16833TIP3   OH271913   3.856   3.696  15.745 -0.2104  0.0862  0.7198
16833TIP3    H171914   3.863   3.652  15.830  1.0940 -0.3429  0.4099
16833TIP3    H271915   3.924   3.657  15.692  0.4640  1.9111  0.1658
16834TIP3   OH271916   6.608   6.675   1.357  0.1241 -0.0348  0.1392
16834TIP3    H171917   6.512   6.673   1.351  0.1523  0.4468 -0.6396
16834TIP3    H271918   6.637   6.606   1.298  0.2952  1.6008 -1.8247
16835TIP3   OH271919   3.695   3.453  16.563  0.0338  0.1084 -0.0253
16835TIP3    H171920   3.694   3.432  16.657  2.1536 -0.9149 -0.1765
16835TIP3    H271921   3.684   3.548  16.560 -3.0246 -0.0938  1.0405
16836TIP3   OH271922   0.434   6.379  16.605 -0.1417  0.1404 -0.0551
16836TIP3    H171923   0.462   6.289  16.620  0.7037  0.2878 -0.7191
16836TIP3    H271924   0.504   6.433  16.641 -0.4072  0.5351 -0.1188
16837TIP3   OH271925   2.697   4.898  11.367  0.1473  0.6574 -0.7230
16837TIP3    H171926   2.670   4.866  11.453  0.2874  0.6182 -0.6938
16837TIP3    H271927   2.615   4.909  11.319  0.1662 -2.7936 -1.8414
16838TIP3   OH271928   4.505   5.548  17.023  0.2460  0.4433  0.4162
16838TIP3    H171929   4.580   5.490  17.008 -0.8260 -0.9117  0.1393
16838TIP3    H271930   4.462   5.553  16.938  0.7132  2.2573  0.2524
16839TIP3   OH271931   2.458   5.663   3.389 -0.3027  0.1021 -0.4160
16839TIP3    H171932   2.491   5.728   3.451 -0.2305 -1.4151  1.2150
16839TIP3    H271933   2.363   5.665   3.400 -0.4573  1.1829 -1.7109
16840TIP3   OH271934   5.443   4.587   5.620  0.0641 -0.4981  0.6549
16840TIP3    H171935   5.452   4.524   5.692  3.0810  0.4169  1.2202
16840TIP3    H271936   5.513   4.563   5.559 -0.7623  0.3908 -0.6819
16841TIP3   OH271937   4.078   2.593  13.110  0.0593  0.0882 -0.4632
16841TIP3    H171938   4.142   2.643  13.159 -1.1464  1.3504 -0.1120
16841TIP3    H271939   4.123   2.567  13.030  1.3918 -0.1776  0.3534
16842TIP3   OH271940   3.504   1.714  16.808  0.0072  0.0722 -0.3019
16842TIP3    H171941   3.562   1.690  16.879  1.0699 -1.2658 -1.5606
16842TIP3    H271942   3.547   1.789  16.766 -0.5591  0.7855  0.3765
16843TIP3   OH271943   4.063   6.615   1.044 -0.0269 -0.2008 -0.8182
16843TIP3    H171944   4.108   6.531   1.054  0.9847  0.4818  0.6851
16843TIP3    H271945   4.102   6.654   0.967  1.7291  0.1875  0.2090
16844TIP3   OH271946   5.670   4.621  16.200 -0.3544 -0.1947 -0.3289
16844TIP3    H171947   5.681   4.660  16.286  0.1182 -1.7822  0.3616
16844TIP3    H271948   5.734   4.550  16.197 -1.0080 -0.7651 -1.6330
16845TIP3   OH271949   5.446   1.394  17.319  0.0489 -0.1802 -0.0786
16845TIP3    H171950   5.433   1.428  17.230 -2.4185  2.3428  1.0875
16845TIP3    H271951   5.537   1.416  17.339  0.4383 -0.1519 -1.6901
16846TIP3   OH271952   5.620   3.526  12.854  0.5386  0.0068 -0.3501
16846TIP3    H171953   5.622   3.450  12.796  0.9842  0.4831 -0.9734
16846TIP3    H271954   5.573   3.496  12.932  0.9121 -0.9671 -0.4956
16847TIP3   OH271955   1.964   4.618   3.832 -0.4076  0.9321 -0.4590
16847TIP3    H171956   1.960   4.522   3.832 -0.0139  0.8757  1.4368
16847TIP3    H271957   2.011   4.640   3.752 -0.4051 -0.4713 -0.8644
16848TIP3   OH271958   0.743   3.618   4.834 -0.0114 -0.4950  0.4851
16848TIP3    H171959   0.716   3.626   4.743  0.5248 -0.5033  0.3219
16848TIP3    H271960   0.662   3.602   4.882 -0.2928 -0.5122  0.0081
16849TIP3   OH271961   4.993   6.279  14.005  0.3682 -0.0325 -0.7604
16849TIP3    H171962   4.958   6.364  14.033  2.0516  0.5550 -0.3422
16849TIP3    H271963   4.996   6.285  13.909 -0.2159  0.0831 -0.7750
16850TIP3   OH271964   2.390   3.145   4.945 -0.2038 -0.4045 -0.5297
16850TIP3    H171965   2.385   3.055   4.977  0.0829 -0.1080  0.3835
16850TIP3    H271966   2.301   3.179   4.957 -0.1730 -0.3912 -0.3361
16851TIP3   OH271967   4.062   2.048  17.279  0.2504 -0.1721  0.1002
16851TIP3    H171968   4.013   1.967  17.289 -0.7840  0.3979 -0.1443
16851TIP3    H271969   4.127   2.046  17.349  0.8585 -1.6191 -0.4605
16852TIP3   OH271970   0.117   2.940   1.504  0.2762 -0.1949  0.4234
16852TIP3    H171971   0.151   2.882   1.572  1.0916  0.2315  0.3944
16852TIP3    H271972   0.157   2.908   1.423  2.6396  1.7861  0.7025
16853TIP3   OH271973   3.253   2.410   2.792 -0.3170 -0.7303 -0.6693
16853TIP3    H171974   3.190   2.357   2.840 -1.7607 -1.1685 -2.8885
16853TIP3    H271975   3.206   2.490   2.771  1.0073  0.3892  0.4352
16854TIP3   OH271976   4.409   2.952   3.883 -0.4734 -0.0975  0.3638
16854TIP3    H171977   4.337   2.926   3.940 -0.6164  0.0975  0.2749
16854TIP3    H271978   4.367   3.001   3.813 -0.6464 -2.4524 -1.3065
16855TIP3   OH271979   6.105   6.034   2.582  0.1443 -0.0105  0.5332
16855TIP3    H171980   6.054   5.998   2.509 -0.0482 -0.8033  1.0487
16855TIP3    H271981   6.143   5.958   2.626 -0.7133  0.3576  1.9796
16856TIP3   OH271982   3.122   2.544  11.374  0.0852 -0.8064 -0.8742
16856TIP3    H171983   3.159   2.521  11.289 -1.1234 -2.2696 -1.0433
16856TIP3    H271984   3.042   2.592  11.353 -0.4864 -1.6144 -0.5818
16857TIP3   OH271985   0.135   3.260   2.496 -0.5273  0.0911 -0.4161
16857TIP3    H171986   0.174   3.217   2.420 -0.0546 -0.3556  0.0735
16857TIP3    H271987   0.205   3.262   2.561 -0.9347  0.4476  0.0194
16858TIP3   OH271988   0.946   4.941   5.107  0.6434  0.3301  0.3276
16858TIP3    H171989   0.886   4.993   5.053  0.0257 -1.1426 -0.4593
16858TIP3    H271990   0.890   4.873   5.146  1.7142 -0.8364 -0.1055
16859TIP3   OH271991   5.944   1.405  11.389  0.3626 -0.8324  0.2632
16859TIP3    H171992   5.979   1.494  11.391  3.0915 -1.7424  3.1070
16859TIP3    H271993   5.854   1.413  11.419  0.5804  0.9698  0.5417
16860TIP3   OH271994   2.614   3.478  11.748  0.1080 -0.2273  0.4309
16860TIP3    H171995   2.539   3.472  11.807  0.1699  2.4462  0.9487
16860TIP3    H271996   2.684   3.513  11.803  1.3282 -1.3010 -0.3897
16861TIP3   OH271997   6.135   4.003  13.497  0.3599  0.1087  0.6023
16861TIP3    H171998   6.069   3.942  13.528  0.9349 -0.3697  0.9053
16861TIP3    H271999   6.213   3.983  13.549  1.5304 -1.1223 -1.4986
16862TIP3   OH272000   1.247   4.708   0.650  0.0303 -0.0384 -0.4973
16862TIP3    H172001   1.209   4.773   0.708 -0.3120 -0.6502 -0.0244
16862TIP3    H272002   1.272   4.635   0.707 -0.8441 -0.8963 -1.1593
16863TIP3   OH272003   4.766   3.290   3.245  0.0050 -0.2020 -0.1062
16863TIP3    H172004   4.702   3.360   3.259 -0.7240 -0.5166 -1.6906
16863TIP3    H272005   4.769   3.243   3.329 -0.0203  1.2628  0.7624
16864TIP3   OH272006   3.785   5.682   3.629  0.3702  0.4374  0.1077
16864TIP3    H172007   3.825   5.753   3.579 -0.7608 -0.1330 -1.6789
16864TIP3    H272008   3.759   5.618   3.564 -0.6869 -0.6061  1.4873
16865TIP3   OH272009   5.245   2.030  13.019 -0.1312  0.6074  0.4759
16865TIP3    H172010   5.176   2.003  12.959  0.6934  1.8611 -1.1465
16865TIP3    H272011   5.199   2.071  13.092 -1.1386 -0.0866  0.2525
16866TIP3   OH272012   5.092   1.658   1.730 -0.2322 -0.4749  0.3733
16866TIP3    H172013   5.074   1.565   1.744  0.8001 -0.6540  0.5506
16866TIP3    H272014   5.039   1.680   1.653  0.1294 -1.4169 -0.1705
16867TIP3   OH272015   3.909   5.526   1.794  0.3695  0.0610 -0.0276
16867TIP3    H172016   3.844   5.523   1.864 -1.1186  0.7730 -1.3395
16867TIP3    H272017   3.992   5.539   1.840 -0.4476 -0.3953  1.6541
16868TIP3   OH272018   5.736   1.283  16.536 -0.1629  0.1372  0.6924
16868TIP3    H172019   5.677   1.224  16.489  1.3157 -1.2563  0.4709
16868TIP3    H272020   5.786   1.327  16.466 -2.4368  3.0969  0.7611
16869TIP3   OH272021   1.355   4.969  14.797 -0.0887 -0.1584 -0.2755
16869TIP3    H172022   1.381   5.032  14.864  1.5967 -0.3827 -0.6667
16869TIP3    H272023   1.399   5.000  14.717  1.4916 -2.2512 -0.2935
16870TIP3   OH272024   2.848   2.939  14.623  0.1762 -0.2266  0.1349
16870TIP3    H172025   2.766   2.950  14.574  0.8156  0.2640 -0.8434
16870TIP3    H272026   2.916   2.965  14.562  0.9917  0.5798  1.3515
16871TIP3   OH272027   6.268   1.389  14.292 -0.3714 -0.1938  0.1138
16871TIP3    H172028   6.176   1.400  14.319  0.1375  0.2322  1.7887
16871TIP3    H272029   6.294   1.304  14.327 -0.7431 -1.4153 -2.3522
16872TIP3   OH272030   3.444   1.014  15.722 -0.1389 -0.8252  0.2064
16872TIP3    H172031   3.404   0.979  15.642  0.0199  2.7903 -1.6614
16872TIP3    H272032   3.526   0.966  15.730 -0.8002 -2.2615 -0.9754
16873TIP3   OH272033   0.646   6.495   0.221  0.6014 -0.6649 -0.0749
16873TIP3    H172034   0.615   6.415   0.262 -1.0302 -0.1066 -0.1488
16873TIP3    H272035   0.641   6.561   0.290 -3.0524  0.4974 -1.2197
16874TIP3   OH272036   5.631   3.159  15.351 -0.0156  0.6594 -0.5537
16874TIP3    H172037   5.540   3.141  15.327  0.5797 -1.6307 -1.3284
16874TIP3    H272038   5.682   3.127  15.277  1.4384  3.1127 -0.7435
16875TIP3   OH272039   2.474   6.136   0.042 -0.1214  0.7381 -0.0817
16875TIP3    H172040   2.406   6.202   0.025  0.9105  1.8871  0.1301
16875TIP3    H272041   2.433   6.075   0.103 -0.2318  2.7472  1.9813
16876TIP3   OH272042   0.276   2.741   1.614 -0.2030 -0.1854 -0.2393
16876TIP3    H172043   0.300   2.697   1.533 -2.1513  1.3433 -1.7380
16876TIP3    H272044   0.336   2.816   1.619  0.7854 -0.9856  0.4859
16877TIP3   OH272045   0.016   4.429   6.565 -0.3792 -0.1290  0.5319
16877TIP3    H172046  -0.072   4.430   6.526 -0.2853 -0.3049  0.3130
16877TIP3    H272047   0.075   4.425   6.490 -0.0464  2.9915  0.5180
16878TIP3   OH272048   5.525   1.167  17.114 -0.0413 -0.4656 -0.3701
16878TIP3    H172049   5.488   1.254  17.130 -0.8098 -1.0714  1.5279
16878TIP3    H272050   5.618   1.183  17.096 -0.2865  0.7804 -0.5958
16879TIP3   OH272051   4.072   6.730  12.458 -0.6506 -0.0153  0.4374
16879TIP3    H172052   4.073   6.646  12.411 -2.3542  0.5807 -0.7868
16879TIP3    H272053   4.022   6.712  12.538 -0.5093 -0.3000  0.4648
16880TIP3   OH272054   3.772   3.740   4.438  0.0428  0.3375  0.3238
16880TIP3    H172055   3.692   3.794   4.437  0.5398  1.1409  1.5444
16880TIP3    H272056   3.782   3.712   4.347 -1.7949 -0.0496  0.1896
16881TIP3   OH272057   5.032   5.884   0.093 -0.4480 -0.0539  0.2155
16881TIP3    H172058   4.984   5.819   0.043 -1.7773  0.5402  0.6849
16881TIP3    H272059   5.019   5.858   0.184  1.7808 -1.0111  0.3308
16882TIP3   OH272060   5.987   4.197   2.172  0.2062  0.3146 -0.0779
16882TIP3    H172061   5.965   4.155   2.089  3.5191 -0.6095 -0.6472
16882TIP3    H272062   6.053   4.263   2.149  0.6950  0.5292  1.7273
16883TIP3   OH272063   5.363   1.394   5.416  0.1807 -0.0073  0.2074
16883TIP3    H172064   5.294   1.452   5.382 -0.4135 -0.4910  0.5634
16883TIP3    H272065   5.416   1.450   5.472 -0.7356  0.0784  1.0146
16884TIP3   OH272066   2.817   0.368  10.526  0.2543 -0.0667  0.2032
16884TIP3    H172067   2.912   0.361  10.519  0.2004  0.3499 -1.2522
16884TIP3    H272068   2.783   0.305  10.462 -0.4652 -0.5426  1.0371
16885TIP3   OH272069   3.007   5.785   2.038  0.2490 -0.5993 -0.7282
16885TIP3    H172070   3.077   5.843   2.067 -0.4551 -0.4557  0.8262
16885TIP3    H272071   2.996   5.723   2.111 -2.6591  0.7106  0.0964
16886TIP3   OH272072   6.164   1.292  16.161 -0.2606  0.1464 -0.2242
16886TIP3    H172073   6.153   1.353  16.088  1.2500  0.0205 -0.5999
16886TIP3    H272074   6.253   1.309  16.193 -0.8243  0.0757  1.4878
16887TIP3   OH272075   3.642   2.795  16.849 -0.0622  0.0234 -0.1687
16887TIP3    H172076   3.631   2.867  16.787  0.2375  0.2085 -0.0088
16887TIP3    H272077   3.558   2.791  16.896  0.3615  1.1192  0.7237
16888TIP3   OH272078   1.584   2.746   5.921 -0.0620 -0.0698 -0.2523
16888TIP3    H172079   1.565   2.737   6.014 -0.5393  0.8284 -0.2471
16888TIP3    H272080   1.504   2.715   5.878 -0.7450  1.6017 -0.2855
16889TIP3   OH272081   2.826   5.831  11.791  0.3880 -0.0982 -0.0000
16889TIP3    H172082   2.869   5.814  11.874  0.0997 -1.2145 -0.0578
16889TIP3    H272083   2.793   5.920  11.798  0.9743  0.0672  0.8012
16890TIP3   OH272084   4.658   4.479   3.472  0.2096  0.3953 -0.0718
16890TIP3    H172085   4.724   4.502   3.407 -0.0528 -0.1124 -0.5200
16890TIP3    H272086   4.594   4.550   3.467 -0.8889 -0.6697 -1.8471
16891TIP3   OH272087   1.347   2.644  12.039  0.0834  0.6541  0.1217
16891TIP3    H172088   1.288   2.573  12.012  1.0261  0.1352 -0.6207
16891TIP3    H272089   1.398   2.664  11.961  1.1056  0.8870  0.8275
16892TIP3   OH272090   2.557   1.232   3.060 -0.5416 -0.1101 -0.4801
16892TIP3    H172091   2.501   1.285   3.003 -0.4387 -0.7863 -1.2222
16892TIP3    H272092   2.646   1.255   3.034 -0.4127  1.2663  0.9727
16893TIP3   OH272093   3.827   5.175  16.811 -0.2784  0.5478 -0.2335
16893TIP3    H172094   3.774   5.174  16.890  1.6058  0.4168  1.0942
16893TIP3    H272095   3.770   5.139  16.743 -2.3388  1.7671  0.7644
16894TIP3   OH272096   5.547   1.348  12.486  0.1485 -0.3941  0.7253
16894TIP3    H172097   5.612   1.278  12.477 -0.1148 -0.8811  2.3056
16894TIP3    H272098   5.527   1.374  12.396  1.7710 -0.9344  0.1712
16895TIP3   OH272099   5.936   2.680   2.357  0.6740 -0.1523  0.0501
16895TIP3    H172100   5.922   2.636   2.273  0.8382  0.3695 -0.2520
16895TIP3    H272101   5.966   2.610   2.416  1.7381 -0.3071 -0.6367
16896TIP3   OH272102   2.078   4.744   1.150 -0.0700 -0.2893 -0.2627
16896TIP3    H172103   1.997   4.791   1.132 -0.1809 -0.5623 -0.4665
16896TIP3    H272104   2.050   4.660   1.185  0.1310 -0.1766  0.1808
16897TIP3   OH272105   1.308   3.663   2.555 -0.0644 -0.4625 -0.5808
16897TIP3    H172106   1.313   3.603   2.480  0.8840  0.5864 -1.4081
16897TIP3    H272107   1.391   3.711   2.552 -1.4532  2.1207 -1.0431
16898TIP3   OH272108   5.762   1.304   1.694 -0.3012  0.1048  0.5895
16898TIP3    H172109   5.828   1.309   1.763  1.5840  1.1248 -1.1779
16898TIP3    H272110   5.702   1.376   1.713  1.1881  1.4817  0.2552
16899TIP3   OH272111   2.570   3.641   2.888 -0.6766  0.2152  0.1272
16899TIP3    H172112   2.513   3.587   2.944  0.8168 -0.0277  1.4824
16899TIP3    H272113   2.528   3.727   2.888 -0.5977  0.2795  1.8265
16900TIP3   OH272114   4.106   2.453   0.466  0.3929  0.1951 -0.2758
16900TIP3    H172115   4.063   2.407   0.394  1.0545 -1.5674  0.4183
16900TIP3    H272116   4.033   2.487   0.519 -0.0986  1.5836 -1.7574
16901TIP3   OH272117   0.647   2.870   2.653 -0.0275  0.5861 -0.3069
16901TIP3    H172118   0.602   2.851   2.571 -1.2758 -1.4867  0.7824
16901TIP3    H272119   0.621   2.960   2.674 -0.7802  0.6688 -1.5053
16902TIP3   OH272120   6.640   3.529  16.185  0.3141 -0.2236  0.0597
16902TIP3    H172121   6.721   3.540  16.234 -0.4877 -1.9128  1.9036
16902TIP3    H272122   6.617   3.437  16.196 -1.2877 -0.0516 -1.3637
16903TIP3   OH272123   5.541   5.018   0.207  0.1641  0.3748  0.6570
16903TIP3    H172124   5.619   5.014   0.151 -2.3270 -0.5810 -3.1619
16903TIP3    H272125   5.510   5.108   0.197  1.1474  1.0503  2.9644
16904TIP3   OH272126   3.106   5.172   5.060  0.1147  0.4300  0.5792
16904TIP3    H172127   3.181   5.145   5.007 -0.5053  0.3239 -0.2898
16904TIP3    H272128   3.042   5.101   5.048  0.2853 -0.0217  2.2055
16905TIP3   OH272129   3.662   1.846   4.681 -0.2323  0.1577  0.3321
16905TIP3    H172130   3.693   1.934   4.663 -1.8306  0.7295  0.1877
16905TIP3    H272131   3.658   1.840   4.776  0.2287  0.1074  0.3488
16906TIP3   OH272132   0.295   6.595   0.571  0.5163  0.3743 -0.0096
16906TIP3    H172133   0.201   6.606   0.581  0.2447 -0.7353 -1.1224
16906TIP3    H272134   0.326   6.682   0.544 -0.3913  0.4418 -0.9233
16907TIP3   OH272135   2.436   4.283  16.640 -0.3120 -0.1643  0.5653
16907TIP3    H172136   2.356   4.241  16.609 -0.6758  0.0033  1.2534
16907TIP3    H272137   2.507   4.230  16.603 -0.7543 -1.1793  1.1263
16908TIP3   OH272138   0.886   0.232  11.528 -0.1988 -0.0216 -0.2003
16908TIP3    H172139   0.912   0.140  11.514 -0.1359  0.1595 -1.4276
16908TIP3    H272140   0.800   0.238  11.487 -2.2872 -0.5711  3.6721
16909TIP3   OH272141   4.836   2.495   4.508 -0.3161 -0.3625  0.6730
16909TIP3    H172142   4.919   2.537   4.485 -0.4470 -0.6952 -0.4688
16909TIP3    H272143   4.774   2.527   4.444 -1.1549  0.0894  1.6861
16910TIP3   OH272144   2.825   4.262   1.076 -0.1387  0.0138 -0.5039
16910TIP3    H172145   2.782   4.203   1.015 -0.5860 -1.1659  0.9028
16910TIP3    H272146   2.910   4.221   1.095 -1.0024 -0.9747  1.5261
16911TIP3   OH272147   3.306   4.367   0.049  0.0980  0.3315 -0.6599
16911TIP3    H172148   3.298   4.313   0.128  0.4796 -1.0818 -1.5484
16911TIP3    H272149   3.362   4.316  -0.009 -0.6124  1.0934 -2.0631
16912TIP3   OH272150   5.748   3.827   1.727  0.1286  0.2051 -0.3087
16912TIP3    H172151   5.792   3.796   1.648  0.3598  0.9043 -0.4648
16912TIP3    H272152   5.745   3.922   1.717  0.5942  0.3418  0.7579
16913TIP3   OH272153   6.241   3.743  15.070 -0.2753  0.0785 -0.0858
16913TIP3    H172154   6.214   3.754  15.161 -0.0292 -1.6161  0.2109
16913TIP3    H272155   6.291   3.823  15.050 -1.2049  0.9415  0.9106
16914TIP3   OH272156   6.158   3.430   5.414 -0.0840  0.4715 -0.1352
16914TIP3    H172157   6.104   3.381   5.477 -1.0680  0.2948 -1.0911
16914TIP3    H272158   6.227   3.368   5.389  0.4953  0.6415  0.9704
16915TIP3   OH272159   3.179   4.787   1.072  0.4333  0.4279  0.0787
16915TIP3    H172160   3.192   4.832   1.156  1.3473  1.1141 -0.4196
16915TIP3    H272161   3.084   4.790   1.058  0.3923  1.4307  0.4852
16916TIP3   OH272162   0.722   2.122  11.725 -0.3057 -0.4610  0.1937
16916TIP3    H172163   0.635   2.146  11.756  0.3585  1.9366  0.3646
16916TIP3    H272164   0.732   2.169  11.642  0.9944 -0.3284  0.4069
16917TIP3   OH272165   2.553   5.633  16.481 -0.3641  0.2444  0.4523
16917TIP3    H172166   2.579   5.556  16.530 -0.8153 -0.8861 -0.9933
16917TIP3    H272167   2.466   5.611  16.446 -0.3840  1.2879 -0.2187
16918TIP3   OH272168   6.180   1.551   2.638  0.1451 -0.3233  0.5705
16918TIP3    H172169   6.241   1.478   2.627 -1.9659 -2.0684 -0.4084
16918TIP3    H272170   6.146   1.541   2.727  0.1407 -0.2883  0.5731
16919TIP3   OH272171   1.315   6.598   3.912  0.0004 -0.1530 -0.2501
16919TIP3    H172172   1.393   6.584   3.967  0.4735  0.0250 -0.8654
16919TIP3    H272173   1.281   6.510   3.895  0.8799 -0.3429 -1.1259
16920TIP3   OH272174   0.193   3.841   3.265 -0.0288  0.5130  0.4094
16920TIP3    H172175   0.127   3.907   3.285 -2.0472 -0.2467 -2.9633
16920TIP3    H272176   0.247   3.882   3.197 -0.4023 -0.7122 -0.6744
16921TIP3   OH272177   0.800   0.460  11.630  1.0238  0.5987 -0.1484
16921TIP3    H172178   0.707   0.435  11.628  1.6958 -2.4076  0.6610
16921TIP3    H272179   0.846   0.380  11.605  3.4154  2.4479 -2.2190
16922TIP3   OH272180   2.386   0.513  12.239  0.2868  0.0440 -0.0938
16922TIP3    H172181   2.355   0.501  12.328 -2.4258  0.5092 -0.8876
16922TIP3    H272182   2.456   0.448  12.229 -1.4243 -2.1808  1.4300
16923TIP3   OH272183   1.242   1.501  16.371 -0.1698 -0.5341  0.1103
16923TIP3    H172184   1.197   1.422  16.401  0.9966 -1.7106 -1.1038
16923TIP3    H272185   1.239   1.496  16.276  1.1939  0.1244  0.0098
16924TIP3   OH272186   4.168   4.367  12.302  0.0616 -0.0121  0.3642
16924TIP3    H172187   4.156   4.462  12.300 -0.2612 -0.0233  1.2177
16924TIP3    H272188   4.134   4.337  12.217  0.8161  0.6891 -0.2031
16925TIP3   OH272189   0.029   4.756   3.672 -0.4020 -0.4532 -0.1956
16925TIP3    H172190   0.032   4.819   3.600  1.6158 -1.7445 -1.3266
16925TIP3    H272191   0.025   4.671   3.628 -1.4936 -1.1946  1.2827
16926TIP3   OH272192   0.481   2.557  13.966 -0.7875  0.0490 -0.0651
16926TIP3    H172193   0.437   2.476  13.992 -0.2500  0.6763  3.1760
16926TIP3    H272194   0.574   2.536  13.972 -0.5980  0.2332 -1.7881
16927TIP3   OH272195   4.587   1.186   0.636  0.2049  0.6295 -0.4044
16927TIP3    H172196   4.536   1.172   0.557  0.3455  0.1551 -0.4163
16927TIP3    H272197   4.660   1.124   0.628  0.4809  0.9201 -0.1354
16928TIP3   OH272198   3.333   5.829  14.119  0.0768 -0.1895 -0.2150
16928TIP3    H172199   3.367   5.884  14.048 -0.0583  0.5885  0.3029
16928TIP3    H272200   3.248   5.869  14.141 -0.8250 -1.6197 -0.9477
16929TIP3   OH272201   1.455   0.728  11.287 -0.1845  0.0432 -0.1300
16929TIP3    H172202   1.512   0.798  11.255 -0.1770 -0.1980 -0.6653
16929TIP3    H272203   1.419   0.761  11.369 -1.0575  1.1354 -0.9340
16930TIP3   OH272204   1.883   6.662   5.582 -0.1454 -0.2098  0.2058
16930TIP3    H172205   1.857   6.747   5.616  0.3291  0.9796 -2.2105
16930TIP3    H272206   1.971   6.675   5.548 -1.0275 -0.9100 -2.5703
16931TIP3   OH272207   4.324   0.155   0.059  0.3986  0.1485  0.0339
16931TIP3    H172208   4.340   0.074   0.107 -0.8037 -0.6339 -0.8424
16931TIP3    H272209   4.296   0.127  -0.028 -2.5620  1.4256  0.4672
16932TIP3   OH272210   2.954   5.522  13.876 -0.0407  0.4506  0.0537
16932TIP3    H172211   3.032   5.525  13.933  0.7228  2.0625 -0.9992
16932TIP3    H272212   2.939   5.429  13.861  2.6232  0.1006 -0.9325
16933TIP3   OH272213   4.585   2.243  11.193  0.0393 -0.4847  0.0889
16933TIP3    H172214   4.643   2.186  11.143 -1.5142 -1.6114 -0.5422
16933TIP3    H272215   4.536   2.292  11.127 -0.0221  0.1395  0.5889
16934TIP3   OH272216   1.915   2.208  13.332 -0.2959  0.2558  0.3235
16934TIP3    H172217   1.911   2.302  13.348 -0.5554  1.2080 -3.9586
16934TIP3    H272218   1.831   2.187  13.291  0.0964 -1.6536  0.3982
16935TIP3   OH272219   4.330   1.900   6.179 -0.1064  0.2957 -0.0675
16935TIP3    H172220   4.239   1.930   6.185  0.1541  1.1190  0.0164
16935TIP3    H272221   4.380   1.969   6.224  0.3750 -1.0842  1.6150
16936TIP3   OH272222   3.471   0.478   2.558  0.0483  0.1846  0.3647
16936TIP3    H172223   3.563   0.485   2.580  0.1053  0.4985  0.0389
16936TIP3    H272224   3.435   0.416   2.622  0.7458 -0.9392 -0.2869
16937TIP3   OH272225   2.011   6.159   1.817 -0.0449 -0.0433 -0.5076
16937TIP3    H172226   2.104   6.179   1.817  0.1309 -0.8523 -0.4490
16937TIP3    H272227   1.992   6.130   1.907  0.0451 -1.6719 -0.9893
16938TIP3   OH272228   2.659   1.078  13.142 -0.4330  0.6618  0.0784
16938TIP3    H172229   2.645   0.993  13.100 -0.5372  0.2003  1.0129
16938TIP3    H272230   2.695   1.134  13.073  1.6452 -0.7209 -0.0434
16939TIP3   OH272231   2.709   5.017  12.384  0.2246  0.3544  0.3747
16939TIP3    H172232   2.694   4.977  12.298  0.4924 -1.6040  1.1734
16939TIP3    H272233   2.803   5.011  12.397  0.3910  2.1144  0.1676
16940TIP3   OH272234   4.295   1.923   5.564  0.2419  0.0712 -0.3697
16940TIP3    H172235   4.230   1.948   5.499 -0.2853 -0.6697 -0.1389
16940TIP3    H272236   4.279   1.982   5.638 -0.8170 -0.7309  0.0652
16941TIP3   OH272237   1.957   5.785   5.071  0.4908 -0.3304 -0.2145
16941TIP3    H172238   2.015   5.840   5.123 -1.2025  1.3935 -0.0355
16941TIP3    H272239   1.987   5.695   5.087  2.3856  0.4157  0.6816
16942TIP3   OH272240   6.668   6.209  14.989 -0.6471  0.5812 -0.4370
16942TIP3    H172241   6.686   6.123  15.028  4.2880  0.9811 -1.1996
16942TIP3    H272242   6.617   6.255  15.055  0.1523 -1.5629  1.8269
16943TIP3   OH272243   4.029   1.026   1.218  0.5664 -0.1822 -0.4665
16943TIP3    H172244   4.106   1.079   1.197 -1.3817  3.0118 -0.2999
16943TIP3    H272245   4.047   0.990   1.304  1.5083  1.3302  0.0060
16944TIP3   OH272246   4.817   4.352   2.196  0.4629 -0.1016 -0.1171
16944TIP3    H172247   4.757   4.423   2.220  1.1424  0.4198  0.0799
16944TIP3    H272248   4.762   4.288   2.150 -0.2717  0.2784  0.2225
16945TIP3   OH272249   4.353   5.180   4.497  0.9436  0.2407 -0.1746
16945TIP3    H172250   4.429   5.232   4.521  1.2852  0.2110 -1.1408
16945TIP3    H272251   4.328   5.135   4.577  2.1701 -0.0321  0.0717
16946TIP3   OH272252   3.618   2.447   2.118  0.6536  0.3816  0.0879
16946TIP3    H172253   3.544   2.394   2.088 -0.4585  0.6197  2.2011
16946TIP3    H272254   3.696   2.400   2.087 -0.3385 -1.2412 -0.0646
16947TIP3   OH272255   3.524   2.763   0.955  0.2581 -0.4453  0.0100
16947TIP3    H172256   3.436   2.782   0.988 -0.6878 -1.9034 -1.4703
16947TIP3    H272257   3.516   2.772   0.860  2.5877  2.5646 -0.0620
16948TIP3   OH272258   0.345   0.580  14.590  0.0895 -0.1479 -0.0994
16948TIP3    H172259   0.314   0.527  14.663  0.0389 -0.0715 -0.0649
16948TIP3    H272260   0.430   0.542  14.567  1.1397  1.1450  1.3991
16949TIP3   OH272261   6.104   4.668   6.089  0.0839  0.3097  0.2126
16949TIP3    H172262   6.139   4.582   6.112 -2.6181 -0.4317  1.9379
16949TIP3    H272263   6.132   4.725   6.160 -1.3332 -0.0657  1.0942
16950TIP3   OH272264   4.461   2.073   1.189 -0.2720 -0.5443  0.0574
16950TIP3    H172265   4.375   2.112   1.174 -0.4694 -0.7567  0.6059
16950TIP3    H272266   4.522   2.146   1.178 -0.6448 -0.0319  1.1753
16951TIP3   OH272267   1.181   6.124   4.043  0.2967  0.6688 -0.0106
16951TIP3    H172268   1.194   6.143   4.136  0.2235 -0.4036  0.2267
16951TIP3    H272269   1.234   6.046   4.026 -0.6654  0.1144 -0.5653
16952TIP3   OH272270   2.445   3.204  13.159  0.0716  0.1988  0.1322
16952TIP3    H172271   2.466   3.116  13.191  1.2041  0.1445 -0.7067
16952TIP3    H272272   2.472   3.262  13.231 -0.6600 -0.1276  0.6793
16953TIP3   OH272273   4.753   4.368   0.906  0.4747 -0.0910  0.2668
16953TIP3    H172274   4.805   4.429   0.853  0.4907  1.3005  1.7853
16953TIP3    H272275   4.800   4.364   0.989 -0.7086 -0.4762  0.9405
16954TIP3   OH272276   5.897   1.449   2.662 -0.2716  0.4489 -0.1657
16954TIP3    H172277   5.936   1.530   2.697  4.1756 -2.1700  1.8101
16954TIP3    H272278   5.850   1.412   2.736  1.2492 -0.6475  0.3013
16955TIP3   OH272279   2.403   2.880   4.988 -0.3346 -0.3250  0.0474
16955TIP3    H172280   2.385   2.842   4.901 -0.5845 -1.0313  0.3963
16955TIP3    H272281   2.321   2.871   5.036 -0.9017  2.1197 -0.3365
16956TIP3   OH272282   3.853   0.758  17.065  0.5173 -0.0149 -0.3187
16956TIP3    H172283   3.938   0.720  17.042  0.3641 -0.1463 -0.6719
16956TIP3    H272284   3.824   0.707  17.141  1.0823  0.5061  0.2614
16957TIP3   OH272285   5.486   4.011   5.934 -0.3578 -0.8831 -0.0223
16957TIP3    H172286   5.577   3.984   5.921  0.4235  1.5798 -0.1834
16957TIP3    H272287   5.479   4.028   6.028 -0.3523 -0.1574 -0.1464
16958TIP3   OH272288   2.061   1.585   2.147 -0.4330 -0.0755  0.3607
16958TIP3    H172289   2.000   1.608   2.077 -0.4444 -2.0681 -0.3618
16958TIP3    H272290   2.014   1.606   2.228 -1.1174  0.6319 -0.2145
16959TIP3   OH272291   0.303   1.446   5.195  0.0698 -0.2469  0.3394
16959TIP3    H172292   0.368   1.514   5.177 -0.8269  0.0168 -2.2930
16959TIP3    H272293   0.254   1.480   5.270  0.8220  1.1353  0.2382
16960TIP3   OH272294   4.792   3.900  14.640 -0.0874 -0.1877  0.3830
16960TIP3    H172295   4.856   3.867  14.577 -0.4383  0.4399 -0.3253
16960TIP3    H272296   4.792   3.995  14.625 -2.2778 -0.2988 -0.7214
16961TIP3   OH272297   5.463   3.050  14.634 -0.3408 -0.6835 -0.3654
16961TIP3    H172298   5.529   2.982  14.621  1.8633  1.1324  0.5272
16961TIP3    H272299   5.426   3.033  14.720  0.0600 -0.8554 -0.2269
16962TIP3   OH272300   2.810   3.578   5.028 -0.1389  0.1595  0.2440
16962TIP3    H172301   2.824   3.559   5.121 -0.4442 -0.9515  0.0822
16962TIP3    H272302   2.836   3.497   4.983  0.2505  0.7713 -0.6587
16963TIP3   OH272303   5.343   6.168  16.662  0.2274  0.1562  0.3551
16963TIP3    H172304   5.350   6.262  16.643  1.1813  0.3437  1.5141
16963TIP3    H272305   5.398   6.155  16.739  0.2121 -1.3905  0.1380
16964TIP3   OH272306   0.070   2.733  13.935 -0.2413 -0.2297 -0.2659
16964TIP3    H172307   0.115   2.771  13.859  1.1121 -1.0993  0.0648
16964TIP3    H272308  -0.016   2.708  13.902  0.3288 -0.6098 -1.5228
16965TIP3   OH272309   1.725   6.253  13.166 -0.1645  0.1099  0.2854
16965TIP3    H172310   1.814   6.241  13.200 -0.3627  1.2729  1.2865
16965TIP3    H272311   1.669   6.208  13.230 -0.3825  0.5468  0.4085
16966TIP3   OH272312   3.764   2.439  17.001  0.1248 -0.0726 -0.4107
16966TIP3    H172313   3.697   2.418  17.066  0.4689  1.6585  0.5478
16966TIP3    H272314   3.843   2.397  17.034  0.2594  0.6602  0.2373
16967TIP3   OH272315   3.065   5.962  12.411  0.8480  0.2499  0.1319
16967TIP3    H172316   2.981   5.921  12.389 -0.1257 -0.3565  4.2258
16967TIP3    H272317   3.050   6.056  12.401 -0.6889  0.2076  1.5663
16968TIP3   OH272318   4.656   3.992   4.941 -0.0946  0.2436 -0.8062
16968TIP3    H172319   4.707   3.932   4.996 -0.9876 -0.5261 -0.8051
16968TIP3    H272320   4.640   3.943   4.861  0.1804  0.9272 -1.2891
16969TIP3   OH272321   4.818   4.662   6.674  0.1611 -0.2200 -0.4204
16969TIP3    H172322   4.783   4.672   6.586  2.1873 -0.5099 -1.3232
16969TIP3    H272323   4.913   4.664   6.662  0.4921 -0.5634  1.7295
16970TIP3   OH272324   4.478   1.114   5.074 -0.1987 -0.5690 -0.1878
16970TIP3    H172325   4.528   1.192   5.050 -0.0349 -1.3007 -2.4783
16970TIP3    H272326   4.441   1.082   4.991 -0.2143 -2.9448  0.6399
16971TIP3   OH272327   2.238   4.173  10.857  0.2029 -0.2338  0.4210
16971TIP3    H172328   2.173   4.235  10.824  1.0822 -0.0848 -1.1330
16971TIP3    H272329   2.322   4.211  10.829  0.7250 -2.8841 -2.0298
16972TIP3   OH272330   4.502   3.175  15.390 -0.2392 -0.6465 -0.3033
16972TIP3    H172331   4.573   3.232  15.360 -0.5279 -1.2487 -2.2397
16972TIP3    H272332   4.546   3.110  15.445  0.4626 -0.0538 -0.1475
16973TIP3   OH272333   5.535   6.166   6.048 -0.1175 -0.0344 -0.0994
16973TIP3    H172334   5.553   6.260   6.057  0.7514 -0.3463  2.0725
16973TIP3    H272335   5.442   6.161   6.026 -0.3471  1.3217  0.4733
16974TIP3   OH272336   2.468   4.750  11.798  0.0710 -0.0264  0.4688
16974TIP3    H172337   2.378   4.750  11.765  0.2283 -2.3645 -0.1534
16974TIP3    H272338   2.466   4.689  11.872  0.7655  1.4269  1.7318
16975TIP3   OH272339   0.449   1.040  14.630 -0.6299 -0.4790  0.0805
16975TIP3    H172340   0.439   1.130  14.598  0.6462 -0.0692  0.7707
16975TIP3    H272341   0.386   0.990  14.578 -0.7087  0.6452 -0.9781
16976TIP3   OH272342   2.253   5.848   2.826 -0.2615 -0.4329  1.1026
16976TIP3    H172343   2.297   5.924   2.864 -0.1199 -0.0306  0.1789
16976TIP3    H272344   2.303   5.829   2.746 -0.9137 -0.8450  0.7783
16977TIP3   OH272345   2.440   2.060   4.083 -0.5853 -0.1251  0.4294
16977TIP3    H172346   2.479   2.147   4.086 -2.0232  0.8255 -3.0600
16977TIP3    H272347   2.513   2.000   4.099  0.5708  1.6091  2.2210
16978TIP3   OH272348   5.823   1.991   4.134  0.0821  0.1021  0.5508
16978TIP3    H172349   5.832   2.038   4.217  0.4095  1.4439 -0.2227
16978TIP3    H272350   5.912   1.981   4.103  0.0581 -1.4376  0.8859
16979TIP3   OH272351   4.772   6.750  12.495  0.3073 -0.4471  0.0892
16979TIP3    H172352   4.695   6.790  12.454 -0.9080 -1.4834  1.2663
16979TIP3    H272353   4.845   6.777  12.439 -0.7079  1.6679 -0.3323
16980TIP3   OH272354   2.063   2.850   5.370 -0.1094  0.2901  0.2969
16980TIP3    H172355   1.973   2.828   5.392 -1.1678  2.2992 -1.6887
16980TIP3    H272356   2.062   2.945   5.358  1.6190  0.0520 -2.4904
16981TIP3   OH272357   1.670   0.172   0.591  0.1320 -0.3159  0.1112
16981TIP3    H172358   1.656   0.251   0.539  0.5978  1.2850  2.2557
16981TIP3    H272359   1.764   0.155   0.585 -0.3059 -2.3626 -2.4666
16982TIP3   OH272360   4.568   6.136   6.474  0.2778  0.2092 -0.3974
16982TIP3    H172361   4.561   6.231   6.482  0.2936  0.1838 -0.0321
16982TIP3    H272362   4.661   6.120   6.462  0.4670  0.1622  0.9116
16983TIP3   OH272363   5.984   4.144   1.126 -0.5057  0.0389 -0.1546
16983TIP3    H172364   5.980   4.175   1.035 -0.7089  2.7908  0.7006
16983TIP3    H272365   6.077   4.123   1.139 -0.5351 -0.7570 -1.0771
16984TIP3   OH272366   3.993   5.440  15.252  0.1686  0.1476  0.3164
16984TIP3    H172367   3.976   5.462  15.160  0.5158 -1.5746 -0.1871
16984TIP3    H272368   4.078   5.482  15.270  0.1551  0.4040 -0.1725
16985TIP3   OH272369   4.615   6.062  16.639  0.2336 -0.2454 -0.0596
16985TIP3    H172370   4.633   6.096  16.551  0.0760  1.5961  0.5997
16985TIP3    H272371   4.701   6.054  16.680  0.1701  0.9864  0.3507
16986TIP3   OH272372   4.716   4.782   0.820 -0.1959 -0.1960  0.0168
16986TIP3    H172373   4.784   4.715   0.826  0.4149  0.4493  0.3476
16986TIP3    H272374   4.648   4.742   0.766 -0.3250 -1.4992  1.0862
16987TIP3   OH272375   2.087   6.429   1.183  0.0275 -0.2368  0.3803
16987TIP3    H172376   2.178   6.460   1.183 -0.1360  0.2781 -0.4179
16987TIP3    H272377   2.091   6.342   1.221  0.5641  0.6075  2.4242
16988TIP3   OH272378   5.547   0.029   1.301  0.7091 -0.0202 -0.0660
16988TIP3    H172379   5.519   0.043   1.391  1.3203 -1.0959  0.3022
16988TIP3    H272380   5.549  -0.066   1.290 -0.2726  0.0903 -1.5192
16989TIP3   OH272381   4.914   4.151  12.520  0.0407 -0.5079 -0.2286
16989TIP3    H172382   4.824   4.181  12.523 -0.8706 -2.7746 -1.9227
16989TIP3    H272383   4.956   4.207  12.455 -0.5286 -0.3227 -0.4359
16990TIP3   OH272384   6.086   5.086  15.610 -0.1996  0.1926 -0.1097
16990TIP3    H172385   6.180   5.090  15.591 -0.7052  0.3101 -3.0891
16990TIP3    H272386   6.068   4.993  15.623  0.2802  0.1509  0.3134
16991TIP3   OH272387   4.149   1.271  11.810  0.0737  0.1247  0.8655
16991TIP3    H172388   4.132   1.289  11.903 -0.6211  0.2767  0.7171
16991TIP3    H272389   4.164   1.177  11.806 -1.6911 -0.1896  0.8928
16992TIP3   OH272390   4.067   0.711   0.368 -0.2987  0.2292  0.2088
16992TIP3    H172391   4.145   0.686   0.419  1.1626  0.7619 -1.6365
16992TIP3    H272392   4.085   0.802   0.342 -1.1651  0.0869 -0.9218
16993TIP3   OH272393   0.169   3.044  11.541 -0.5560 -0.3088  0.0800
16993TIP3    H172394   0.080   3.080  11.533  0.0157  1.3855  0.8232
16993TIP3    H272395   0.167   2.996  11.624 -0.6870  0.0071  0.2619
16994TIP3   OH272396   6.654   4.913   5.546 -1.0733  0.5504  0.1475
16994TIP3    H172397   6.671   4.909   5.452 -0.5757  0.5378  0.2348
16994TIP3    H272398   6.704   4.840   5.582 -1.4596  0.4057  0.3941
16995TIP3   OH272399   5.680   1.978  12.514 -0.0337 -0.1188 -0.0306
16995TIP3    H172400   5.619   1.926  12.462  1.2399 -1.5053 -0.2321
16995TIP3    H272401   5.746   1.915  12.543  2.7494  1.6364 -1.9872
16996TIP3   OH272402   3.645   3.475   0.269 -0.1479 -0.2383  0.0692
16996TIP3    H172403   3.557   3.436   0.264  0.4142 -1.3818 -2.0816
16996TIP3    H272404   3.694   3.415   0.325 -0.4551 -0.1969  0.3855
16997TIP3   OH272405   0.345   3.552  16.443  0.1154 -0.3489 -0.4894
16997TIP3    H172406   0.339   3.512  16.529  1.2893 -2.1234 -1.1815
16997TIP3    H272407   0.425   3.605  16.447  0.1905 -0.4616 -0.5099
16998TIP3   OH272408   4.114   1.729  14.331  0.1774  0.2083 -0.2730
16998TIP3    H172409   4.086   1.672  14.260  0.1088  1.2476 -1.1101
16998TIP3    H272410   4.038   1.784  14.349 -0.1264 -0.6722  1.2756
16999TIP3   OH272411   1.158   3.639  17.194  0.1424  0.0096  0.0322
16999TIP3    H172412   1.132   3.628  17.286 -1.2994  0.5454 -0.2903
16999TIP3    H272413   1.156   3.550  17.159 -0.0973 -0.0993  0.3140
17000TIP3   OH272414   3.095   2.676  11.040 -0.9494 -0.3531 -0.1333
17000TIP3    H172415   3.108   2.771  11.031 -2.2304  0.4524  4.1620
17000TIP3    H272416   3.168   2.646  11.094 -1.2291 -1.5778 -0.4073
17001TIP3   OH272417   1.485   4.528  13.695  0.0149  0.0806  0.0919
17001TIP3    H172418   1.517   4.466  13.760  0.2940  0.4141  0.2801
17001TIP3    H272419   1.535   4.509  13.616  1.7604  1.5427  0.7865
17002TIP3   OH272420   5.412   5.626   5.345  0.1109 -0.0711 -0.4955
17002TIP3    H172421   5.398   5.587   5.259 -0.4171  0.9212 -0.8783
17002TIP3    H272422   5.410   5.721   5.329  3.5479  0.2265  0.0126
17003TIP3   OH272423   2.023   4.467  13.215 -0.6081 -0.2822  0.1432
17003TIP3    H172424   1.956   4.417  13.168  0.3958 -0.6160 -1.0026
17003TIP3    H272425   2.096   4.472  13.154 -1.1662  3.9883 -0.5153
17004TIP3   OH272426   0.203   2.674  14.984 -0.4369  0.1224  0.3864
17004TIP3    H172427   0.186   2.766  15.004 -0.4280  0.5687 -1.4967
17004TIP3    H272428   0.119   2.641  14.952 -0.2267 -0.3043  0.2683
17005TIP3   OH272429   3.531   5.730  11.212  0.1188 -0.3107  0.0862
17005TIP3    H172430   3.595   5.777  11.265 -1.4614  0.8498  1.0591
17005TIP3    H272431   3.568   5.642  11.202  0.1865 -0.8670  3.7842
17006TIP3   OH272432   4.338   5.083  12.635  0.0188 -0.5291 -0.1457
17006TIP3    H172433   4.416   5.028  12.626  1.0639  0.9199 -0.2559
17006TIP3    H272434   4.320   5.113  12.546 -0.3000 -0.3871 -0.0346
17007TIP3   OH272435   2.451   1.582  10.724 -0.3162  0.4197 -0.1258
17007TIP3    H172436   2.361   1.603  10.701 -0.4065 -1.5774 -1.9626
17007TIP3    H272437   2.505   1.637  10.666 -0.4249  0.2338 -0.4099
17008TIP3   OH272438   2.927   3.922  12.806  0.2778  1.2749 -0.3401
17008TIP3    H172439   2.935   3.952  12.897 -1.1812  0.8588 -0.0456
17008TIP3    H272440   2.961   3.994  12.754 -0.8422  2.4195  0.4596
17009TIP3   OH272441   4.521   6.407   4.792  0.1327  0.2868  0.1782
17009TIP3    H172442   4.542   6.482   4.736 -2.1734  0.7353 -0.2037
17009TIP3    H272443   4.464   6.352   4.738  2.1183 -2.0374  0.2935
17010TIP3   OH272444   0.586   1.017   0.065 -0.1705  0.2584  0.7091
17010TIP3    H172445   0.648   0.976   0.125  1.1977  1.3893  0.1098
17010TIP3    H272446   0.627   1.011  -0.021 -1.4295  0.0088  0.0904
17011TIP3   OH272447   6.214   2.602   3.357 -0.2575 -0.2398 -0.5252
17011TIP3    H172448   6.249   2.606   3.446 -0.1560  1.3511 -0.5926
17011TIP3    H272449   6.199   2.509   3.340 -1.0583 -0.5171  1.4623
17012TIP3   OH272450   1.828   3.513  10.895 -0.5016  0.6334  0.3310
17012TIP3    H172451   1.746   3.519  10.846  0.7121  0.9631 -1.7908
17012TIP3    H272452   1.893   3.551  10.837  1.3400 -0.5170  1.5315
17013TIP3   OH272453   0.592   1.506  13.543 -0.0954 -0.4188 -0.2178
17013TIP3    H172454   0.549   1.573  13.596  0.1077 -0.7299  0.3473
17013TIP3    H272455   0.648   1.459  13.605 -1.3415 -2.0768 -0.2707
17014TIP3   OH272456   4.128   2.157   3.700  0.1477  0.2335  0.1542
17014TIP3    H172457   4.052   2.111   3.663  0.9697 -1.0628 -0.0088
17014TIP3    H272458   4.158   2.099   3.771  2.4204 -0.5544 -1.3418
17015TIP3   OH272459   0.183   1.325  15.917 -0.5822 -0.3804  0.0178
17015TIP3    H172460   0.221   1.311  16.004  0.3313 -0.1533 -0.3338
17015TIP3    H272461   0.185   1.239  15.875  0.2076 -0.2322 -0.2558
17016TIP3   OH272462   6.006   1.353   2.072 -0.5666 -0.1225  0.0958
17016TIP3    H172463   5.980   1.415   2.003 -0.5104  0.0503  0.2276
17016TIP3    H272464   6.017   1.270   2.026 -0.4429  0.0106 -0.1201
17017TIP3   OH272465   0.678   3.224   1.404 -0.1622 -0.4999  0.7026
17017TIP3    H172466   0.694   3.171   1.326  0.7861 -0.1378  0.6378
17017TIP3    H272467   0.709   3.311   1.381 -0.9827 -0.0929  1.0812
17018TIP3   OH272468   1.136   1.950  10.759 -0.1496 -0.2515 -0.4175
17018TIP3    H172469   1.222   1.908  10.759  0.3229  0.6827 -0.1787
17018TIP3    H272470   1.154   2.040  10.787 -1.1310  0.1071 -0.9024
17019TIP3   OH272471   4.766   2.828  16.150  0.2476 -0.0320  0.1008
17019TIP3    H172472   4.682   2.791  16.179  0.0065 -0.4755 -1.0902
17019TIP3    H272473   4.762   2.920  16.173 -0.5536 -0.0655  0.1153
17020TIP3   OH272474   6.300   1.234   6.662  0.1192  0.3894  0.3303
17020TIP3    H172475   6.267   1.307   6.715  1.8423  1.0304  0.5959
17020TIP3    H272476   6.376   1.270   6.617  1.2465 -1.3408  0.7604
17021TIP3   OH272477   0.070   1.144  15.345 -0.5768  0.7644 -0.4058
17021TIP3    H172478   0.029   1.120  15.428 -1.1042  0.1130 -0.8511
17021TIP3    H272479   0.052   1.238  15.335  0.8160  1.2244  0.9474
17022TIP3   OH272480   3.739   1.746   3.609  0.0635 -0.8704  0.0638
17022TIP3    H172481   3.701   1.816   3.555  1.7359 -0.9508 -1.3179
17022TIP3    H272482   3.788   1.692   3.547  1.0289 -1.7122  1.5006
17023TIP3   OH272483   3.083   1.197   4.508  0.2455 -0.6693  0.2362
17023TIP3    H172484   3.100   1.228   4.597  0.3425  1.9539 -0.6132
17023TIP3    H272485   2.988   1.202   4.499  0.2997 -0.0605 -0.0671
17024TIP3   OH272486   4.146   6.148  16.018  0.0331 -0.5996  0.3303
17024TIP3    H172487   4.147   6.207  16.094 -1.1815 -0.4037  0.2091
17024TIP3    H272488   4.203   6.076  16.044  1.5238  0.5845  0.4952
17025TIP3   OH272489   0.657   1.241  11.096 -0.0447  0.0322 -0.5415
17025TIP3    H172490   0.616   1.160  11.124  0.7631  0.0898  0.9177
17025TIP3    H272491   0.748   1.217  11.078  1.0453  1.0637  2.8333
17026TIP3   OH272492   0.410   1.649   1.750 -0.0406  0.4009 -0.2123
17026TIP3    H172493   0.341   1.656   1.684 -2.0902 -0.9817  1.6442
17026TIP3    H272494   0.374   1.691   1.828  1.0435 -0.6581  0.9213
17027TIP3   OH272495   2.551   3.843  17.315  0.0178  0.6853 -0.7788
17027TIP3    H172496   2.560   3.933  17.282  1.4700  0.2994 -1.5022
17027TIP3    H272497   2.640   3.809  17.316 -0.4692 -0.6033 -0.0557
17028TIP3   OH272498   5.898   6.320  13.189 -0.4582  0.5411 -0.2536
17028TIP3    H172499   5.843   6.367  13.126 -1.3690 -0.0511  0.0805
17028TIP3    H272500   5.988   6.337  13.160 -0.7549  2.3791 -0.2057
17029TIP3   OH272501   3.276   6.299  14.024 -0.0307 -0.3708 -0.1570
17029TIP3    H172502   3.344   6.232  14.029 -1.1193 -1.4355  1.2507
17029TIP3    H272503   3.222   6.273  13.949  0.2226 -0.4120 -0.3246
17030TIP3   OH272504   1.283   4.395  14.006 -0.3817  0.3031 -0.0297
17030TIP3    H172505   1.200   4.442  14.012 -0.7505 -0.2128 -0.8907
17030TIP3    H272506   1.345   4.451  14.053 -0.9386  1.3361 -0.4790
17031TIP3   OH272507   2.881   1.756   1.960  0.1035  0.5146  0.5691
17031TIP3    H172508   2.910   1.667   1.982 -1.0241 -0.5693 -1.9550
17031TIP3    H272509   2.961   1.807   1.957  1.0156 -0.8750  0.1578
17032TIP3   OH272510   1.348   0.443   0.407 -0.0177  0.2529 -0.1713
17032TIP3    H172511   1.354   0.443   0.502  3.6610 -1.2831 -0.2441
17032TIP3    H272512   1.397   0.520   0.380  0.2366 -0.1312 -0.8282
17033TIP3   OH272513   4.230   4.439   4.869  0.1014 -0.2386  0.1420
17033TIP3    H172514   4.226   4.399   4.782  0.5905 -1.8348  0.8289
17033TIP3    H272515   4.270   4.525   4.853  1.3048 -0.9833 -1.0667
17034TIP3   OH272516   0.693   0.835  16.839  0.3930  0.1388  0.4050
17034TIP3    H172517   0.706   0.882  16.921  1.0728  0.0886  0.3356
17034TIP3    H272518   0.623   0.772  16.857  2.3963 -1.8463  1.8075
17035TIP3   OH272519   5.510   0.071  11.844  0.3939  0.0077  0.5168
17035TIP3    H172520   5.557   0.101  11.766 -1.8985  0.3610 -0.7881
17035TIP3    H272521   5.563  -0.001  11.877  1.1194 -0.5656 -1.7221
17036TIP3   OH272522   3.736   4.941  14.819  0.3054 -0.3128 -0.2587
17036TIP3    H172523   3.727   5.024  14.866 -0.1477  0.4025 -1.5664
17036TIP3    H272524   3.693   4.877  14.876 -1.3999  0.7486 -0.2860
17037TIP3   OH272525   1.087   2.927   4.100  0.3605  0.2571 -0.0451
17037TIP3    H172526   1.124   2.978   4.172  0.5169  1.7082 -1.1086
17037TIP3    H272527   1.162   2.881   4.062  0.7188  1.3898 -0.7617
17038TIP3   OH272528   0.169   5.211  16.134  0.0713  0.1496  0.1183
17038TIP3    H172529   0.095   5.264  16.162 -1.5360 -1.3097 -1.1392
17038TIP3    H272530   0.235   5.275  16.105  0.1532  1.5370  3.0155
17039TIP3   OH272531   1.062   5.784  16.215  0.0201 -0.0970 -0.1334
17039TIP3    H172532   1.023   5.698  16.230  0.8452 -0.8860 -2.2281
17039TIP3    H272533   1.068   5.823  16.302  2.9755 -3.5931  1.4908
17040TIP3   OH272534   0.032   5.136   0.138  0.6687 -0.0919 -0.0619
17040TIP3    H172535   0.030   5.208   0.075  2.1514 -0.6950 -0.8316
17040TIP3    H272536   0.122   5.134   0.172  0.9002 -2.0376 -0.6346
17041TIP3   OH272537   3.504   6.505  12.932 -0.5534  0.0591 -0.0764
17041TIP3    H172538   3.526   6.430  12.877  0.4380  0.1875  0.1327
17041TIP3    H272539   3.426   6.477  12.981 -0.7838 -0.4591 -0.7237
17042TIP3   OH272540   1.058   5.287   5.315 -0.4740 -0.1583  0.0946
17042TIP3    H172541   1.054   5.328   5.229  1.8322 -0.6734 -0.3234
17042TIP3    H272542   1.027   5.354   5.375  0.5275  1.2157 -0.8655
17043TIP3   OH272543   1.544   2.355  12.607 -0.2085 -0.7144 -0.0146
17043TIP3    H172544   1.604   2.396  12.545 -2.6710  0.8793 -1.5104
17043TIP3    H272545   1.519   2.272  12.566 -0.1167 -0.7117 -0.0746
17044TIP3   OH272546   3.112   6.552   4.496 -0.2605 -0.7064 -0.1050
17044TIP3    H172547   3.029   6.546   4.448 -0.4232 -3.2819  0.3655
17044TIP3    H272548   3.169   6.603   4.438 -1.6893 -0.1778 -1.1231
17045TIP3   OH272549   5.415   5.096   4.754 -0.1256  0.2935 -0.6689
17045TIP3    H172550   5.484   5.056   4.806 -0.7462  0.3979  0.2817
17045TIP3    H272551   5.393   5.031   4.687  1.0492  0.3688 -1.1363
17046TIP3   OH272552   4.335   0.956   2.314 -0.2016  0.1734  0.2460
17046TIP3    H172553   4.400   0.984   2.378 -0.0213 -0.6724  0.4440
17046TIP3    H272554   4.356   1.007   2.236  0.0305  0.6851  0.6342
17047TIP3   OH272555   0.297   6.233   5.853  0.3933  0.1130  0.9950
17047TIP3    H172556   0.330   6.318   5.883  0.3226  0.6681 -0.3945
17047TIP3    H272557   0.212   6.224   5.895  1.5311 -0.5435  3.2743
17048TIP3   OH272558   0.041   0.508   6.615  0.1867 -0.2526 -0.4527
17048TIP3    H172559  -0.026   0.522   6.682 -0.1906 -0.0407 -0.8616
17048TIP3    H272560   0.093   0.435   6.647 -2.1487 -2.5837 -1.5437
17049TIP3   OH272561   3.440   6.072  14.351  0.5810  0.6128 -0.4360
17049TIP3    H172562   3.499   6.003  14.323  2.2837  1.8832 -0.1841
17049TIP3    H272563   3.486   6.114  14.424 -2.2896 -0.6369  2.3293
17050TIP3   OH272564   0.628   6.262  16.956  0.2181  0.3147  0.3534
17050TIP3    H172565   0.632   6.357  16.949 -0.8952  0.2373 -1.8987
17050TIP3    H272566   0.594   6.246  17.044 -1.4149  2.0711  0.1003
17051TIP3   OH272567   6.209   0.033  13.863 -0.7227 -0.0648 -0.4797
17051TIP3    H172568   6.301   0.058  13.865 -0.3841 -1.3041  1.5774
17051TIP3    H272569   6.184   0.023  13.955 -3.0345  0.6002 -0.9599
17052TIP3   OH272570   4.334   1.964   2.021 -0.1932  0.9025  0.0719
17052TIP3    H172571   4.388   1.947   1.944  0.4515 -0.8007  0.8479
17052TIP3    H272572   4.261   1.903   2.014 -0.3403  1.0090  0.6105
17053TIP3   OH272573   4.915   1.170  13.497 -0.0638  0.3355 -0.2936
17053TIP3    H172574   4.980   1.160  13.428  1.1641 -0.3530  0.9119
17053TIP3    H272575   4.961   1.146  13.578 -2.1942 -1.6985  0.4514
17054TIP3   OH272576   1.596   4.485  12.179 -0.0347  0.2328 -0.1300
17054TIP3    H172577   1.569   4.507  12.090 -0.2068 -2.2687 -0.7485
17054TIP3    H272578   1.667   4.421  12.168  0.7017  0.7062  1.5450
17055TIP3   OH272579   1.899   4.666  13.370  0.6184  0.3283  0.8749
17055TIP3    H172580   1.932   4.600  13.309 -0.7260  0.3847  0.0335
17055TIP3    H272581   1.805   4.647  13.376  0.3739  1.5906  1.3447
17056TIP3   OH272582   5.552   5.867  13.119 -0.2136  0.3365  0.5785
17056TIP3    H172583   5.634   5.911  13.144 -0.1235  0.4264  0.1394
17056TIP3    H272584   5.559   5.779  13.156 -0.0626  0.4530  0.8244
17057TIP3   OH272585   5.926   2.339   3.257  0.2263  0.7589 -0.0651
17057TIP3    H172586   5.997   2.390   3.296  0.6685 -0.2267  0.4679
17057TIP3    H272587   5.969   2.259   3.226 -0.5077  0.5432 -0.5401
17058TIP3   OH272588   1.032   0.311   1.262 -0.3136 -0.2898 -0.1427
17058TIP3    H172589   1.111   0.311   1.207  2.3819  0.7869  3.2950
17058TIP3    H272590   1.002   0.402   1.261 -1.3724 -0.6302 -1.1723
17059TIP3   OH272591   5.055   5.939  11.205  0.1602  0.4120 -0.0950
17059TIP3    H172592   4.992   5.873  11.234 -0.2683  1.1875  0.8116
17059TIP3    H272593   5.011   5.983  11.132  0.2045  0.0859 -0.3197
17060TIP3   OH272594   2.594   1.390  13.777  0.1338 -0.3808 -0.1770
17060TIP3    H172595   2.560   1.377  13.865 -2.1663 -2.5241 -1.2548
17060TIP3    H272596   2.556   1.473  13.748  0.2049 -0.0956  0.5405
17061TIP3   OH272597   6.195   3.219   0.910 -0.4113  0.1040 -0.2881
17061TIP3    H172598   6.116   3.191   0.957  0.2737 -0.9925  0.2701
17061TIP3    H272599   6.238   3.279   0.970  0.9687 -2.0502  1.0261
17062TIP3   OH272600   0.970   1.602   3.168 -0.3513  0.1845 -0.2214
17062TIP3    H172601   0.878   1.610   3.141 -0.2180  0.6681 -0.5505
17062TIP3    H272602   0.985   1.676   3.226 -0.5948 -0.7803  1.1143
17063TIP3   OH272603   0.928   1.044   3.222  0.3462  0.0660  0.5916
17063TIP3    H172604   0.850   0.991   3.203  0.0956 -0.3779  2.5672
17063TIP3    H272605   0.998   1.002   3.173 -0.6657  0.6629 -1.4938
17064TIP3   OH272606   5.798   0.923   5.283  0.1047 -0.2712 -0.2181
17064TIP3    H172607   5.779   0.842   5.330 -0.6933 -0.3624 -0.6811
17064TIP3    H272608   5.736   0.986   5.319  1.0653  0.2937  0.5150
17065TIP3   OH272609   4.158   0.082   1.788  0.1759 -0.8133  0.2022
17065TIP3    H172610   4.228   0.105   1.848  0.1608  0.3909 -0.1980
17065TIP3    H272611   4.190   0.006   1.739  1.2055 -0.2769  0.0259
17066TIP3   OH272612   3.840   0.599   4.802  0.1390  0.2906  0.0569
17066TIP3    H172613   3.860   0.660   4.731  1.6684 -0.7853 -0.4803
17066TIP3    H272614   3.755   0.629   4.836  0.4491  2.1819 -0.7270
17067TIP3   OH272615   2.433   6.401   4.614  0.3434  0.0751  0.4898
17067TIP3    H172616   2.366   6.394   4.547  0.7217  1.9464 -0.1412
17067TIP3    H272617   2.385   6.394   4.697 -0.6170  1.1022  0.0502
17068TIP3   OH272618   0.078   3.113   3.393 -0.0849 -0.1313  0.0293
17068TIP3    H172619   0.086   3.181   3.460  0.1252 -0.2759  0.1539
17068TIP3    H272620   0.037   3.040   3.438  2.0081 -1.0279  0.6106
17069TIP3   OH272621   1.197   1.704  17.385  1.2828 -0.5142 -0.0378
17069TIP3    H172622   1.266   1.764  17.358  1.7240 -1.9693 -2.4365
17069TIP3    H272623   1.119   1.733  17.337  0.5911  0.1287  1.4033
17070TIP3   OH272624   2.390   4.373   4.721 -0.7016 -0.1468 -0.0286
17070TIP3    H172625   2.350   4.459   4.725 -1.3033 -0.2383 -2.7414
17070TIP3    H272626   2.318   4.312   4.734 -0.2516 -0.3137  2.0627
17071TIP3   OH272627   0.681   1.136  11.519  0.6488  0.3157 -0.0941
17071TIP3    H172628   0.589   1.111  11.510  0.2135  1.6001  0.5045
17071TIP3    H272629   0.708   1.100  11.603  1.1948 -1.4386 -0.9772
17072TIP3   OH272630   2.347   1.094   1.098  0.0348 -0.0896  0.2375
17072TIP3    H172631   2.349   1.103   1.193 -1.4242  1.0385  0.1815
17072TIP3    H272632   2.367   1.001   1.083  1.0715 -0.1129  1.5846
17073TIP3   OH272633   2.093   0.767   3.999 -0.2465 -0.0291  0.1187
17073TIP3    H172634   2.017   0.761   4.057  0.3889 -1.3819  0.8572
17073TIP3    H272635   2.163   0.800   4.054  0.1430 -0.5000 -0.0792
17074TIP3   OH272636   4.498   5.832  16.501 -0.0676  0.5316  0.1944
17074TIP3    H172637   4.545   5.749  16.509  1.9634  1.4966 -1.0519
17074TIP3    H272638   4.561   5.898  16.530 -0.5290  1.9016 -1.7804
17075TIP3   OH272639   5.153   3.358   1.987  0.0852  1.1242 -0.7022
17075TIP3    H172640   5.225   3.420   1.991  2.4286 -1.4378  2.4168
17075TIP3    H272641   5.099   3.378   2.064 -0.7352  0.9953 -1.2285
17076TIP3   OH272642   4.013   5.681   2.811  0.1442  0.6256 -0.1297
17076TIP3    H172643   3.978   5.602   2.770  0.0507  0.4786  0.2275
17076TIP3    H272644   3.977   5.753   2.760  1.7761  0.4095 -1.6912
17077TIP3   OH272645   5.899   2.925  16.502  1.1711 -0.7872  0.2206
17077TIP3    H172646   5.840   2.904  16.574  0.8834 -0.8818 -0.0430
17077TIP3    H272647   5.955   2.847  16.494  0.4940 -1.2303 -0.3672
17078TIP3   OH272648   3.661   4.372   3.374  0.0417  0.3312 -0.1760
17078TIP3    H172649   3.694   4.437   3.436  0.8202 -0.9357  0.7919
17078TIP3    H272650   3.587   4.415   3.332 -0.1551  1.4539  1.2262
17079TIP3   OH272651   6.017   1.452  15.917  0.0025 -0.3627 -0.4413
17079TIP3    H172652   5.997   1.386  15.851  1.0845  0.0386 -1.1976
17079TIP3    H272653   6.107   1.478  15.899  0.7070 -0.9516  1.8294
17080TIP3   OH272654   4.571   2.776  14.185 -0.0070  1.0549 -0.7709
17080TIP3    H172655   4.477   2.770  14.169  0.0729 -0.1256 -0.8586
17080TIP3    H272656   4.604   2.688  14.169  0.7405  0.8342  1.5415
17081TIP3   OH272657   4.298   2.833  14.075 -0.2636 -0.1298  0.0813
17081TIP3    H172658   4.249   2.763  14.032  1.9236 -0.9539 -1.2300
17081TIP3    H272659   4.255   2.844  14.159 -2.4543 -1.0137 -0.8536
17082TIP3   OH272660   0.912   2.263   4.370  0.4833 -0.7389 -0.3451
17082TIP3    H172661   0.875   2.329   4.311  1.4907 -0.8704 -1.1361
17082TIP3    H272662   0.990   2.304   4.407  0.8586 -1.3225 -0.4850
17083TIP3   OH272663   6.271   4.014   3.553 -0.1769 -0.0848 -0.5726
17083TIP3    H172664   6.270   3.953   3.627  0.3896  2.0269  1.2780
17083TIP3    H272665   6.207   4.081   3.576 -1.6430 -0.4569 -3.0968
17084TIP3   OH272666   5.522   3.697   2.108  0.4196  0.1744  0.1092
17084TIP3    H172667   5.566   3.701   2.023  0.7442  2.1688  0.3287
17084TIP3    H272668   5.588   3.726   2.171  0.2536 -1.4824  1.1254
17085TIP3   OH272669   4.054   0.661  16.156 -0.2149  0.5867  0.6389
17085TIP3    H172670   4.066   0.702  16.242  0.1941  0.4216  0.6660
17085TIP3    H272671   4.040   0.569  16.175  0.7706  0.3956  0.4921
17086TIP3   OH272672   3.840   0.913   1.691  0.1596 -0.4074  0.0632
17086TIP3    H172673   3.753   0.876   1.680  0.3757 -0.9510  0.1727
17086TIP3    H272674   3.868   0.884   1.778 -0.0783  0.8632  0.5831
17087TIP3   OH272675   0.214   1.096   5.073  0.3225  0.3371 -0.3721
17087TIP3    H172676   0.173   1.111   5.157  0.1178 -0.4632 -0.3183
17087TIP3    H272677   0.160   1.029   5.031  2.5022 -2.1041  0.4438
17088TIP3   OH272678   6.190   6.351   3.600  0.2966  0.0239 -0.2150
17088TIP3    H172679   6.097   6.366   3.582 -0.0039  0.2961  1.3468
17088TIP3    H272680   6.221   6.435   3.635  0.5013 -0.7132  1.5032
17089TIP3   OH272681   4.753   1.900  14.126 -0.4466  0.0405 -0.3408
17089TIP3    H172682   4.724   1.935  14.211 -0.6635 -1.2604  0.1356
17089TIP3    H272683   4.787   1.813  14.146  3.1244  1.1316 -0.9986
17090TIP3   OH272684   2.852   5.785  11.511 -0.5692 -0.0610  0.0767
17090TIP3    H172685   2.800   5.857  11.475  1.7219  0.8940 -1.5984
17090TIP3    H272686   2.862   5.806  11.604 -0.5056  1.4316 -0.2513
17091TIP3   OH272687   6.753   0.523   5.973  0.2376  0.0868 -0.2155
17091TIP3    H172688   6.786   0.612   5.961 -1.8700  0.6656 -2.5591
17091TIP3    H272689   6.800   0.471   5.907 -1.0316  0.2223 -1.2529
17092TIP3   OH272690   1.356   6.715  11.371 -0.0523 -0.0928 -0.2977
17092TIP3    H172691   1.331   6.710  11.278  1.1187 -0.7826 -0.5997
17092TIP3    H272692   1.300   6.650  11.414  1.2309 -1.7548 -0.9920
17093TIP3   OH272693   4.038   4.239  16.087  0.1195  0.2072  0.2075
17093TIP3    H172694   4.025   4.208  15.998  2.4099 -0.5788  0.0835
17093TIP3    H272695   4.133   4.245  16.097 -0.0846  3.0847  1.6620
17094TIP3   OH272696   0.430   6.313  14.798  0.0293 -0.4873  0.2751
17094TIP3    H172697   0.470   6.377  14.740 -1.2458 -0.9205 -1.1330
17094TIP3    H272698   0.351   6.356  14.830 -0.7252 -1.2550 -0.5159
17095TIP3   OH272699   0.651   4.719  12.885 -0.2427  0.3617  0.2027
17095TIP3    H172700   0.656   4.735  12.791  0.0025  0.5381  0.2445
17095TIP3    H272701   0.618   4.630  12.892 -1.0268  0.6278 -0.0376
17096TIP3   OH272702   3.540   1.429   4.842 -0.1043 -0.5108  0.9882
17096TIP3    H172703   3.543   1.480   4.923  0.5523  0.5847  0.3162
17096TIP3    H272704   3.448   1.430   4.817 -0.0029  1.2395  0.5002
17097TIP3   OH272705   2.940   0.840  16.010  0.2641 -0.1436  0.2607
17097TIP3    H172706   2.937   0.744  16.016 -0.6382 -0.1719 -0.4464
17097TIP3    H272707   2.930   0.859  15.917  0.4556  0.6420  0.3956
17098TIP3   OH272708   5.291   3.390   3.807 -0.6627 -0.4161  0.5516
17098TIP3    H172709   5.297   3.318   3.871  0.7313  0.9101  2.0344
17098TIP3    H272710   5.381   3.423   3.801 -1.0291  0.3459 -1.1254
17099TIP3   OH272711   4.261   2.643  12.786 -0.1691  0.0644  0.3442
17099TIP3    H172712   4.280   2.550  12.792 -0.3453  0.0084  0.0195
17099TIP3    H272713   4.297   2.670  12.701 -0.8464  0.1205  0.0676
17100TIP3   OH272714   2.874   6.255  13.843 -0.2449  0.3781 -0.3685
17100TIP3    H172715   2.918   6.311  13.779  1.2451 -0.1330  0.1722
17100TIP3    H272716   2.869   6.169  13.801  1.6634 -0.2306  0.5081
17101TIP3   OH272717   1.436   2.268   0.103 -0.2742 -0.1501  0.8596
17101TIP3    H172718   1.470   2.195   0.155 -0.3768 -1.4694 -0.8501
17101TIP3    H272719   1.448   2.345   0.159  1.5647 -1.1860  1.9669
17102TIP3   OH272720   3.063   4.898   1.673  0.0627  0.4414 -0.1176
17102TIP3    H172721   3.020   4.820   1.637  2.9990 -0.5115 -1.9971
17102TIP3    H272722   3.107   4.867   1.752 -0.4864  0.7411  0.3103
17103TIP3   OH272723   0.572   1.656  11.797  0.3277  0.0427 -0.7271
17103TIP3    H172724   0.624   1.715  11.742  0.6250 -0.6198 -1.1577
17103TIP3    H272725   0.575   1.572  11.752 -2.0966  0.2369 -1.3965
17104TIP3   OH272726   5.278   1.794   6.462  0.2398 -0.0276  0.2705
17104TIP3    H172727   5.228   1.713   6.458  0.6178 -0.2144 -0.7524
17104TIP3    H272728   5.369   1.767   6.468  0.3633  0.3164  0.0094
17105TIP3   OH272729   3.842   4.344   1.008 -0.0525 -0.4017 -0.3715
17105TIP3    H172730   3.870   4.385   0.927  2.6175 -1.6096 -0.1825
17105TIP3    H272731   3.794   4.266   0.980  1.9885 -1.5403 -0.9075
17106TIP3   OH272732   0.623   0.746   1.503  0.2886  0.3683 -1.1041
17106TIP3    H172733   0.675   0.677   1.461  0.9963  0.6446 -0.7011
17106TIP3    H272734   0.688   0.803   1.545 -0.3803  0.0230  0.4950
17107TIP3   OH272735   6.601   6.479   3.295  0.0935  0.1772  0.0547
17107TIP3    H172736   6.626   6.506   3.384 -1.7684  0.8126  0.4424
17107TIP3    H272737   6.519   6.526   3.279 -0.0474 -0.6075 -1.6822
17108TIP3   OH272738   1.720   6.625  14.555  0.5751  0.4482 -0.0707
17108TIP3    H172739   1.782   6.665  14.494  0.5573 -0.3743 -0.6337
17108TIP3    H272740   1.732   6.674  14.636  0.8743  1.3035 -0.6137
17109TIP3   OH272741   1.570   5.602   3.453 -0.1426  0.0356  0.1177
17109TIP3    H172742   1.632   5.673   3.438  0.1159 -0.0583  0.7143
17109TIP3    H272743   1.550   5.607   3.547  0.6296 -1.2912  0.3641
17110TIP3   OH272744   4.974   4.643  11.406 -0.0014  0.8252 -0.4531
17110TIP3    H172745   4.915   4.632  11.332  0.9272  0.4001 -1.1445
17110TIP3    H272746   4.936   4.589  11.476 -2.7046  3.7078  0.5681
17111TIP3   OH272747   3.823   4.114  16.236 -0.2525  0.3627 -0.6038
17111TIP3    H172748   3.858   4.182  16.294 -1.0953  0.2602  0.0497
17111TIP3    H272749   3.882   4.113  16.161 -0.4682  2.1340 -0.8389
17112TIP3   OH272750   5.723   5.521  17.096 -0.2649 -0.2027 -0.4316
17112TIP3    H172751   5.704   5.614  17.082  0.0149 -0.1837 -0.7094
17112TIP3    H272752   5.780   5.498  17.023 -0.2906 -0.5812 -0.3307
17113TIP3   OH272753   0.047   5.001   3.136 -0.2834 -0.0058 -0.3431
17113TIP3    H172754   0.034   4.906   3.133  0.5029 -0.1208 -0.2990
17113TIP3    H272755   0.034   5.031   3.046 -0.2006 -0.1974 -0.4178
17114TIP3   OH272756   2.564   5.748   1.425  0.8672  0.5012 -0.2753
17114TIP3    H172757   2.583   5.656   1.404  1.8020  0.7993 -0.7922
17114TIP3    H272758   2.644   5.795   1.401  0.2272  1.5236 -0.4659
17115TIP3   OH272759   2.999   2.385   5.447 -0.3704  0.2503  0.2381
17115TIP3    H172760   2.964   2.297   5.457 -0.7803  0.5229  1.4086
17115TIP3    H272761   2.974   2.430   5.528  0.5668  1.1896  0.0321
17116TIP3   OH272762   5.094   6.187   6.237  0.2489 -0.0088 -0.3960
17116TIP3    H172763   5.016   6.241   6.238  1.9991  2.7630 -1.5050
17116TIP3    H272764   5.166   6.247   6.258  2.3721 -1.8512 -1.8213
17117TIP3   OH272765   6.456   6.614   0.079  0.2722 -0.0848 -0.5373
17117TIP3    H172766   6.383   6.558   0.052  0.1919 -1.0784  1.5763
17117TIP3    H272767   6.423   6.661   0.156  1.5130  0.2286 -0.1791
17118TIP3   OH272768   4.631   4.287   3.920 -0.0931  0.1868 -0.8470
17118TIP3    H172769   4.619   4.229   3.845 -1.3074 -1.7598  0.7615
17118TIP3    H272770   4.550   4.337   3.925 -0.1924 -0.0018 -0.5738
17119TIP3   OH272771   1.052   0.798  11.805 -0.7994  0.2782  0.0815
17119TIP3    H172772   1.050   0.836  11.893  1.1868  0.0324  0.2919
17119TIP3    H272773   1.114   0.854  11.757  0.1681 -1.1243 -0.3654
17120TIP3   OH272774   5.227   3.929  15.255 -0.1306  0.4067  0.2482
17120TIP3    H172775   5.132   3.934  15.256 -0.0857  2.2692  0.1372
17120TIP3    H272776   5.250   3.915  15.163 -0.2934 -0.6363  0.3570
17121TIP3   OH272777   0.349   5.355   1.279 -0.2346 -0.2363  0.3880
17121TIP3    H172778   0.271   5.301   1.294 -1.0195  0.0292 -2.2160
17121TIP3    H272779   0.335   5.393   1.192  2.4573  0.4722  0.1853
17122TIP3   OH272780   1.269   5.644   4.389 -0.7112 -0.0993  0.5757
17122TIP3    H172781   1.273   5.549   4.389 -0.4960 -0.1306 -1.2519
17122TIP3    H272782   1.190   5.665   4.338  1.2673  0.6340 -2.4673
17123TIP3   OH272783   4.246   2.219  13.018  0.2063  0.3428 -0.0945
17123TIP3    H172784   4.176   2.257  12.965  0.6177 -0.3929 -1.2146
17123TIP3    H272785   4.303   2.177  12.954  2.4064  2.0400  0.6414
17124TIP3   OH272786   3.439   2.774  13.301 -0.1505 -0.6224  0.5448
17124TIP3    H172787   3.513   2.815  13.256 -1.6649  1.2470 -0.3590
17124TIP3    H272788   3.401   2.715  13.236 -2.0008  1.6666 -0.6142
17125TIP3   OH272789   4.438   6.295   3.517 -0.2409 -0.1871  0.0437
17125TIP3    H172790   4.516   6.276   3.464 -0.6068 -0.3991 -0.4234
17125TIP3    H272791   4.468   6.360   3.580  0.4340 -0.6095  0.1686
17126TIP3   OH272792   5.039   0.631  16.265  0.5781 -0.0686 -0.1475
17126TIP3    H172793   4.954   0.593  16.241  0.7876 -0.7500  0.1615
17126TIP3    H272794   5.048   0.707  16.208 -0.4111  0.2296  0.0780
17127TIP3   OH272795   1.477   6.478   2.087 -0.6033  0.2219 -0.1105
17127TIP3    H172796   1.521   6.438   2.011  0.3294  2.1448 -0.6432
17127TIP3    H272797   1.385   6.457   2.075 -0.1229 -2.2559 -0.0207
17128TIP3   OH272798   1.225   4.290  15.720 -0.1857  0.2485  0.1424
17128TIP3    H172799   1.242   4.382  15.740 -0.5838  0.0389  1.5469
17128TIP3    H272800   1.286   4.242  15.777  0.3305 -0.3662 -0.8970
17129TIP3   OH272801   0.398   2.710   5.871 -0.1833  0.6532  0.6411
17129TIP3    H172802   0.328   2.711   5.937  0.0624  1.2557  0.8886
17129TIP3    H272803   0.372   2.776   5.807  0.1221  0.8161  0.6871
17130TIP3   OH272804   0.849   4.764   6.346  0.4718  0.0576  0.1742
17130TIP3    H172805   0.893   4.819   6.281  0.6349 -0.9710 -0.6049
17130TIP3    H272806   0.919   4.736   6.405  0.3269  0.9745  0.8045
17131TIP3   OH272807   0.739   5.371  13.732 -0.4622 -0.8147  0.0905
17131TIP3    H172808   0.794   5.321  13.792  0.0804 -0.6912 -0.2922
17131TIP3    H272809   0.735   5.317  13.653  0.3577 -0.1496 -0.4258
17132TIP3   OH272810   2.349   6.492   1.143  0.0361  0.0015 -0.0141
17132TIP3    H172811   2.363   6.460   1.232 -2.9987  0.0149  0.5920
17132TIP3    H272812   2.408   6.440   1.089  2.2689  0.2896  2.0115
17133TIP3   OH272813   0.971   2.702   3.649 -0.4936  0.0012  0.1107
17133TIP3    H172814   0.950   2.793   3.628  1.3738  0.0089 -2.1896
17133TIP3    H272815   0.982   2.660   3.563 -2.4023 -2.7414  1.0445
17134TIP3   OH272816   0.071   4.664  15.072 -0.4082  0.2822  0.3219
17134TIP3    H172817   0.137   4.601  15.099  0.1295  1.0554  0.8704
17134TIP3    H272818  -0.011   4.614  15.068  0.1477 -0.6178 -0.0753
17135TIP3   OH272819   3.109   3.628   1.306  0.4561 -0.3751  0.4766
17135TIP3    H172820   3.140   3.538   1.298  0.2551 -0.3521 -0.6646
17135TIP3    H272821   3.013   3.620   1.312  0.4554 -0.2523  0.6353
17136TIP3   OH272822   2.565   3.460  14.191  0.2093  0.5740  0.1615
17136TIP3    H172823   2.636   3.523  14.195  1.4711 -0.7984  0.3633
17136TIP3    H272824   2.581   3.400  14.264 -0.1818 -0.7238 -0.7679
17137TIP3   OH272825   4.484   1.968  12.573 -0.1862 -0.9661 -0.0333
17137TIP3    H172826   4.429   1.971  12.495  0.8676 -0.9889 -0.8121
17137TIP3    H272827   4.558   1.912  12.547 -0.1225 -1.4630  1.1875
17138TIP3   OH272828   3.987   5.861   4.028 -0.0075 -0.4664  0.2963
17138TIP3    H172829   3.981   5.800   3.955  0.0535  0.3700 -0.4287
17138TIP3    H272830   3.899   5.897   4.037 -0.0082 -0.5445  0.6179
17139TIP3   OH272831   2.364   5.906   0.158  0.4098 -0.5312 -0.3088
17139TIP3    H172832   2.448   5.868   0.129  1.5090  0.1797  1.7352
17139TIP3    H272833   2.309   5.830   0.177  0.5715 -1.0141 -1.6794
17140TIP3   OH272834   3.296   0.686   3.846 -0.6898 -0.2336 -0.0234
17140TIP3    H172835   3.344   0.602   3.847  0.8496  0.5614  2.2452
17140TIP3    H272836   3.231   0.676   3.916 -0.4303  0.4666  0.3261
17141TIP3   OH272837   0.128   3.085  13.555 -0.0512 -0.3735 -1.0607
17141TIP3    H172838   0.194   3.030  13.512  0.5524 -0.2382 -0.3262
17141TIP3    H272839   0.177   3.136  13.620 -0.3257  2.0417 -2.5845
17142TIP3   OH272840   1.046   5.451   5.580  0.8511  0.1471 -0.0894
17142TIP3    H172841   1.087   5.473   5.664  0.5102  0.1019  0.0871
17142TIP3    H272842   0.955   5.478   5.589  0.4442 -1.1811  0.0924
17143TIP3   OH272843   5.192   4.822   2.209 -0.0126 -0.1711 -0.1104
17143TIP3    H172844   5.202   4.745   2.153 -1.0939  0.1781 -0.8307
17143TIP3    H272845   5.142   4.884   2.155  2.1821  1.6811 -0.1678
17144TIP3   OH272846   1.174   5.724   2.585  0.7585  0.0831 -0.2172
17144TIP3    H172847   1.108   5.786   2.616 -0.1082 -0.7007 -0.4556
17144TIP3    H272848   1.258   5.764   2.608  0.1898  0.8909  0.4765
17145TIP3   OH272849   0.600   4.260  10.982 -0.3509  0.0588 -0.2024
17145TIP3    H172850   0.508   4.263  10.954  0.2489  2.4209 -2.3271
17145TIP3    H272851   0.649   4.248  10.901  1.3183  2.3794  0.3699
17146TIP3   OH272852   5.803   3.680  16.292  0.1031  0.8073  0.0298
17146TIP3    H172853   5.712   3.651  16.284  0.2332  0.3481  0.2236
17146TIP3    H272854   5.855   3.601  16.279  0.5383  1.3144 -1.5415
17147TIP3   OH272855   4.976   4.582  11.701  0.0674 -0.3570 -0.1192
17147TIP3    H172856   5.058   4.537  11.684 -0.6418 -1.6134 -0.3528
17147TIP3    H272857   5.000   4.655  11.758  1.5400  0.1671 -1.3327
17148TIP3   OH272858   4.421   5.500   1.348  0.0535  0.0914 -0.2562
17148TIP3    H172859   4.326   5.490   1.357 -0.2186  1.4308 -1.2905
17148TIP3    H272860   4.442   5.458   1.265  0.4327 -0.4960  0.1299
17149TIP3   OH272861   2.812   6.385   6.112 -0.3414  0.2351  0.3480
17149TIP3    H172862   2.832   6.445   6.040  1.6109 -1.2297 -0.4163
17149TIP3    H272863   2.811   6.440   6.190 -3.4661  2.0457 -0.7982
17150TIP3   OH272864   2.124   2.203   2.568 -0.1016  0.2763 -0.2217
17150TIP3    H172865   2.158   2.286   2.602 -0.9842  0.8838 -0.7376
17150TIP3    H272866   2.041   2.191   2.614 -0.2013 -0.0795 -0.4918
17151TIP3   OH272867   3.170   5.228  13.706  0.0327 -0.4120 -0.2972
17151TIP3    H172868   3.097   5.245  13.766 -0.0442  0.2866 -0.5778
17151TIP3    H272869   3.248   5.248  13.756  0.0138 -0.7474 -0.1312
17152TIP3   OH272870   1.828   0.755  12.829  0.3036 -0.0711 -0.0013
17152TIP3    H172871   1.873   0.678  12.864  2.5876  1.4590  0.6676
17152TIP3    H272872   1.896   0.805  12.784 -0.8121  2.0964  0.5507
17153TIP3   OH272873   3.127   1.541   0.469  0.0375  0.3626  0.4621
17153TIP3    H172874   3.179   1.513   0.545  0.3771 -0.7128 -0.1461
17153TIP3    H272875   3.080   1.463   0.441 -1.4083  1.1540  0.5691
17154TIP3   OH272876   0.424   5.787   3.894  0.3503 -0.2209  0.7483
17154TIP3    H172877   0.448   5.698   3.868 -1.6145 -0.2789 -1.2156
17154TIP3    H272878   0.427   5.786   3.989  0.8550 -2.2267  0.7612
17155TIP3   OH272879   2.235   3.930   3.540  0.1366  0.0235  0.8682
17155TIP3    H172880   2.258   3.839   3.525  2.3708  0.8166 -0.9285
17155TIP3    H272881   2.144   3.937   3.511  0.6440 -1.1614 -1.1378
17156TIP3   OH272882   5.274   5.529   5.080  0.4609  0.1411 -0.3174
17156TIP3    H172883   5.293   5.548   4.988 -0.7333  1.6864 -0.2936
17156TIP3    H272884   5.183   5.554   5.091  0.3965 -0.6292  1.1562
17157TIP3   OH272885   3.466   0.494   0.292 -0.1532  0.2351 -0.2933
17157TIP3    H172886   3.557   0.469   0.276 -0.0948 -0.2859  0.7446
17157TIP3    H272887   3.416   0.447   0.227  0.2203 -0.4317 -0.1051
17158TIP3   OH272888   5.462   4.914  16.394 -0.3949 -0.1060 -0.0223
17158TIP3    H172889   5.383   4.931  16.446  0.1309  0.1453  0.7165
17158TIP3    H272890   5.528   4.973  16.432  0.6086 -1.5026  0.4833
17159TIP3   OH272891   6.497   6.347   0.409 -0.1535 -0.1657  0.0516
17159TIP3    H172892   6.469   6.271   0.359 -2.4276  0.9407 -0.4888
17159TIP3    H272893   6.423   6.365   0.468  0.2969  1.6675  0.1055
17160TIP3   OH272894   6.547   5.587   2.913 -0.0409  0.4050  0.1766
17160TIP3    H172895   6.500   5.600   2.831 -0.7989 -2.7440 -0.0015
17160TIP3    H272896   6.638   5.570   2.886  0.0938  1.1750  0.1349
17161TIP3   OH272897   5.105   5.597   2.750 -0.4456 -0.2910 -0.4970
17161TIP3    H172898   5.060   5.649   2.817  1.4113 -1.3397  1.6836
17161TIP3    H272899   5.053   5.518   2.741 -0.3028 -0.4784  0.2916
17162TIP3   OH272900   4.801   5.693   4.675  0.2398  0.1632 -0.9325
17162TIP3    H172901   4.860   5.732   4.740 -0.2021 -1.8494  0.7921
17162TIP3    H272902   4.716   5.732   4.694 -0.3805 -2.0133  1.3375
17163TIP3   OH272903   3.796   2.500   5.817  0.2192  0.1484  0.6155
17163TIP3    H172904   3.873   2.543   5.782 -0.3444  3.4124  2.8792
17163TIP3    H272905   3.822   2.472   5.905 -0.4747 -1.0636  0.4590
17164TIP3   OH272906   5.243   0.399   2.443 -0.0803 -0.0594  0.1192
17164TIP3    H172907   5.217   0.481   2.401 -1.0463  0.5712  1.8684
17164TIP3    H272908   5.188   0.393   2.521  2.4175 -0.5787  1.9759
17165TIP3   OH272909   3.669   2.609   0.546  0.0892 -0.0514  0.0976
17165TIP3    H172910   3.586   2.600   0.592  0.4246 -1.0938  0.5231
17165TIP3    H272911   3.669   2.699   0.513 -0.7969  0.2482  0.8840
17166TIP3   OH272912   6.371   0.692   0.352 -0.0007  0.0506 -0.3551
17166TIP3    H172913   6.431   0.625   0.383  0.4122 -0.0573 -1.3459
17166TIP3    H272914   6.331   0.654   0.273 -0.4338  0.6140 -0.4149
17167TIP3   OH272915   6.682   5.547   0.431 -0.3153 -0.2308  0.0978
17167TIP3    H172916   6.607   5.542   0.490 -1.9699  1.6289 -1.6923
17167TIP3    H272917   6.666   5.624   0.377  3.7203  1.2683  0.6397
17168TIP3   OH272918   6.310   5.461   1.635  0.5006  0.0060 -0.0144
17168TIP3    H172919   6.237   5.407   1.605  0.7072 -1.4041  1.7920
17168TIP3    H272920   6.370   5.398   1.677  2.3512  1.2319 -0.6846
17169TIP3   OH272921   2.039   4.704  15.255  0.4910  0.3659  0.2502
17169TIP3    H172922   1.968   4.640  15.253  1.2425 -0.4855 -1.6303
17169TIP3    H272923   2.112   4.658  15.295  0.2251  0.9910  1.4812
17170TIP3   OH272924   2.443   4.783   0.746 -0.1525 -0.4913 -0.0779
17170TIP3    H172925   2.535   4.776   0.769 -0.2224  1.6163  1.1591
17170TIP3    H272926   2.398   4.788   0.830 -1.3679 -1.0576 -0.6714
17171TIP3   OH272927   2.497   0.655  16.132  0.0973 -0.6555 -0.1979
17171TIP3    H172928   2.507   0.717  16.204 -0.1749 -0.6388 -0.1749
17171TIP3    H272929   2.536   0.574  16.165 -0.2544 -0.7192  0.0631
17172TIP3   OH272930   2.982   2.229  15.417  0.6978 -0.4327 -0.7883
17172TIP3    H172931   2.978   2.191  15.330  1.4702 -0.7442 -0.6903
17172TIP3    H272932   3.043   2.173  15.466  0.3014 -0.2452 -0.0579
17173TIP3   OH272933   4.468   5.113  16.094  0.2207  0.0101  0.1194
17173TIP3    H172934   4.409   5.118  16.169  1.0622  0.7764  0.7476
17173TIP3    H272935   4.521   5.035  16.110 -0.6511 -0.7232 -0.4837
17174TIP3   OH272936   0.864   6.679   4.257  0.2322  0.0718  0.2058
17174TIP3    H172937   0.837   6.625   4.183  0.9138 -1.4752  1.0550
17174TIP3    H272938   0.957   6.660   4.268  0.7023  2.0446  0.0462
17175TIP3   OH272939   5.681   2.646  12.945  0.2975  0.1672 -0.2004
17175TIP3    H172940   5.676   2.573  12.885  1.2656 -1.1768  1.2635
17175TIP3    H272941   5.714   2.608  13.027  0.4493  2.1574  0.7371
17176TIP3   OH272942   1.420   6.564  13.053 -0.7986 -0.0463 -0.3712
17176TIP3    H172943   1.411   6.584  13.147 -0.2738 -0.3889 -0.2452
17176TIP3    H272944   1.457   6.643  13.015 -2.3360  0.6224 -0.5427
17177TIP3   OH272945   1.064   6.759  16.439  0.1991  0.2767 -0.0071
17177TIP3    H172946   1.086   6.671  16.409  0.8821  0.6807 -0.7425
17177TIP3    H272947   1.106   6.765  16.526  1.0733  0.2395 -0.4149
17178TIP3   OH272948   5.270   6.229  15.315 -1.1078 -0.3816  0.0965
17178TIP3    H172949   5.332   6.162  15.286 -2.0186 -1.2350  0.0565
17178TIP3    H272950   5.266   6.219  15.410 -0.8858 -0.0544  0.1421
17179TIP3   OH272951   1.060   2.315   2.310  0.2012  0.1362  0.9121
17179TIP3    H172952   1.140   2.262   2.308 -0.1646 -0.6188  3.1393
17179TIP3    H272953   1.038   2.320   2.403 -1.6025  1.4819  0.4518
17180TIP3   OH272954   0.705   0.483   3.177  0.3910  0.4394 -0.7054
17180TIP3    H172955   0.693   0.456   3.085  1.1226 -0.8645 -0.4540
17180TIP3    H272956   0.665   0.412   3.227  0.0004  1.1476 -0.0067
17181TIP3   OH272957   5.659   5.655  13.824 -0.0892  0.1527 -0.3078
17181TIP3    H172958   5.737   5.679  13.774 -0.2927  1.3341 -0.1040
17181TIP3    H272959   5.586   5.686  13.770 -0.3634  0.1091  0.0330
17182TIP3   OH272960   5.695   4.075   4.302 -0.0718 -0.4036 -0.3367
17182TIP3    H172961   5.710   4.015   4.374 -1.0124 -0.7960 -0.4592
17182TIP3    H272962   5.661   4.155   4.344 -0.4052 -0.5529 -0.3167
17183TIP3   OH272963   3.324   2.252   2.574 -0.3730 -0.6838 -0.0228
17183TIP3    H172964   3.240   2.207   2.569  0.1117 -1.9810  2.2974
17183TIP3    H272965   3.314   2.316   2.644  0.1871  0.1263 -0.6504
17184TIP3   OH272966   1.493   4.724   3.614 -0.7956 -0.0705  0.3098
17184TIP3    H172967   1.465   4.742   3.524  0.8292 -2.8067 -0.8596
17184TIP3    H272968   1.437   4.652   3.643 -1.7633  1.2204  1.8184
17185TIP3   OH272969   0.382   0.141   5.026  0.4033 -0.2597 -0.4146
17185TIP3    H172970   0.314   0.161   5.090 -0.3106  0.2162 -1.2970
17185TIP3    H272971   0.418   0.227   5.003 -1.4406 -0.0495 -2.8887
17186TIP3   OH272972   1.099   3.871   3.414 -0.4798 -0.1893  0.1940
17186TIP3    H172973   1.107   3.841   3.323 -1.3200 -0.5901  0.2411
17186TIP3    H272974   1.187   3.864   3.450 -0.4935 -1.8750 -0.0319
17187TIP3   OH272975   3.670   3.836  14.729 -0.0484 -0.1146  0.5774
17187TIP3    H172976   3.642   3.861  14.817  0.5218  0.7961  0.5163
17187TIP3    H272977   3.753   3.883  14.717 -1.4012  1.9395 -1.4452
17188TIP3   OH272978   0.949   5.997  11.156  0.2585 -0.0800  0.2764
17188TIP3    H172979   0.908   5.940  11.091  0.1273  0.6947 -0.3387
17188TIP3    H272980   1.032   6.021  11.116  0.8934 -0.8530  1.0921
17189TIP3   OH272981   0.498   5.507  11.827  0.2610  0.2486  0.3545
17189TIP3    H172982   0.462   5.418  11.830  0.8983 -0.0130  0.3673
17189TIP3    H272983   0.554   5.508  11.750  1.4121  0.1807  1.1622
17190TIP3   OH272984   1.722   5.015  15.766 -0.1667 -0.3563  0.2181
17190TIP3    H172985   1.717   5.005  15.671  0.3150  0.2075  0.1264
17190TIP3    H272986   1.806   4.976  15.790  0.1670  0.3724  0.2781
17191TIP3   OH272987   6.158   4.453  13.638  0.1622  0.4170 -0.0694
17191TIP3    H172988   6.195   4.391  13.576  1.0593  0.0728  0.7875
17191TIP3    H272989   6.173   4.538  13.599  1.7307  0.2745  0.1834
17192TIP3   OH272990   1.025   2.826  17.348 -0.3099  0.3971 -0.2411
17192TIP3    H172991   1.043   2.822  17.442  0.7137  0.2302 -0.4302
17192TIP3    H272992   1.098   2.778  17.308 -0.7937  0.3743 -1.1156
17193TIP3   OH272993   3.691   2.171  15.210 -0.1494  0.0824  0.0712
17193TIP3    H172994   3.730   2.092  15.248  0.7970  0.4825 -0.0506
17193TIP3    H272995   3.754   2.199  15.144 -1.0621  0.2473 -0.7562
17194TIP3   OH272996   1.006   4.398   6.049 -0.9619  0.3555 -0.0862
17194TIP3    H172997   1.048   4.404   5.963 -0.9082  0.9172 -0.0235
17194TIP3    H272998   1.046   4.321   6.090  0.8047  1.4873  0.4025
17195TIP3   OH272999   3.153   6.471  11.528 -0.6636 -0.0585 -0.1674
17195TIP3    H173000   3.161   6.410  11.455  1.0891 -0.6802  0.4837
17195TIP3    H273001   3.136   6.556  11.487 -0.4126 -0.5143 -1.2519
17196TIP3   OH273002   2.502   0.950   5.683  0.2987  0.4591  0.2218
17196TIP3    H173003   2.511   0.975   5.775 -1.9477 -2.4360  1.3904
17196TIP3    H273004   2.560   0.874   5.673 -0.5978 -0.1704 -0.3117
17197TIP3   OH273005   1.153   2.127   1.013  0.2455 -0.6005 -0.3463
17197TIP3    H173006   1.182   2.039   1.037  1.6334  0.2290  1.1912
17197TIP3    H273007   1.222   2.162   0.958  0.7184  0.2566  0.7549
17198TIP3   OH273008   2.512   1.274   1.688 -0.3455 -0.2580 -0.0225
17198TIP3    H173009   2.521   1.251   1.780 -0.6060 -1.4132 -0.2651
17198TIP3    H273010   2.424   1.310   1.681  0.5383  2.2372  0.6161
17199TIP3   OH273011   5.915   3.197   0.940  0.1892 -0.2499 -0.0951
17199TIP3    H173012   5.929   3.286   0.907  1.9487 -0.8262 -1.0072
17199TIP3    H273013   5.827   3.199   0.978 -0.0659  1.6928 -0.6982
17200TIP3   OH273014   3.805   4.901  11.582 -0.9976  0.2099  0.0660
17200TIP3    H173015   3.755   4.827  11.548 -0.7127  0.9584 -2.1449
17200TIP3    H273016   3.768   4.977  11.537  0.8286  1.0123 -0.1479
17201TIP3   OH273017   1.699   5.698   0.335  0.2672  0.2901 -0.2639
17201TIP3    H173018   1.735   5.779   0.298  1.0484  0.8142  1.5120
17201TIP3    H273019   1.700   5.636   0.263 -0.4696  1.8871 -1.7121
17202TIP3   OH273020   1.260   5.124  11.925 -0.9141  0.5216  0.8319
17202TIP3    H173021   1.340   5.132  11.873 -0.9787  1.3382  0.8464
17202TIP3    H273022   1.245   5.029  11.931 -0.7958  0.4011 -0.4619
17203TIP3   OH273023   0.666   2.332   0.977 -0.0203 -0.0858  0.1986
17203TIP3    H173024   0.643   2.295   0.892  0.4297 -2.9334  1.1697
17203TIP3    H273025   0.749   2.289   0.999 -0.7056 -0.3680  2.5303
17204TIP3   OH273026   5.244   6.019  12.400  0.2568 -0.7028  0.3525
17204TIP3    H173027   5.266   5.926  12.390  0.0621 -0.5983 -1.2675
17204TIP3    H273028   5.153   6.026  12.371  0.2247 -0.0349  0.5924
17205TIP3   OH273029   6.407   1.750  12.614 -0.5539  0.1884  0.3626
17205TIP3    H173030   6.323   1.792  12.595 -1.0414 -1.1268 -0.5376
17205TIP3    H273031   6.395   1.658  12.589  0.8695 -0.2342  1.0764
17206TIP3   OH273032   5.181   3.664  15.081  0.4348  0.5675 -0.3252
17206TIP3    H173033   5.198   3.572  15.104 -0.2000  0.4220 -0.4464
17206TIP3    H273034   5.261   3.710  15.108  0.5810  0.0484  0.1375
17207TIP3   OH273035   5.380   4.596  12.470  0.3099 -0.1051  0.1179
17207TIP3    H173036   5.320   4.591  12.395  0.8246 -0.4517 -0.2844
17207TIP3    H273037   5.444   4.663  12.444  0.2465  0.0723  0.4261
17208TIP3   OH273038   4.856   3.538   3.033 -0.0236 -0.8398 -0.6129
17208TIP3    H173039   4.822   3.508   3.117  0.1113 -1.1196 -0.6569
17208TIP3    H273040   4.950   3.525   3.039 -0.0722 -1.3964 -1.0192
17209TIP3   OH273041   5.425   1.526  15.000  0.0633  0.4379  0.6228
17209TIP3    H173042   5.413   1.597  15.063  2.4727  2.7421 -1.2937
17209TIP3    H273043   5.514   1.537  14.968 -1.8950  2.0103 -5.8818
17210TIP3   OH273044   6.665   6.496  13.208  0.3290  0.0951  0.0196
17210TIP3    H173045   6.728   6.568  13.205 -0.9476  1.2830  0.9342
17210TIP3    H273046   6.682   6.447  13.127  0.0468  2.4264 -1.5559
17211TIP3   OH273047   2.339   3.939   5.796 -0.4086  0.4954 -0.2445
17211TIP3    H173048   2.386   3.981   5.867  1.4124 -0.5845 -0.7367
17211TIP3    H273049   2.339   3.846   5.819 -0.2583  0.1974 -1.3713
17212TIP3   OH273050   1.907   4.001  15.092  0.7591  0.4583  0.2428
17212TIP3    H173051   1.912   3.968  15.002  0.2561  2.4715 -0.5948
17212TIP3    H273052   1.814   3.995  15.114  0.7669  0.6896  0.3369
17213TIP3   OH273053   6.024   3.607   2.318 -0.0002  0.3368  0.2665
17213TIP3    H173054   5.974   3.531   2.289  0.5890 -0.8663  2.1870
17213TIP3    H273055   5.957   3.671   2.343 -0.5446 -0.1756  0.1594
17214TIP3   OH273056   5.743   6.283   2.395 -0.0554  0.3735  0.2826
17214TIP3    H173057   5.828   6.294   2.437 -0.0175 -0.4274  0.4281
17214TIP3    H273058   5.683   6.260   2.466 -0.0167 -0.8574 -0.0495
17215TIP3   OH273059   4.602   5.816  13.449 -0.2996  0.8338  0.0276
17215TIP3    H173060   4.563   5.744  13.399 -0.1195  0.8017 -0.0679
17215TIP3    H273061   4.603   5.889  13.388  0.5842  0.5975 -0.2556
17216TIP3   OH273062   0.452   4.088   0.184 -0.3177 -0.0067  0.1571
17216TIP3    H173063   0.384   4.101   0.251 -0.5546  1.7256 -0.3690
17216TIP3    H273064   0.519   4.152   0.205  0.5560 -0.7981 -0.1282
17217TIP3   OH273065   6.163   4.659  13.228 -0.0758 -0.0333  0.5914
17217TIP3    H173066   6.243   4.630  13.270 -0.0970  0.0537  0.6933
17217TIP3    H273067   6.191   4.728  13.167 -0.2559  1.1571  1.8000
17218TIP3   OH273068   0.238   3.009  17.251  0.4363 -0.5568  0.2291
17218TIP3    H173069   0.163   3.067  17.265  1.1828 -0.0077  2.4503
17218TIP3    H273070   0.227   2.940  17.316  1.4869 -0.8448  0.1214
17219TIP3   OH273071   3.713   2.199   4.351  0.5103 -0.2645  0.2525
17219TIP3    H173072   3.631   2.206   4.302  0.2534 -2.1097  0.3759
17219TIP3    H273073   3.751   2.287   4.345 -0.6357  0.1774 -1.2736
17220TIP3   OH273074   2.356   4.495   5.477  0.7305 -0.2215 -0.3426
17220TIP3    H173075   2.441   4.466   5.445  1.8664  0.3327  1.9539
17220TIP3    H273076   2.376   4.556   5.548 -1.5918  0.4668 -0.1846
17221TIP3   OH273077   0.930   0.958  14.212  0.5564 -0.0954  0.2392
17221TIP3    H173078   0.937   0.866  14.189  1.1117  0.3574 -1.5175
17221TIP3    H273079   0.836   0.975  14.214  0.4787 -0.3897 -0.7462
17222TIP3   OH273080   1.260   6.373   5.111  0.9825  0.3024 -0.0487
17222TIP3    H173081   1.247   6.447   5.051  2.5685  0.0463 -0.7832
17222TIP3    H273082   1.254   6.295   5.056  0.3397 -0.0684  0.5312
17223TIP3   OH273083   0.605   1.099   3.411 -0.0638 -0.5906 -0.0488
17223TIP3    H173084   0.679   1.156   3.388  0.5328 -1.8199 -1.2550
17223TIP3    H273085   0.622   1.075   3.502  1.6964 -1.8085 -0.6604
17224TIP3   OH273086   6.690   2.078   2.115 -0.0728 -0.0723  0.2346
17224TIP3    H173087   6.727   2.129   2.042 -1.0999  1.4215  0.7174
17224TIP3    H273088   6.761   2.020   2.141  0.4902 -0.3146 -1.6361
17225TIP3   OH273089   3.913   5.099   2.295  0.0729 -0.2058 -0.1783
17225TIP3    H173090   3.927   5.194   2.292 -0.2330  0.0983  3.5949
17225TIP3    H273091   3.996   5.062   2.264  0.7023  1.3015 -0.3901
17226TIP3   OH273092   4.019   2.087  16.865 -0.1627 -0.4654  0.4321
17226TIP3    H173093   3.997   2.163  16.811  2.2160 -0.5246 -0.7984
17226TIP3    H273094   4.084   2.121  16.927  1.4462 -1.5554 -0.5799
17227TIP3   OH273095   1.168   2.530  14.875 -0.1174 -0.0051 -0.5751
17227TIP3    H173096   1.195   2.566  14.959 -0.3663 -0.6784 -0.1941
17227TIP3    H273097   1.223   2.574  14.811  0.1965  0.3912 -0.0422
17228TIP3   OH273098   1.028   4.885   5.409  0.0213 -0.7338  0.1708
17228TIP3    H173099   1.008   4.871   5.502 -1.1547 -1.2265 -0.1403
17228TIP3    H273100   0.944   4.907   5.370  0.5470 -0.3223 -0.7469
17229TIP3   OH273101   3.220   6.492  17.365 -0.0491  0.3801  0.3213
17229TIP3    H173102   3.264   6.518  17.446 -1.2994 -1.5658  1.7194
17229TIP3    H273103   3.142   6.445  17.394 -1.0265  0.3902 -2.0432
17230TIP3   OH273104   2.447   1.688  12.767 -0.6472 -0.4343  0.1426
17230TIP3    H173105   2.367   1.635  12.762 -0.0036 -1.6700  2.0295
17230TIP3    H273106   2.495   1.667  12.687 -0.1799 -3.1765  1.0516
17231TIP3   OH273107   1.357   2.700   2.210  0.4349 -0.0482 -0.2026
17231TIP3    H173108   1.413   2.625   2.228  1.5896  0.9033  0.3209
17231TIP3    H273109   1.279   2.685   2.263 -0.0151 -1.5857 -1.2399
17232TIP3   OH273110   4.181   0.581   5.462 -0.5563 -0.2174 -0.4797
17232TIP3    H173111   4.234   0.661   5.464 -0.3162 -0.3815  0.0728
17232TIP3    H273112   4.185   0.552   5.371  1.1036 -0.7454 -0.2736
17233TIP3   OH273113   3.128   4.639  11.315  0.2480  0.1527  0.0490
17233TIP3    H173114   3.149   4.649  11.222  2.2004  0.1560  0.4407
17233TIP3    H273115   3.118   4.729  11.347 -2.1421  0.1242 -0.4607
17234TIP3   OH273116   0.825   0.140   1.407 -0.1106  0.0151 -0.4629
17234TIP3    H173117   0.841   0.175   1.495 -0.8731  1.7399 -0.9748
17234TIP3    H273118   0.894   0.176   1.353 -0.6376  0.3775 -0.9100
17235TIP3   OH273119   5.474   4.209   1.576 -0.0963  0.4228  0.0308
17235TIP3    H173120   5.439   4.288   1.534 -1.0531 -0.3719 -0.6890
17235TIP3    H273121   5.536   4.174   1.512  0.8448  0.9460  0.6355
17236TIP3   OH273122   4.488   2.734  15.363 -0.3472  0.3836 -0.1659
17236TIP3    H173123   4.451   2.646  15.378  1.3098 -0.1529  1.1286
17236TIP3    H273124   4.565   2.718  15.309 -1.4915  1.3936 -2.1841
17237TIP3   OH273125   1.091   4.598  14.115 -0.5622  0.2984 -0.2046
17237TIP3    H173126   1.024   4.625  14.052 -1.6864  0.0764  0.8757
17237TIP3    H273127   1.151   4.672  14.120 -1.5460  1.0938 -0.0844
17238TIP3   OH273128   2.362   2.540   1.220  0.4314  0.0434  0.0018
17238TIP3    H173129   2.389   2.479   1.289  1.5631  2.4494  1.8522
17238TIP3    H273130   2.266   2.543   1.227  0.5214  0.2064  1.4851
17239TIP3   OH273131   0.686   1.989   5.569 -0.6632 -0.3795 -0.0372
17239TIP3    H173132   0.694   1.991   5.664 -0.9239 -0.2754 -0.0182
17239TIP3    H273133   0.647   2.073   5.546 -3.9440 -1.7401  0.0720
17240TIP3   OH273134   3.218   4.626  11.828 -0.6514 -0.2565  0.4881
17240TIP3    H173135   3.212   4.535  11.855 -1.3579 -0.2288  0.4456
17240TIP3    H273136   3.237   4.622  11.734  2.6487 -0.3595  1.0271
17241TIP3   OH273137   1.238   2.434   5.693 -0.6047 -0.2739 -0.5764
17241TIP3    H173138   1.325   2.394   5.695 -0.5442 -0.1636 -0.9193
17241TIP3    H273139   1.181   2.368   5.731 -0.1759  0.1614  0.8705
17242TIP3   OH273140   1.177   3.202   0.019 -0.4018  0.4300  0.0811
17242TIP3    H173141   1.094   3.199  -0.029 -0.7020  1.3214  0.5130
17242TIP3    H273142   1.167   3.138   0.089 -0.4538  0.0286 -0.2939
17243TIP3   OH273143   6.428   1.798  10.826 -0.0207  0.3110  0.4696
17243TIP3    H173144   6.342   1.766  10.852  0.4425 -0.0031  1.6645
17243TIP3    H273145   6.469   1.828  10.907  0.0965  2.7232 -0.3766
17244TIP3   OH273146   1.378   3.253   0.640  0.1677 -0.3368 -0.2707
17244TIP3    H173147   1.337   3.182   0.689  1.5608 -0.4312  0.8300
17244TIP3    H273148   1.448   3.210   0.589 -1.0412 -0.1918 -2.1386
17245TIP3   OH273149   2.635   0.463   4.409  0.5294 -0.1131 -0.3702
17245TIP3    H173150   2.706   0.409   4.374  0.1612 -0.3398 -0.7736
17245TIP3    H273151   2.578   0.479   4.334 -0.4755 -0.9308  0.1945
17246TIP3   OH273152   2.833   5.941  15.377  0.0359 -0.5165 -0.0884
17246TIP3    H173153   2.756   5.920  15.324 -0.6525  3.1848 -0.8226
17246TIP3    H273154   2.799   5.979  15.457  1.0925 -0.6878  0.4668
17247TIP3   OH273155   6.475   1.720   6.146 -0.4727 -0.1732 -0.0911
17247TIP3    H173156   6.419   1.741   6.071 -0.4655 -0.1828 -0.0991
17247TIP3    H273157   6.564   1.720   6.111 -0.3435  1.0957  0.1781
17248TIP3   OH273158   6.387   6.526  12.827  0.1466  0.0985 -0.0913
17248TIP3    H173159   6.367   6.619  12.840 -1.5900  0.3581 -3.4342
17248TIP3    H273160   6.315   6.480  12.869 -1.9477  0.6077 -2.8511
17249TIP3   OH273161   6.485   0.995  12.393  0.8921 -0.2322 -0.1937
17249TIP3    H173162   6.468   1.087  12.416  1.3735  0.4703 -2.3627
17249TIP3    H273163   6.539   0.962  12.465 -3.8733 -0.6439  3.6399
17250TIP3   OH273164   4.140   1.517  16.785 -0.6375 -0.6251  0.1950
17250TIP3    H173165   4.227   1.556  16.796 -1.0075 -0.0664  1.3217
17250TIP3    H273166   4.110   1.551  16.700 -2.0654  3.9905  2.2388
17251TIP3   OH273167   4.530   6.186  12.210  0.0128  0.0169 -0.1086
17251TIP3    H173168   4.602   6.133  12.245  0.6264  2.1623  2.2160
17251TIP3    H273169   4.560   6.212  12.123  0.9397 -1.0784 -0.1501
17252TIP3   OH273170   2.029   0.429   3.180 -0.5512 -0.0761  0.1596
17252TIP3    H173171   1.976   0.487   3.125 -0.8552 -1.1496 -0.7147
17252TIP3    H273172   1.989   0.436   3.267 -0.3955  1.2310  0.1506
17253TIP3   OH273173   5.490   1.825   0.609 -0.0806  0.5568 -0.7540
17253TIP3    H173174   5.569   1.874   0.585  2.1196 -1.4588  1.7863
17253TIP3    H273175   5.505   1.736   0.575 -2.2315  0.5609 -1.9338
17254TIP3   OH273176   3.710   2.119   4.614  0.3334  0.4751  0.7713
17254TIP3    H173177   3.779   2.167   4.660 -0.6494  1.4582  1.2602
17254TIP3    H273178   3.721   2.143   4.522  1.1738 -0.0667  0.7197
17255TIP3   OH273179   2.649   1.180  14.332 -0.2136  0.0992 -0.0728
17255TIP3    H173180   2.658   1.085  14.319  0.5197 -0.3577  2.9434
17255TIP3    H273181   2.736   1.215  14.317 -0.7403  0.5518 -2.4009
17256TIP3   OH273182   4.233   2.982  16.777  0.2408 -0.1449 -0.4365
17256TIP3    H173183   4.170   2.959  16.846  0.5208  0.4949  0.0394
17256TIP3    H273184   4.202   2.935  16.700 -0.4789 -0.3128 -0.0525
17257TIP3   OH273185   3.826   1.799  14.327 -0.0877  0.9389 -0.3302
17257TIP3    H173186   3.769   1.844  14.390  0.0954 -0.4190  0.8360
17257TIP3    H273187   3.856   1.869  14.269 -0.2239  2.2406  1.1003
17258TIP3   OH273188   6.455   0.629  13.201  0.1699 -0.5316 -0.2826
17258TIP3    H173189   6.453   0.534  13.189  0.0476 -0.2820 -2.8043
17258TIP3    H273190   6.513   0.661  13.131 -0.5217  1.3119 -0.0810
17259TIP3   OH273191   2.309   3.730  15.776  0.1368 -0.0966 -0.1992
17259TIP3    H173192   2.286   3.815  15.739 -1.2054  0.0231  0.8619
17259TIP3    H273193   2.404   3.732  15.784  0.1138  1.3091 -0.1586
17260TIP3   OH273194   0.750   5.881  13.419  0.5201 -0.5333 -0.7652
17260TIP3    H173195   0.781   5.812  13.476  0.7579  0.5862  0.5123
17260TIP3    H273196   0.824   5.942  13.414 -0.3304  0.5625 -0.3160
17261TIP3   OH273197   3.964   1.307   0.030 -1.2775 -0.8632  0.5688
17261TIP3    H173198   4.043   1.253   0.022 -0.8784 -0.1574 -0.6083
17261TIP3    H273199   3.895   1.245   0.055 -0.4878 -1.6022  0.9802
17262TIP3   OH273200   3.421   4.264   4.615 -0.8482 -0.1342 -0.0251
17262TIP3    H173201   3.355   4.241   4.680  1.1429 -2.1942  1.4644
17262TIP3    H273202   3.464   4.342   4.652 -0.5260 -0.5724  0.5484
17263TIP3   OH273203   4.007   1.129   2.084  0.2969  0.2523  0.9024
17263TIP3    H173204   3.996   1.180   2.164 -3.0372  0.6620  0.3096
17263TIP3    H273205   4.002   1.194   2.014 -1.1956 -0.5362  0.2361
17264TIP3   OH273206   4.222   3.808  15.751 -0.2068  0.8604  0.1217
17264TIP3    H173207   4.317   3.807  15.759  0.0464 -0.3740 -2.2549
17264TIP3    H273208   4.196   3.716  15.758 -1.1563  1.1093  0.0435
17265TIP3   OH273209   4.271   0.186  15.163 -0.0327 -0.4269 -0.1969
17265TIP3    H173210   4.239   0.103  15.199  1.4130 -1.4109 -1.1092
17265TIP3    H273211   4.364   0.172  15.148  0.3715  1.5566  0.1071
17266TIP3   OH273212   4.101   0.148  16.064 -0.0207 -0.8347  0.3112
17266TIP3    H173213   4.165   0.093  16.020  1.1954  0.5099  0.3337
17266TIP3    H273214   4.017   0.105  16.048  0.5950 -1.3309 -1.8066
17267TIP3   OH273215   0.554   3.652  15.046 -0.2381  0.2515  0.3919
17267TIP3    H173216   0.486   3.711  15.013  0.7810  2.1043  1.4544
17267TIP3    H273217   0.506   3.582  15.088 -1.5132 -0.2258 -1.6878
17268TIP3   OH273218   4.039   3.019  12.384 -0.1936  0.1670 -0.1664
17268TIP3    H173219   4.132   3.041  12.382 -0.0210 -0.4788  0.5743
17268TIP3    H273220   4.010   3.048  12.471 -1.1798  2.3001 -1.1308
17269TIP3   OH273221   2.065   2.671  13.973  0.7969 -0.1910 -0.6998
17269TIP3    H173222   1.977   2.641  13.993  1.3199 -2.0793 -1.0544
17269TIP3    H273223   2.056   2.766  13.959 -1.1429 -0.3426 -0.6602
17270TIP3   OH273224   5.530   5.719   4.321  0.2217  0.5588 -0.3831
17270TIP3    H173225   5.505   5.653   4.385 -2.3393  0.3121 -1.5190
17270TIP3    H273226   5.537   5.801   4.371 -3.0423  0.6492  0.1502
17271TIP3   OH273227   3.060   1.434  10.799 -0.0945  0.3597 -0.1142
17271TIP3    H173228   3.048   1.497  10.728  0.3906 -0.0438 -0.5655
17271TIP3    H273229   2.976   1.389  10.806 -0.4712  1.1090  0.2698
17272TIP3   OH273230   1.910   2.004  14.992 -0.0642  0.2640  0.4125
17272TIP3    H173231   1.976   2.023  15.058  0.9072 -0.7875 -0.2207
17272TIP3    H273232   1.866   1.926  15.025 -1.7652  1.5516  1.3577
17273TIP3   OH273233   5.447   0.800   5.466  0.0734  0.6857  0.7379
17273TIP3    H173234   5.509   0.859   5.422  1.3276 -0.9878  0.1374
17273TIP3    H273235   5.361   0.831   5.437  0.7054  1.8820  0.0222
17274TIP3   OH273236   1.277   6.405  14.050 -0.9755  0.2062 -1.0239
17274TIP3    H173237   1.243   6.321  14.018 -1.0545  0.7117 -2.2814
17274TIP3    H273238   1.324   6.443  13.976 -0.4093  1.0065 -0.2818
17275TIP3   OH273239   6.136   5.614  16.381  0.5194 -1.0238 -0.0879
17275TIP3    H173240   6.122   5.600  16.287 -1.3070 -1.8759  0.2761
17275TIP3    H273241   6.229   5.635  16.388  1.0975 -2.6652 -1.9118
17276TIP3   OH273242   4.985   1.882   5.801  0.1917 -0.3295 -0.5951
17276TIP3    H173243   4.980   1.961   5.855  1.7300 -0.8851  0.4413
17276TIP3    H273244   4.908   1.886   5.744 -0.8552  0.8869  0.8276
17277TIP3   OH273245   0.581   4.597   4.677  1.1188  0.1404  0.6972
17277TIP3    H173246   0.556   4.511   4.711 -0.3936 -0.0625 -0.7375
17277TIP3    H273247   0.526   4.659   4.725 -0.5121 -0.0868 -0.7322
17278TIP3   OH273248   5.213   1.714  17.280 -0.4137  0.5473 -0.6987
17278TIP3    H173249   5.297   1.733  17.320 -1.0526  3.1578 -0.3718
17278TIP3    H273250   5.153   1.778  17.318 -2.6286 -1.3579 -0.7468
17279TIP3   OH273251   5.610   0.326   5.374 -0.3218 -0.3919  0.3189
17279TIP3    H173252   5.606   0.265   5.447  0.5124 -0.7872  0.0397
17279TIP3    H273253   5.551   0.398   5.400 -1.1643 -1.2059  0.7266
17280TIP3   OH273254   0.964   5.773   3.950 -1.0945  0.0885  0.7077
17280TIP3    H173255   1.029   5.756   3.882 -0.9494 -0.1101  0.8950
17280TIP3    H273256   0.880   5.759   3.907 -1.0433  0.9296  0.2963
17281TIP3   OH273257   4.126   4.977   5.701 -0.6140  0.0032 -0.1994
17281TIP3    H173258   4.149   4.945   5.614 -0.1849 -0.3247  0.0288
17281TIP3    H273259   4.043   4.935   5.722 -0.2560 -0.6535 -0.0684
17282TIP3   OH273260   4.092   1.463   5.195  0.2035 -0.1452  0.7211
17282TIP3    H173261   4.108   1.377   5.233 -0.7128  0.0889  1.6708
17282TIP3    H273262   4.128   1.525   5.259 -1.8427  0.2734  1.5448
17283TIP3   OH273263   0.196   1.874  13.411 -0.5117 -0.0452 -0.3988
17283TIP3    H173264   0.219   1.804  13.473 -2.4724 -1.2796 -0.9859
17283TIP3    H273265   0.207   1.955  13.461  1.0596 -0.7931  0.5407
17284TIP3   OH273266   5.518   0.744   6.109 -1.0226 -0.4794  0.6440
17284TIP3    H173267   5.471   0.793   6.176 -0.0760  0.6562  0.5158
17284TIP3    H273268   5.610   0.768   6.121 -0.6481 -1.4395 -0.0966
17285TIP3   OH273269   5.955   3.176   5.839  0.4157 -0.2499 -0.2264
17285TIP3    H173270   5.921   3.124   5.911 -2.8061  2.3645  0.3950
17285TIP3    H273271   5.942   3.121   5.762 -1.5552 -0.9599  0.5351
17286TIP3   OH273272   1.449   5.649   3.710 -0.0787  0.1492 -0.2190
17286TIP3    H173273   1.434   5.571   3.764  0.4098 -1.0957 -1.7950
17286TIP3    H273274   1.540   5.674   3.729  0.7662 -1.4683 -1.8198
17287TIP3   OH273275   0.928   5.248  12.373 -0.1823 -0.4198 -0.5950
17287TIP3    H173276   0.873   5.289  12.441 -0.2228 -0.6138 -0.5118
17287TIP3    H273277   1.018   5.267  12.400 -0.1079 -2.4237  0.7341
17288TIP3   OH273278   4.295   0.133  12.359 -0.1622 -0.1019  0.5620
17288TIP3    H173279   4.275   0.225  12.375 -1.8344 -0.1184 -1.0302
17288TIP3    H273280   4.218   0.086  12.390  0.7366 -1.0139  1.4952
17289TIP3   OH273281   4.671   4.802  12.376  0.5209 -0.1295  0.4869
17289TIP3    H173282   4.596   4.767  12.328  0.5651  1.4250 -0.8237
17289TIP3    H273283   4.737   4.817  12.308  1.8264 -0.9329  1.5346
17290TIP3   OH273284   6.490   6.543  11.910 -0.2128  0.5835 -0.3580
17290TIP3    H173285   6.466   6.472  11.969  0.6060  0.5475 -0.0703
17290TIP3    H273286   6.532   6.500  11.836  0.9089  0.8155  0.1339
17291TIP3   OH273287   3.471   3.521  17.138 -0.1186 -0.1916 -0.1496
17291TIP3    H173288   3.412   3.567  17.198  0.6471 -0.3016  0.7004
17291TIP3    H273289   3.454   3.562  17.053 -0.7487  0.4178  0.2535
17292TIP3   OH273290   6.030   0.160   0.344  0.1032  0.1673 -0.1126
17292TIP3    H173291   6.017   0.083   0.289 -0.7332 -0.4539  0.9343
17292TIP3    H273292   6.022   0.234   0.283  0.8734 -0.5485 -1.1196
17293TIP3   OH273293   6.706   0.515  17.277 -0.2321 -0.0865 -0.2686
17293TIP3    H173294   6.671   0.521  17.188 -1.9614 -1.1770  0.2730
17293TIP3    H273295   6.694   0.423  17.301  2.4318 -0.3506  0.2676
17294TIP3   OH273296   3.128   2.829  11.986 -0.0038 -0.4432  0.4553
17294TIP3    H173297   3.091   2.917  11.985  1.1775  0.0768  0.3192
17294TIP3    H273298   3.077   2.781  11.921  0.5121  0.6607 -0.8239
17295TIP3   OH273299   3.659   3.645   0.535 -0.0338 -0.3424  0.0790
17295TIP3    H173300   3.713   3.631   0.457  1.5917  0.7007  0.9706
17295TIP3    H273301   3.704   3.714   0.583 -0.8098 -1.1966  2.1195
17296TIP3   OH273302   2.781   0.081  13.183 -0.0827  0.6926 -0.4452
17296TIP3    H173303   2.845   0.108  13.117  1.0270  1.5954  0.9319
17296TIP3    H273304   2.823   0.007  13.227 -0.5839  0.4251 -0.4200
17297TIP3   OH273305   3.451   4.668  12.750  0.1813  0.4597 -0.1461
17297TIP3    H173306   3.435   4.723  12.673  0.8857 -0.6541 -1.1136
17297TIP3    H273307   3.523   4.611  12.724 -0.3080 -0.6887  0.9475
17298TIP3   OH273308   6.377   3.528   1.522  0.0304 -0.4523  0.3561
17298TIP3    H173309   6.393   3.433   1.517  0.7742 -0.2825 -0.6553
17298TIP3    H273310   6.335   3.540   1.607 -0.2982 -1.7238  0.3954
17299TIP3   OH273311   2.359   0.128   0.784  0.3406  0.2009 -0.0267
17299TIP3    H173312   2.335   0.059   0.846  0.3186  1.2575  1.1615
17299TIP3    H273313   2.278   0.178   0.771  1.1566  2.2194  2.0077
17300TIP3   OH273314   5.048   1.378   3.335 -0.5463 -0.2347  0.0062
17300TIP3    H173315   5.129   1.342   3.372 -1.4068 -1.5548  0.6676
17300TIP3    H273316   5.046   1.469   3.366  0.0532 -0.5534  1.0121
17301TIP3   OH273317   3.190   6.384  12.423  0.1045  0.3756  1.9013
17301TIP3    H173318   3.157   6.474  12.421 -0.7142  0.0691  0.9980
17301TIP3    H273319   3.113   6.329  12.436  0.3778 -0.2776  0.9577
17302TIP3   OH273320   5.240   5.321   1.612 -0.6280 -0.4542  0.2772
17302TIP3    H173321   5.230   5.289   1.522  0.4177 -2.0042  0.6873
17302TIP3    H273322   5.322   5.370   1.610 -0.2002 -1.1526  0.5605
17303TIP3   OH273323   6.469   3.462  15.942  0.3378  0.0466 -0.0818
17303TIP3    H173324   6.526   3.509  16.003  1.2492 -0.5007 -0.4826
17303TIP3    H273325   6.393   3.437  15.994  2.0643 -2.3362  1.4665
17304TIP3   OH273326   4.348   3.422  12.780  0.0354  0.5478  0.2096
17304TIP3    H173327   4.314   3.496  12.830 -1.4746  0.0252 -0.0021
17304TIP3    H273328   4.427   3.397  12.827 -1.2848  0.1162  2.3497
17305TIP3   OH273329   4.615   2.127   6.050 -0.1733  0.1447 -0.1745
17305TIP3    H173330   4.612   2.219   6.026 -0.5625  0.5569  1.3432
17305TIP3    H273331   4.647   2.127   6.140  1.0315 -1.2936 -0.5623
17306TIP3   OH273332   6.326   0.039   4.430 -0.0146  0.6141 -0.3885
17306TIP3    H173333   6.308   0.018   4.522 -0.5838 -1.8213 -0.9950
17306TIP3    H273334   6.240   0.053   4.391  0.2724  3.2280 -0.3156
17307TIP3   OH273335   3.307   5.397   3.987 -0.5344  0.1547  0.2267
17307TIP3    H173336   3.212   5.413   3.987 -0.3655  1.3039 -0.6114
17307TIP3    H273337   3.345   5.480   4.017  0.2872  0.5129 -1.6631
17308TIP3   OH273338   6.558   4.766  12.192  0.0552 -0.1189 -0.5297
17308TIP3    H173339   6.561   4.719  12.275  2.8018  0.8136 -0.0132
17308TIP3    H273340   6.621   4.720  12.136  0.8714  1.3589 -0.8711
17309TIP3   OH273341   1.764   4.437  11.873 -0.2005 -0.3208  0.0569
17309TIP3    H173342   1.813   4.464  11.951 -0.6332 -0.3376  0.3395
17309TIP3    H273343   1.693   4.501  11.867 -0.2415 -0.3968 -0.2499
17310TIP3   OH273344   6.245   6.147  16.917  0.4516 -0.3410  0.1004
17310TIP3    H173345   6.180   6.185  16.977  0.4136 -0.2289 -0.0097
17310TIP3    H273346   6.329   6.170  16.955  0.4438  0.6236 -0.4209
17311TIP3   OH273347   5.653   5.934  17.095  0.1184 -0.2624 -0.6494
17311TIP3    H173348   5.582   5.875  17.072  0.6713 -1.4413  0.5145
17311TIP3    H273349   5.697   5.891  17.169 -0.3543  2.2860  1.2440
17312TIP3   OH273350   5.113   1.239   4.996  0.5003  0.3244  0.7871
17312TIP3    H173351   5.186   1.225   5.056  0.5258  0.3364  0.7585
17312TIP3    H273352   5.065   1.156   4.995  0.0666  0.5608  1.4070
17313TIP3   OH273353   3.752   5.192   0.255  0.2213 -0.3689  0.3755
17313TIP3    H173354   3.800   5.147   0.325  0.8465 -0.2638  0.0215
17313TIP3    H273355   3.673   5.140   0.242 -0.0803 -0.1971  1.4048
17314TIP3   OH273356   2.824   6.230   1.630 -0.2037 -0.2655  0.5666
17314TIP3    H173357   2.915   6.258   1.644 -0.1973 -1.0471  2.3973
17314TIP3    H273358   2.827   6.179   1.549  0.6554  1.0641 -0.2785
17315TIP3   OH273359   6.609   1.648   5.504  0.0849 -0.4111 -0.3757
17315TIP3    H173360   6.589   1.562   5.467  0.6857 -1.4939  1.6324
17315TIP3    H273361   6.559   1.650   5.586  0.0280  1.1911 -0.4291
17316TIP3   OH273362   2.010   1.865   3.362 -0.7374  0.3496  0.2958
17316TIP3    H173363   1.999   1.779   3.403  0.4185 -0.2671 -0.6392
17316TIP3    H273364   1.921   1.900   3.354 -1.3464 -1.3103 -0.4826
17317TIP3   OH273365   2.566   2.069   0.902  0.6082  0.3873  0.0229
17317TIP3    H173366   2.543   2.084   0.810  2.3722  0.0441 -0.4994
17317TIP3    H273367   2.614   2.148   0.928 -0.2002  0.6475  0.7885
17318TIP3   OH273368   0.334   6.650  17.034 -0.1682  0.2460 -0.1474
17318TIP3    H173369   0.420   6.629  16.996  0.5248  1.3372  0.7522
17318TIP3    H273370   0.354   6.677  17.124 -1.2126  2.3034 -0.4764
17319TIP3   OH273371   1.921   1.663  14.373  0.2832  0.1083 -0.8462
17319TIP3    H173372   1.854   1.631  14.434  1.1676 -4.3411 -1.8664
17319TIP3    H273373   1.951   1.745  14.412 -3.1136  0.4121  1.5833
17320TIP3   OH273374   3.092   3.784   6.268  0.3204  0.2904  0.0908
17320TIP3    H173375   3.032   3.730   6.318  1.9944  0.7290  2.7559
17320TIP3    H273376   3.096   3.867   6.315  2.1654  0.6405 -0.5724
17321TIP3   OH273377   3.707   1.547   6.333 -0.1182  0.1827  0.1568
17321TIP3    H173378   3.680   1.577   6.420 -1.7611  2.5658 -1.0573
17321TIP3    H273379   3.630   1.500   6.300  1.5316 -3.5090  1.0128
17322TIP3   OH273380   5.384   2.283   5.801 -0.3058 -0.2919 -0.3670
17322TIP3    H173381   5.474   2.275   5.771 -0.0150 -1.3579  0.7222
17322TIP3    H273382   5.333   2.292   5.721  0.9790  3.3105 -0.9270
17323TIP3   OH273383   1.646   1.659   2.348 -0.1329 -0.3055  0.2813
17323TIP3    H173384   1.655   1.620   2.435 -0.4643 -1.3538 -0.1427
17323TIP3    H273385   1.558   1.635   2.319 -0.4613  1.0069  0.1133
17324TIP3   OH273386   3.749   0.736   2.674 -0.2692 -0.1388 -0.0945
17324TIP3    H173387   3.746   0.795   2.749 -1.1220 -1.8303  1.2997
17324TIP3    H273388   3.842   0.725   2.656  0.0373 -0.6964  1.6095
17325TIP3   OH273389   5.636   3.476   4.812 -0.5418  0.2667  0.0722
17325TIP3    H173390   5.674   3.388   4.811 -1.5194 -0.1836  0.8684
17325TIP3    H273391   5.577   3.478   4.737  0.7481  0.8552 -0.9698
17326TIP3   OH273392   6.001   2.807  11.630  0.4404  0.7477 -0.1288
17326TIP3    H173393   5.986   2.848  11.545 -1.1621  2.0770  0.7441
17326TIP3    H273394   5.913   2.791  11.665  1.0592  0.7712  1.5223
17327TIP3   OH273395   1.148   1.477  11.564 -0.3560  0.5113  1.0032
17327TIP3    H173396   1.075   1.537  11.571 -0.8120  0.3000 -1.3087
17327TIP3    H273397   1.170   1.475  11.471  2.2285  0.1223  1.5381
17328TIP3   OH273398   6.052   3.958   1.374 -0.6974  0.0880 -0.2235
17328TIP3    H173399   6.059   4.053   1.367 -1.5246  0.0376 -3.5084
17328TIP3    H273400   6.131   3.925   1.331  0.3697 -0.8304  2.2313
17329TIP3   OH273401   6.399   4.696  13.987 -0.5239 -0.0140  0.5460
17329TIP3    H173402   6.398   4.604  13.960 -1.1623 -0.0529  0.6983
17329TIP3    H273403   6.467   4.700  14.054 -1.1898 -0.5906  1.2723
17330TIP3   OH273404   1.635   5.982   2.916 -0.7964  0.1643  0.2957
17330TIP3    H173405   1.649   5.960   2.824 -1.4482  1.8124 -0.2185
17330TIP3    H273406   1.687   5.917   2.964  0.9091  0.2972 -1.2654
17331TIP3   OH273407   1.273   5.474  13.279 -0.3122 -0.5227 -0.5903
17331TIP3    H173408   1.206   5.517  13.332  1.1564  0.1611  0.7733
17331TIP3    H273409   1.224   5.435  13.207 -2.3487 -1.2098  1.0611
17332TIP3   OH273410   0.499   5.627   4.446 -0.0464  0.0755 -0.0771
17332TIP3    H173411   0.494   5.575   4.526  3.1772  0.3861  0.4674
17332TIP3    H273412   0.474   5.567   4.376  0.6880 -1.3303  0.8255
17333TIP3   OH273413   2.186   0.915   5.951  0.0447  0.5503 -0.0048
17333TIP3    H173414   2.137   0.838   5.982 -1.0332  1.2013 -0.0251
17333TIP3    H273415   2.268   0.912   5.999 -0.7058  0.3413  1.3013
17334TIP3   OH273416   1.158   1.295  16.512 -0.1055  0.1664 -0.5549
17334TIP3    H173417   1.192   1.208  16.532 -0.6372  0.0454 -0.1683
17334TIP3    H273418   1.088   1.309  16.575  0.9468  1.4968  0.3968
17335TIP3   OH273419   5.048   0.201   2.819 -0.0866 -0.1783  0.3540
17335TIP3    H173420   5.005   0.242   2.744 -0.6521  1.1130  1.3367
17335TIP3    H273421   5.140   0.230   2.813 -0.5762  1.8093  1.3207
17336TIP3   OH273422   1.601   3.393  16.310  0.3596 -0.0620  0.6105
17336TIP3    H173423   1.674   3.388  16.372  0.4042 -1.2344  0.4846
17336TIP3    H273424   1.611   3.479  16.269  0.3229  0.7436  2.2132
17337TIP3   OH273425   6.683   0.588  15.424  0.7326  0.0797 -0.3502
17337TIP3    H173426   6.618   0.644  15.381  0.0230 -0.4145  0.0654
17337TIP3    H273427   6.732   0.549  15.351 -0.7604 -1.1021 -0.7603
17338TIP3   OH273428   3.223   3.908  15.018 -0.3102 -0.2581 -0.5100
17338TIP3    H173429   3.261   3.938  14.935 -0.7198  0.4941 -0.4276
17338TIP3    H273430   3.132   3.938  15.015 -0.5086 -0.8014 -0.0691
17339TIP3   OH273431   2.701   6.494  16.272 -0.6328 -0.1507  0.3900
17339TIP3    H173432   2.702   6.416  16.328 -1.8924  0.1496  0.8757
17339TIP3    H273433   2.715   6.567  16.333  0.9044  0.0095 -0.1092
17340TIP3   OH273434   0.115   0.725  15.574  0.3119 -0.3543  0.4864
17340TIP3    H173435   0.088   0.780  15.647 -0.8471 -1.7677  1.1666
17340TIP3    H273436   0.034   0.684  15.543  0.8201 -0.0303 -1.4114
17341TIP3   OH273437   6.181   5.609   1.850  0.2089  0.2774 -0.0035
17341TIP3    H173438   6.227   5.693   1.857  1.5225 -0.4695  0.8711
17341TIP3    H273439   6.234   5.558   1.788  0.2495 -0.3928  0.5657
17342TIP3   OH273440   3.010   3.715  11.434 -0.3892  0.3347 -0.1438
17342TIP3    H173441   2.935   3.761  11.472  0.1684  0.8511  0.3615
17342TIP3    H273442   3.083   3.776  11.445  0.5586 -0.9863  1.3124
17343TIP3   OH273443   3.013   3.865  13.471 -0.5040  0.5129 -0.8765
17343TIP3    H173444   2.978   3.832  13.388  0.5949  1.8112 -1.9054
17343TIP3    H273445   3.082   3.926  13.445 -0.1495  0.9671  1.0068
17344TIP3   OH273446   2.132   0.624   0.530 -0.1390 -0.2269 -0.0285
17344TIP3    H173447   2.069   0.693   0.550 -0.0991 -0.3768  0.6197
17344TIP3    H273448   2.078   0.548   0.508 -0.1993 -0.5220  1.0901
17345TIP3   OH273449   1.178   5.065  15.728  0.0153  0.0454  0.0502
17345TIP3    H173450   1.109   5.109  15.678 -0.0933  0.0586  0.2129
17345TIP3    H273451   1.257   5.080  15.677  0.0272  0.6568  0.2427
17346TIP3   OH273452   6.163   3.551   4.789  0.6079  0.6168  0.2250
17346TIP3    H173453   6.253   3.554   4.757 -0.0061  2.2333 -1.5307
17346TIP3    H273454   6.118   3.493   4.727  0.3324  0.1403  0.8590
17347TIP3   OH273455   3.939   4.967  13.011 -0.1233  0.5649 -0.1914
17347TIP3    H173456   4.009   4.902  13.009 -0.2547  0.4307 -0.3285
17347TIP3    H273457   3.962   5.029  12.942 -0.3213  0.3378 -0.4590
17348TIP3   OH273458   4.993   3.986  15.428 -0.4141  0.7552 -0.0270
17348TIP3    H173459   4.908   3.978  15.385 -0.2342  0.6483 -0.3637
17348TIP3    H273460   5.019   3.895  15.445  0.4266  0.7005 -1.4916
17349TIP3   OH273461   2.891   1.309  17.329  0.1441 -0.4100 -0.0163
17349TIP3    H173462   2.857   1.385  17.377 -0.8421 -1.2768  0.7192
17349TIP3    H273463   2.924   1.345  17.247  0.8343  0.9717  0.8200
17350TIP3   OH273464   2.644   3.680   4.827 -0.0991 -0.2338  0.5640
17350TIP3    H173465   2.570   3.639   4.873  0.0924 -1.7492 -0.3962
17350TIP3    H273466   2.720   3.661   4.883  0.1022 -1.9052 -0.2060
17351TIP3   OH273467   4.379   1.749  11.930  0.1912 -0.5948  0.1194
17351TIP3    H173468   4.328   1.671  11.908  0.9668 -1.6881  1.9497
17351TIP3    H273469   4.468   1.717  11.939  0.9352  0.9546 -1.2421
17352TIP3   OH273470   3.055   1.412  14.700 -0.0940 -0.4918 -0.4853
17352TIP3    H173471   2.988   1.463  14.745  1.0367  0.3417  0.3019
17352TIP3    H273472   3.124   1.475  14.678  0.1784 -1.2050 -1.8353
17353TIP3   OH273473   1.703   2.908   5.249  0.0382 -0.3206 -0.8088
17353TIP3    H173474   1.610   2.888   5.236  0.0021  0.4098 -1.8065
17353TIP3    H273475   1.722   2.878   5.338 -0.6933 -2.1504 -1.2348
17354TIP3   OH273476   3.501   1.749  13.566 -0.1087 -0.1822 -0.0863
17354TIP3    H173477   3.558   1.744  13.489  0.5943 -0.9681  0.4654
17354TIP3    H273478   3.559   1.733  13.640 -0.7313  0.7930  0.6425
17355TIP3   OH273479   1.624   3.371   3.084  0.2427 -0.2111  0.0248
17355TIP3    H173480   1.561   3.330   3.144 -0.6492 -0.7276 -1.2141
17355TIP3    H273481   1.709   3.337   3.111 -0.3194 -1.7071 -0.0048
17356TIP3   OH273482   2.119   2.967  12.315  0.5259 -0.2413  0.0608
17356TIP3    H173483   2.120   3.063  12.313  0.3809 -0.2553 -1.1617
17356TIP3    H273484   2.109   2.941  12.224 -0.1310 -1.4149  0.4424
17357TIP3   OH273485   6.490   3.123   6.118 -0.5139 -0.1733  0.3334
17357TIP3    H173486   6.465   3.210   6.090 -1.4649 -0.5755 -0.1094
17357TIP3    H273487   6.524   3.134   6.207 -0.6353  0.6339  0.2805
17358TIP3   OH273488   6.288   2.269  10.976  0.2420  0.2783 -0.5596
17358TIP3    H173489   6.199   2.296  10.954 -0.0228 -0.0043  0.1442
17358TIP3    H273490   6.328   2.347  11.014 -0.0018  0.1539 -0.0352
17359TIP3   OH273491   0.489   1.004   5.353  0.3908 -0.3155  0.1693
17359TIP3    H173492   0.474   1.020   5.260  0.8381  0.3755  0.2107
17359TIP3    H273493   0.473   1.088   5.395  1.3281 -0.3333  0.5772
17360TIP3   OH273494   0.230   1.861  16.738  0.5724  0.2255  0.5378
17360TIP3    H173495   0.305   1.816  16.777 -0.1676 -0.6855  0.9480
17360TIP3    H273496   0.159   1.796  16.740 -0.2160  1.0496  0.1177
17361TIP3   OH273497   6.486   3.275  14.085  0.1087 -0.2852 -0.6522
17361TIP3    H173498   6.428   3.316  14.020 -0.6980 -1.8347 -0.9652
17361TIP3    H273499   6.574   3.303  14.059 -0.3818  1.0254 -0.9814
17362TIP3   OH273500   3.177   3.239  12.797 -0.2241  0.3253 -0.3853
17362TIP3    H173501   3.237   3.209  12.866 -2.2356  0.1127  1.3849
17362TIP3    H273502   3.231   3.244  12.719  1.6225 -1.8458  0.6459
17363TIP3   OH273503   2.529   4.027  12.219 -0.0010 -0.6440  0.1569
17363TIP3    H173504   2.510   3.941  12.180  2.7892 -1.2211 -0.1048
17363TIP3    H273505   2.506   4.016  12.312 -1.5557 -0.9788 -0.2342
17364TIP3   OH273506   3.803   4.012   5.648 -0.1558 -0.1652 -0.1865
17364TIP3    H173507   3.842   3.932   5.681 -1.0352 -0.1060  1.0776
17364TIP3    H273508   3.710   3.992   5.640 -0.6929  1.1926  1.8099
17365TIP3   OH273509   4.214   5.702   0.898 -0.1292  0.0327  0.1101
17365TIP3    H173510   4.143   5.663   0.949  0.3007  1.7800  2.2109
17365TIP3    H273511   4.281   5.722   0.963  1.5874 -0.0280 -1.5778
17366TIP3   OH273512   4.178   2.918  11.645  0.4161  0.2474 -0.2384
17366TIP3    H173513   4.196   2.835  11.600 -0.1832 -0.3946  0.6816
17366TIP3    H273514   4.100   2.952  11.601  0.9315  0.5700 -0.9262
17367TIP3   OH273515   6.520   1.149   2.059  0.0188  0.6432  0.0469
17367TIP3    H173516   6.602   1.108   2.086 -0.4259  0.3570  1.0134
17367TIP3    H273517   6.503   1.215   2.127 -0.7254  0.4535  0.0570
17368TIP3   OH273518   2.274   0.863  13.873  0.5579  0.1276  0.2291
17368TIP3    H173519   2.313   0.807  13.806 -0.5679  1.2838 -1.4970
17368TIP3    H273520   2.348   0.895  13.924  1.7989  1.1415 -2.0500
17369TIP3   OH273521   2.738   0.093  16.607  0.0800  0.2543  0.4643
17369TIP3    H173522   2.680   0.100  16.682 -0.6218  0.0002 -0.0489
17369TIP3    H273523   2.790   0.173  16.609  0.5871 -0.0800  1.6372
17370TIP3   OH273524   5.044   2.915  16.834 -0.1847 -0.5964  0.0008
17370TIP3    H173525   5.062   2.876  16.920 -0.3469 -0.1108  0.2596
17370TIP3    H273526   5.130   2.929  16.796 -0.0562  0.2599  0.5784
17371TIP3   OH273527   1.830   5.334   0.454 -0.0000 -0.1847  0.5457
17371TIP3    H173528   1.745   5.350   0.496  0.2719  1.6784  0.4662
17371TIP3    H273529   1.887   5.309   0.527 -0.0655  0.9010  1.0025
17372TIP3   OH273530   1.037   2.016  12.800  0.1508 -0.1725 -0.3643
17372TIP3    H173531   0.985   1.937  12.813  2.1065 -1.4626 -0.1489
17372TIP3    H273532   1.070   2.038  12.887  0.1759  0.5207 -0.5391
17373TIP3   OH273533   3.314   6.226  11.011 -0.3070  0.2116 -0.1518
17373TIP3    H173534   3.388   6.206  10.954  1.0233  1.4826  1.0548
17373TIP3    H273535   3.318   6.321  11.023 -1.3210  0.1295  1.0210
17374TIP3   OH273536   0.065   2.270   5.255  0.4222  0.3416 -0.6270
17374TIP3    H173537   0.089   2.185   5.219  0.8742  0.6776 -1.1303
17374TIP3    H273538   0.130   2.331   5.220  2.1499  0.3852  2.3149
17375TIP3   OH273539   3.157   3.338   4.933 -0.2898 -0.0009 -0.1493
17375TIP3    H173540   3.223   3.270   4.950 -1.5820 -1.6909 -1.4475
17375TIP3    H273541   3.197   3.393   4.866  0.3078 -0.2444 -0.0021
17376TIP3   OH273542   1.089   3.137  14.010  0.1544 -0.7339 -0.1271
17376TIP3    H173543   1.044   3.078  14.070 -2.3700  1.4684  0.3434
17376TIP3    H273544   1.077   3.224  14.048  1.0823  0.4391 -2.3047
17377TIP3   OH273545   5.361   1.340   2.983 -0.0143 -0.5568  0.1026
17377TIP3    H173546   5.292   1.307   2.927 -1.5845  1.8505  0.5204
17377TIP3    H273547   5.352   1.289   3.064  1.1975 -2.8498 -1.0820
17378TIP3   OH273548   4.366   6.182  10.599  0.1725 -0.5998  0.2071
17378TIP3    H173549   4.305   6.239  10.646 -1.8270 -2.2064 -0.2974
17378TIP3    H273550   4.424   6.147  10.667  0.2876  0.6041  0.7636
17379TIP3   OH273551   3.961   0.821  14.876  0.0488  0.3480  0.0112
17379TIP3    H173552   4.038   0.814  14.820  0.2648  0.8753  0.2325
17379TIP3    H273553   3.974   0.755  14.945 -0.8838 -1.2863 -1.3075
17380TIP3   OH273554   5.072   6.343   2.010  0.4031  0.1502 -0.2972
17380TIP3    H173555   5.058   6.435   1.990  1.3048  0.5482  0.8127
17380TIP3    H273556   5.119   6.309   1.934 -1.7032  0.0783 -1.6281
17381TIP3   OH273557   4.966   5.685   2.974 -0.1584 -0.4774  0.3485
17381TIP3    H173558   4.880   5.721   2.996 -0.8633 -2.7144  1.5812
17381TIP3    H273559   5.010   5.676   3.059  0.4782 -1.2633 -0.0563
17382TIP3   OH273560   6.143   0.380  12.648 -0.0198 -0.1529  0.3140
17382TIP3    H173561   6.129   0.474  12.663  0.8239  0.2084 -0.9098
17382TIP3    H273562   6.208   0.378  12.577 -2.7497 -1.6032 -2.3953
17383TIP3   OH273563   2.374   2.459   3.346  0.3884 -0.1019  0.7778
17383TIP3    H173564   2.357   2.382   3.401 -2.7329 -0.7037 -0.8215
17383TIP3    H273565   2.325   2.529   3.388  1.2633  0.4482  0.9014
17384TIP3   OH273566   5.557   6.000   3.166 -0.3961  0.5757 -0.3100
17384TIP3    H173567   5.647   6.012   3.197  0.0608  0.9265 -1.7349
17384TIP3    H273568   5.562   5.927   3.104 -0.7219  1.8043 -1.8405
17385TIP3   OH273569   5.690   5.132   1.277 -0.2386  0.5950  0.2643
17385TIP3    H173570   5.732   5.147   1.192 -1.2574 -0.4993 -0.4737
17385TIP3    H273571   5.671   5.220   1.310  0.6706  1.0495 -0.3885
17386TIP3   OH273572   6.228   0.770  14.288 -0.3216  0.1479  0.3645
17386TIP3    H173573   6.159   0.753  14.351 -1.3454 -1.0345 -0.9978
17386TIP3    H273574   6.192   0.835  14.228  0.3169  0.6468  0.5100
17387TIP3   OH273575   5.905   3.125  12.697 -0.4436 -0.5528  0.9142
17387TIP3    H173576   5.907   3.158  12.787 -1.8620 -1.6523  1.3849
17387TIP3    H273577   5.844   3.052  12.699 -0.6383 -0.5119 -0.9906
17388TIP3   OH273578   2.187   1.077  15.175 -0.5666 -0.0438 -0.7087
17388TIP3    H173579   2.270   1.084  15.128 -1.2841 -1.4575 -2.2706
17388TIP3    H273580   2.121   1.079  15.107 -1.7905  0.1774  0.4510
17389TIP3   OH273581   3.432   2.052   3.443  0.6156 -0.0599  0.0983
17389TIP3    H173582   3.512   2.003   3.423  0.2289 -0.9848  0.7668
17389TIP3    H273583   3.463   2.141   3.463  1.6577 -0.7360  1.7136
17390TIP3   OH273584   1.158   1.698   2.089  0.4246 -0.0540  0.5765
17390TIP3    H173585   1.146   1.658   2.003  1.7192 -3.7637  1.9197
17390TIP3    H273586   1.246   1.736   2.085  0.0481  0.8107 -0.0092
17391TIP3   OH273587   0.507   1.440  11.641  0.3681 -0.1567  0.2568
17391TIP3    H173588   0.492   1.348  11.664  0.4324 -0.1958  0.1418
17391TIP3    H273589   0.453   1.455  11.564  0.2063 -0.0442  0.3927
17392TIP3   OH273590   1.828   4.399  16.947  0.1640  0.5141 -0.0170
17392TIP3    H173591   1.888   4.473  16.960 -0.6986  0.9790  1.8472
17392TIP3    H273592   1.743   4.441  16.934  0.0698 -0.1484 -1.7492
17393TIP3   OH273593   3.737   3.365  15.320  0.1377  0.4723  0.3649
17393TIP3    H173594   3.824   3.337  15.349  0.6542  0.9529 -0.6413
17393TIP3    H273595   3.729   3.327  15.232 -1.3931 -1.0018  1.0870
17394TIP3   OH273596   6.669   3.357  15.207  0.1075  0.1397  0.0945
17394TIP3    H173597   6.616   3.436  15.195 -0.8813 -0.0677  2.5400
17394TIP3    H273598   6.606   3.287  15.223  1.0281 -0.7520 -0.0569
17395TIP3   OH273599   6.475   3.296  14.753 -0.3871 -0.3392  0.8866
17395TIP3    H173600   6.537   3.238  14.709  1.6525  2.0149  0.4297
17395TIP3    H273601   6.405   3.310  14.689  0.6203  0.0411 -0.1631
17396TIP3   OH273602   6.573   0.225   2.180 -0.2705  0.5385  0.5118
17396TIP3    H173603   6.493   0.195   2.224 -1.2840  0.3538 -1.3564
17396TIP3    H273604   6.547   0.236   2.089  1.4884  1.9136  0.1392
17397TIP3   OH273605   2.160   4.010  12.293 -0.4499  0.4827 -0.1797
17397TIP3    H173606   2.250   4.040  12.308 -0.5012  0.7113 -0.3196
17397TIP3    H273607   2.111   4.091  12.279 -0.4658  0.2962 -1.2660
17398TIP3   OH273608   2.774   2.016  15.463 -0.1288 -0.1214 -0.1427
17398TIP3    H173609   2.679   2.012  15.475 -0.1344 -1.6655 -0.5019
17398TIP3    H273610   2.793   2.109  15.455 -1.5567  0.2398  0.3835
17399TIP3   OH273611   4.123   4.405  15.269 -0.2292 -0.2997 -0.6776
17399TIP3    H173612   4.056   4.348  15.306 -0.3231  0.2390  0.0110
17399TIP3    H273613   4.149   4.462  15.342 -0.3287  0.7049 -1.3992
17400TIP3   OH273614   6.101   4.984  13.474  0.1945 -0.2337 -0.1498
17400TIP3    H173615   6.141   5.066  13.504  2.4303 -1.0371 -0.7449
17400TIP3    H273616   6.007   5.004  13.469  0.4385  1.6745  1.6005
17401TIP3   OH273617   0.443   0.973   3.713 -0.5309  0.1761  0.3450
17401TIP3    H173618   0.511   0.947   3.775 -0.9586  0.3393  0.8907
17401TIP3    H273619   0.455   1.068   3.702  0.2001 -0.0215 -0.6297
17402TIP3   OH273620   6.750   3.503  14.222 -0.2183  0.2802  0.0198
17402TIP3    H173621   6.815   3.569  14.202 -0.3302  0.0270 -1.3090
17402TIP3    H273622   6.667   3.550  14.223 -0.3393  0.1252 -1.2826
17403TIP3   OH273623   2.894   4.244  16.049 -0.2535 -0.2495 -0.0180
17403TIP3    H173624   2.925   4.170  16.102 -0.9703  0.5289  1.5430
17403TIP3    H273625   2.806   4.262  16.081 -1.2604 -0.5645 -2.4085
17404TIP3   OH273626   6.240   2.343   3.273  0.0190 -0.5011  0.5073
17404TIP3    H173627   6.220   2.261   3.227  1.4388 -0.1350 -0.8739
17404TIP3    H273628   6.331   2.332   3.301  0.5787  0.9788 -0.6188
17405TIP3   OH273629   4.468   1.481  16.003  0.0650 -0.2901 -0.0599
17405TIP3    H173630   4.430   1.425  16.070  1.5179  0.1015  1.1592
17405TIP3    H273631   4.518   1.547  16.052 -0.3989  1.1993 -1.4815
17406TIP3   OH273632   5.624   5.742   1.138 -0.0715  0.2572 -0.8481
17406TIP3    H173633   5.534   5.765   1.115  0.5537  1.1474 -2.5603
17406TIP3    H273634   5.679   5.799   1.084  1.5669  1.1223  1.5521
17407TIP3   OH273635   1.893   1.321  17.198 -0.3582  0.6266  0.1856
17407TIP3    H173636   1.983   1.309  17.228  0.4158  0.6261 -1.9657
17407TIP3    H273637   1.886   1.415  17.180  0.3915  0.1997 -2.8768
17408TIP3   OH273638   2.130   4.231  11.264 -1.0023  0.7258  0.6034
17408TIP3    H173639   2.091   4.148  11.238 -1.1700  1.3810 -1.4400
17408TIP3    H273640   2.223   4.211  11.276 -0.7971  0.4581 -1.1592
17409TIP3   OH273641   2.047   6.294   0.055  0.2230  0.0056 -0.5075
17409TIP3    H173642   2.094   6.229   0.107  2.8080  1.7630 -0.4034
17409TIP3    H273643   1.958   6.292   0.088  1.0008 -1.2102  1.7461
17410TIP3   OH273644   6.003   4.176   0.328 -0.3826  0.3278 -0.0099
17410TIP3    H173645   6.069   4.193   0.260  1.7705  0.0568  1.8950
17410TIP3    H273646   5.934   4.128   0.282  0.9260  0.2121 -2.0182
17411TIP3   OH273647   3.362   3.063  14.869 -0.2603 -0.0812  0.4507
17411TIP3    H173648   3.397   2.982  14.833 -2.8714 -0.2317 -2.0667
17411TIP3    H273649   3.267   3.051  14.868 -0.8361  3.3745 -1.1287
17412TIP3   OH273650   4.466   1.643   1.999  0.3279  0.1728 -0.2112
17412TIP3    H173651   4.430   1.608   1.918  2.5798  1.0288 -1.6795
17412TIP3    H273652   4.519   1.572   2.035  0.2405  0.1631 -0.1020
17413TIP3   OH273653   5.555   5.754  11.730  0.4598 -0.3838 -0.2527
17413TIP3    H173654   5.623   5.705  11.684  0.9304 -0.8649  0.9137
17413TIP3    H273655   5.537   5.829  11.674  0.4301 -1.3652 -1.6041
17414TIP3   OH273656   4.182   2.099  14.585 -0.1198  0.0068 -0.1294
17414TIP3    H173657   4.116   2.101  14.517  2.4495  1.2887 -2.8084
17414TIP3    H273658   4.237   2.023  14.564  0.0058 -0.3516  1.3333
17415TIP3   OH273659   3.556   1.717   1.234 -0.3270 -0.1371  0.7318
17415TIP3    H173660   3.527   1.643   1.181 -1.6006 -0.5009  1.8801
17415TIP3    H273661   3.636   1.685   1.277 -0.0939 -0.3382  0.1670
17416TIP3   OH273662   0.389   1.496  14.717  0.6422 -0.1166  0.0253
17416TIP3    H173663   0.413   1.437  14.788 -0.7858 -0.5384  0.1859
17416TIP3    H273664   0.399   1.443  14.637  0.2605 -0.2945  0.0929
17417TIP3   OH273665   4.468   3.651   3.737 -0.0939 -0.2269  0.2805
17417TIP3    H173666   4.539   3.705   3.703  0.3496 -1.0647 -0.1315
17417TIP3    H273667   4.502   3.562   3.734 -1.0057 -0.5861  0.4989
17418TIP3   OH273668   5.771   2.166   5.501  0.1112 -0.5639  0.5890
17418TIP3    H173669   5.735   2.253   5.487  0.1903 -0.4721  0.9381
17418TIP3    H273670   5.837   2.178   5.569  0.1186 -0.8972  0.6438
17419TIP3   OH273671   5.993   1.767   6.471 -0.0081 -0.3959  0.3224
17419TIP3    H173672   5.970   1.728   6.387 -0.2580 -0.2024  0.2982
17419TIP3    H273673   6.051   1.840   6.448 -1.7118  0.9602  0.1346
17420TIP3   OH273674   1.805   2.847  13.105 -0.2866  0.3509 -0.1170
17420TIP3    H173675   1.724   2.820  13.062  0.2219  0.5843 -1.2571
17420TIP3    H273676   1.820   2.937  13.076  0.8427  0.0179 -0.6370
17421TIP3   OH273677   3.241   0.276  11.901  0.4279  0.1975 -0.5274
17421TIP3    H173678   3.172   0.211  11.915  0.0725  0.6135 -0.3380
17421TIP3    H273679   3.234   0.299  11.809  1.7472 -1.3780 -1.0664
17422TIP3   OH273680   3.826   1.546   0.069  0.3354 -0.1900 -0.2044
17422TIP3    H173681   3.736   1.523   0.048  0.5472 -1.0007 -0.2740
17422TIP3    H273682   3.874   1.463   0.063  1.2627  0.3927 -1.0970
17423TIP3   OH273683   3.305   2.970   6.337  0.3755  0.9385 -0.5090
17423TIP3    H173684   3.247   3.045   6.321  0.8151  1.1365 -1.2902
17423TIP3    H273685   3.363   3.000   6.407 -2.5203 -0.4680  2.7725
17424TIP3   OH273686   4.937   6.545   0.677 -0.2629  0.2948  0.2843
17424TIP3    H173687   4.996   6.478   0.712  1.0288  0.4014 -1.5513
17424TIP3    H273688   4.994   6.618   0.655 -1.1421  0.6034 -1.0735
17425TIP3   OH273689   6.714   2.351  15.244  0.0373  0.3625  0.3563
17425TIP3    H173690   6.682   2.357  15.334  1.2992 -0.9660  0.9375
17425TIP3    H273691   6.805   2.321  15.253 -0.2484 -1.1664 -1.4053
17426TIP3   OH273692   3.743   6.307  13.365  0.5877  0.3995 -0.4249
17426TIP3    H173693   3.748   6.291  13.459  1.4459  0.3811 -0.4624
17426TIP3    H273694   3.657   6.346  13.352 -0.2502 -1.1902  0.1104
17427TIP3   OH273695   3.350   0.538   5.790 -0.2765 -0.2831  0.2036
17427TIP3    H173696   3.319   0.548   5.880 -0.0264  1.2079  0.1626
17427TIP3    H273697   3.287   0.480   5.748 -1.2458  0.1970  0.9558
17428TIP3   OH273698   4.616   2.374   3.443 -0.1466  0.7730  0.3944
17428TIP3    H173699   4.544   2.360   3.382  0.5874  0.0597 -0.3268
17428TIP3    H273700   4.574   2.410   3.521 -1.7309 -2.1057  1.0300
17429TIP3   OH273701   5.235   3.861   5.085 -0.1709 -0.1133  0.6468
17429TIP3    H173702   5.164   3.845   5.024 -0.2862  0.8883  0.4955
17429TIP3    H273703   5.306   3.803   5.056 -0.1486  0.4970 -0.5779
17430TIP3   OH273704   3.107   0.410   2.091  0.3696 -0.3377 -0.0510
17430TIP3    H173705   3.066   0.325   2.110 -0.7429  0.3493  0.7092
17430TIP3    H273706   3.115   0.412   1.995 -1.4191 -0.4986 -0.2357
17431TIP3   OH273707   3.203   4.418  13.849 -0.0256 -0.6542 -0.6342
17431TIP3    H173708   3.262   4.494  13.851  0.0575 -0.7085  1.4132
17431TIP3    H273709   3.120   4.451  13.885  0.3563 -1.7309  1.4259
17432TIP3   OH273710   1.120   3.813   4.110  0.2941 -0.7083  0.1189
17432TIP3    H173711   1.130   3.885   4.172 -0.2785 -0.7133  0.2274
17432TIP3    H273712   1.168   3.740   4.150  1.2565 -0.2646 -0.2128
17433TIP3   OH273713   4.647   5.421  15.173 -0.0926 -0.3078  0.4742
17433TIP3    H173714   4.726   5.463  15.138  0.0985 -0.8667  0.2354
17433TIP3    H273715   4.616   5.364  15.104  0.4695 -1.6605  1.2987
17434TIP3   OH273716   4.923   3.012   2.848  0.1679  0.3695  0.0007
17434TIP3    H173717   4.924   3.102   2.817 -1.4092  1.3305  2.4604
17434TIP3    H273718   5.015   2.990   2.861  0.5349  2.2162  0.8393
17435TIP3   OH273719   3.241   2.444   0.641 -0.4198  0.2387  0.0070
17435TIP3    H173720   3.178   2.497   0.689 -1.2359  0.9753 -1.7677
17435TIP3    H273721   3.232   2.356   0.677 -3.3547  0.0494 -0.9403
17436TIP3   OH273722   0.124   6.538  11.606  0.0685 -0.0722 -0.4247
17436TIP3    H173723   0.071   6.570  11.532  0.8898  0.3837 -0.8293
17436TIP3    H273724   0.078   6.459  11.636 -0.3475 -0.1897 -1.3324
17437TIP3   OH273725   2.736   6.548  15.362  0.9346 -0.0036 -0.5811
17437TIP3    H173726   2.812   6.511  15.405  0.7380 -0.2046 -0.4011
17437TIP3    H273727   2.661   6.503  15.402  0.7431 -0.1064 -1.0410
17438TIP3   OH273728   1.235   3.205  11.496  0.4781  0.1097  0.1886
17438TIP3    H173729   1.186   3.238  11.420  1.1076 -1.2172 -0.8218
17438TIP3    H273730   1.264   3.284  11.542 -0.2018  0.9297 -0.7593
17439TIP3   OH273731   3.134   4.358  14.158 -0.4900 -0.0063  0.2889
17439TIP3    H173732   3.175   4.277  14.190  0.4236 -0.1026 -1.0461
17439TIP3    H273733   3.201   4.425  14.170 -1.3868  0.6757  1.7707
17440TIP3   OH273734   3.959   2.675   4.864  0.2701 -0.3792  0.1019
17440TIP3    H173735   4.036   2.633   4.825 -0.0709  0.0102 -1.0139
17440TIP3    H273736   3.984   2.689   4.956  3.2624  3.5414 -0.9998
17441TIP3   OH273737   4.289   4.049   5.181 -0.7230  0.1684 -0.6902
17441TIP3    H173738   4.254   3.964   5.154  0.3814 -0.3050 -0.6767
17441TIP3    H273739   4.380   4.031   5.206 -1.1437  0.8912  1.6467
17442TIP3   OH273740   5.872   4.725   1.063  0.1365  0.1645 -0.6138
17442TIP3    H173741   5.807   4.778   1.109 -0.2464 -1.4881  0.8896
17442TIP3    H273742   5.837   4.715   0.975 -0.6994  0.8483 -0.3711
17443TIP3   OH273743   2.908   0.598   1.123  0.7144 -0.3446 -0.4476
17443TIP3    H173744   2.977   0.655   1.091 -0.1702  0.4174 -1.0609
17443TIP3    H273745   2.862   0.649   1.189  1.7199 -1.4452  1.1610
17444TIP3   OH273746   2.837   4.280  15.544  0.0142  0.0712 -0.4565
17444TIP3    H173747   2.900   4.328  15.491 -0.3758  1.1372  0.0052
17444TIP3    H273748   2.876   4.279  15.632 -0.9575  1.5072  0.0370
17445TIP3   OH273749   4.026   1.061   0.511 -0.5263  0.1683  0.4881
17445TIP3    H173750   4.051   1.112   0.588 -0.4703  0.7661  0.0786
17445TIP3    H273751   4.016   1.126   0.441 -0.1435 -0.4159 -0.1175
17446TIP3   OH273752   1.731   4.545  10.269 -0.3534  0.0409 -0.3232
17446TIP3    H173753   1.770   4.554  10.356 -0.1537 -1.0511 -0.2823
17446TIP3    H273754   1.752   4.628  10.225  0.2358  0.2916  0.3984
17447TIP3   OH273755   1.829   0.250  14.161  0.2382  0.1050 -0.0135
17447TIP3    H173756   1.864   0.211  14.080 -1.8138 -0.4788 -0.6813
17447TIP3    H273757   1.778   0.325  14.131 -0.0700  0.2212  0.7888
17448TIP3   OH273758   2.412   4.599   3.269 -0.2463  0.9412 -0.2303
17448TIP3    H173759   2.428   4.596   3.175 -1.0738  0.7639 -0.3699
17448TIP3    H273760   2.333   4.547   3.282  0.7307 -0.3731  0.7589
17449TIP3   OH273761   5.973   1.234  14.339  0.5276 -0.4258  0.3458
17449TIP3    H173762   5.945   1.321  14.366  1.6041 -0.4787  1.7469
17449TIP3    H273763   5.954   1.231  14.245 -3.0272 -0.0803  0.9101
17450TIP3   OH273764   0.765   2.521  12.582 -0.1892 -0.1339  0.6146
17450TIP3    H173765   0.734   2.508  12.672  1.2439  0.0293  1.1599
17450TIP3    H273766   0.768   2.433  12.545  1.2003 -0.4656  1.4391
17451TIP3   OH273767   4.101   1.940  13.798 -0.7056 -0.2274  0.4043
17451TIP3    H173768   4.138   2.011  13.745  0.8510 -0.1946  1.4651
17451TIP3    H273769   4.021   1.915  13.752 -0.6955  1.4491 -0.6015
17452TIP3   OH273770   1.672   2.759  12.177 -0.0571 -0.6610  0.3800
17452TIP3    H173771   1.611   2.832  12.186 -1.8722 -2.2405  1.7253
17452TIP3    H273772   1.752   2.790  12.220 -0.7862  0.5210  0.9382
17453TIP3   OH273773   3.736   5.941   4.017 -0.5294  0.0345 -0.1622
17453TIP3    H173774   3.658   5.932   3.964 -0.8187 -1.1256  0.4283
17453TIP3    H273775   3.715   5.896   4.099  0.9070 -0.7022 -0.1666
17454TIP3   OH273776   1.237   3.282   1.610 -0.8028 -0.1985 -0.0373
17454TIP3    H173777   1.300   3.241   1.668 -0.9371  0.0495  0.2823
17454TIP3    H273778   1.285   3.295   1.528  0.2840  2.0795  0.8809
17455TIP3   OH273779   5.459   1.431  13.229 -0.3277 -0.2845  0.3681
17455TIP3    H173780   5.452   1.408  13.322 -1.1562 -1.5109  0.0323
17455TIP3    H273781   5.538   1.386  13.200  0.2624  0.5879  0.6057
17456TIP3   OH273782   4.618   4.768   3.631 -0.5713 -0.1498 -0.0240
17456TIP3    H173783   4.581   4.691   3.673 -0.7938 -0.3535 -0.5825
17456TIP3    H273784   4.597   4.757   3.538  2.2573 -1.1021 -0.6469
17457TIP3   OH273785   0.560   2.104  15.977 -0.2808 -0.2197  0.0606
17457TIP3    H173786   0.475   2.126  16.016  0.5472  1.1767  1.1890
17457TIP3    H273787   0.539   2.048  15.903 -2.2226  0.5400 -0.0094
17458TIP3   OH273788   4.198   3.058  15.629  0.2635  0.0803 -0.1692
17458TIP3    H173789   4.106   3.069  15.653  0.8355  1.4313  1.5979
17458TIP3    H273790   4.218   3.136  15.577  0.3517 -0.3751 -0.8328
17459TIP3   OH273791   3.759   1.120   4.776 -0.0568 -0.1012 -0.0662
17459TIP3    H173792   3.800   1.039   4.805 -2.2613 -0.6866  1.6528
17459TIP3    H273793   3.785   1.185   4.840  0.8834  0.3580 -0.8814
17460TIP3   OH273794   5.523   3.349   3.631  0.3143  0.3747 -0.3386
17460TIP3    H173795   5.592   3.356   3.697  1.1205  0.1290 -1.1353
17460TIP3    H273796   5.536   3.262   3.593 -2.3227 -0.9899  1.5364
17461TIP3   OH273797   0.285   1.417  11.990 -0.2625 -0.0574 -0.8396
17461TIP3    H173798   0.380   1.422  11.983 -0.2294 -0.4091 -0.6724
17461TIP3    H273799   0.254   1.500  11.954  0.0533 -0.3956 -1.9173
17462TIP3   OH273800   2.274   2.081  14.917 -0.0245 -0.7913  0.1481
17462TIP3    H173801   2.291   2.171  14.944  0.4105 -0.2225 -1.8098
17462TIP3    H273802   2.192   2.057  14.961  0.4966  0.1134  1.6565
17463TIP3   OH273803   2.809   5.205   5.536  0.1802 -0.0757 -0.0004
17463TIP3    H173804   2.891   5.225   5.490 -0.2818  0.0142 -0.8081
17463TIP3    H273805   2.749   5.180   5.466 -0.4177 -0.3520  0.6118
17464TIP3   OH273806   6.426   2.095  13.110 -0.0362  0.0455 -0.4616
17464TIP3    H173807   6.417   2.190  13.106  0.3981  0.1289  0.3479
17464TIP3    H273808   6.354   2.068  13.168  1.0133  0.0949  0.9221
17465TIP3   OH273809   2.266   1.996   2.460  0.3670  0.2028  0.4442
17465TIP3    H173810   2.261   1.991   2.365  1.1329  0.5268  0.3796
17465TIP3    H273811   2.202   2.063   2.484  0.3437  0.2932  0.1344
17466TIP3   OH273812   5.947   3.312  11.104  0.4740  0.0788 -0.5065
17466TIP3    H173813   6.002   3.255  11.158  1.2536 -0.0544 -1.4012
17466TIP3    H273814   5.931   3.260  11.025 -2.0671 -0.4067  0.2580
17467TIP3   OH273815   2.040   5.113  16.614 -0.6175 -0.1195 -0.4096
17467TIP3    H173816   2.112   5.142  16.670 -0.0232 -1.1477 -0.6053
17467TIP3    H273817   1.967   5.171  16.636 -0.5101 -0.6977  1.6710
17468TIP3   OH273818   6.008   5.503  12.528  0.1353 -0.1873 -0.2793
17468TIP3    H173819   5.989   5.411  12.544  1.9391 -0.5675 -0.0223
17468TIP3    H273820   6.064   5.503  12.450  0.3048  0.6641 -0.1688
17469TIP3   OH273821   2.090   2.981  16.335  0.0738  0.0919  0.0101
17469TIP3    H173822   2.001   3.013  16.347  0.0723  0.5282 -1.0929
17469TIP3    H273823   2.090   2.895  16.379 -1.3062 -0.5643 -1.1922
17470TIP3   OH273824   0.602   3.405   1.640 -0.0814  0.5552 -0.3023
17470TIP3    H173825   0.624   3.467   1.570 -0.0696  1.7567  0.7160
17470TIP3    H273826   0.659   3.431   1.713  0.0789 -0.8218  0.0905
17471TIP3   OH273827   1.874   3.959  13.594 -0.0415 -0.2362 -0.5337
17471TIP3    H173828   1.912   3.932  13.510  0.7711  1.6226 -0.8132
17471TIP3    H273829   1.827   4.040  13.574  0.9319  0.7421  0.9566
17472TIP3   OH273830   5.128   6.376  14.590  0.8606 -0.2964  0.4465
17472TIP3    H173831   5.195   6.308  14.599  0.4681 -0.6509  0.7177
17472TIP3    H273832   5.165   6.452  14.635  1.5172 -0.1635 -0.2860
17473TIP3   OH273833   0.905   3.906   6.981 -0.3369 -0.4272 -0.1524
17473TIP3    H173834   0.964   3.911   6.905 -0.7421 -0.2597 -0.4600
17473TIP3    H273835   0.820   3.885   6.943 -0.6195  0.0302  0.2225
17474TIP3   OH273836   0.124   4.983  15.957 -0.3416 -0.0299 -0.4482
17474TIP3    H173837   0.073   4.949  16.031  1.2598 -1.0289  0.2403
17474TIP3    H273838   0.163   5.064  15.990 -0.3668  0.0057 -0.5059
17475TIP3   OH273839   1.338   4.017   2.505 -0.1228 -0.1482  0.2014
17475TIP3    H173840   1.429   3.990   2.513  0.1667  0.8497  0.4812
17475TIP3    H273841   1.310   4.035   2.595 -0.5738 -0.3763  0.1085
17476TIP3   OH273842   2.849   6.668  12.829 -0.1673 -0.7044 -0.7398
17476TIP3    H173843   2.890   6.583  12.844  0.3990 -0.2407  0.4463
17476TIP3    H273844   2.922   6.729  12.819 -0.4010  0.3841  2.8341
17477TIP3   OH273845   3.445   5.394   0.149  0.2299 -0.1934  0.4363
17477TIP3    H173846   3.391   5.320   0.121  0.0880  0.0608  0.0144
17477TIP3    H273847   3.525   5.387   0.096  0.5571 -0.4902  0.9609
17478TIP3   OH273848   4.992   3.894  12.651  0.1322 -0.1016 -0.0016
17478TIP3    H173849   4.980   3.975  12.601  0.4834 -0.2190 -0.2800
17478TIP3    H273850   4.940   3.907  12.730  0.8367  0.7521  0.3515
17479TIP3   OH273851   5.752   6.196  12.187  0.0280 -0.2790  0.3230
17479TIP3    H173852   5.759   6.199  12.283 -0.2017  0.8942  0.3210
17479TIP3    H273853   5.661   6.170  12.171 -0.0929  0.0828  0.4234
17480TIP3   OH273854   6.099   0.714   0.137 -0.6253 -0.0940  0.4012
17480TIP3    H173855   6.062   0.732   0.050 -1.9355  0.7629  1.0994
17480TIP3    H273856   6.096   0.798   0.182  1.3316 -0.2173  0.8532
17481TIP3   OH273857   0.382   1.799   5.418  0.2433  0.0680  0.4344
17481TIP3    H173858   0.289   1.813   5.401  0.7687  2.3690 -1.1039
17481TIP3    H273859   0.386   1.723   5.475 -2.5060 -0.7830 -0.3824
17482TIP3   OH273860   3.506   1.422  12.951  0.6483 -0.0388  0.3308
17482TIP3    H173861   3.587   1.398  12.996  1.3394  0.9780 -0.3503
17482TIP3    H273862   3.471   1.339  12.919  1.0041 -0.5795  1.2997
17483TIP3   OH273863   3.040   1.674   3.680  0.5714  0.5130  0.8173
17483TIP3    H173864   3.126   1.672   3.722  0.3523  1.3585  1.3468
17483TIP3    H273865   2.994   1.597   3.715  1.3876 -0.4245 -0.1238
17484TIP3   OH273866   5.775   5.502   4.487  0.0076  1.0528  0.0092
17484TIP3    H173867   5.680   5.500   4.480  0.0467  0.8667 -0.5175
17484TIP3    H273868   5.798   5.422   4.534 -0.0483  0.7157 -0.5260
17485TIP3   OH273869   5.770   3.433   2.277 -0.5318  0.6978 -0.4367
17485TIP3    H173870   5.687   3.421   2.322 -0.3124  4.0082  1.2399
17485TIP3    H273871   5.816   3.349   2.287 -1.8731  0.1844  2.7099
17486TIP3   OH273872   3.516   5.434   0.423 -0.6409  0.2641 -0.4945
17486TIP3    H173873   3.532   5.340   0.417 -0.1262  0.4097 -1.8801
17486TIP3    H273874   3.454   5.452   0.352 -0.7723  0.9648 -0.2105
17487TIP3   OH273875   6.310   1.138   5.558  0.0112 -0.1238 -0.1774
17487TIP3    H173876   6.400   1.171   5.557  0.2926 -0.8736 -1.7617
17487TIP3    H273877   6.295   1.113   5.650  1.4147  0.0028  0.1118
17488TIP3   OH273878   5.697   6.255  11.524 -0.2887 -0.6511  0.0270
17488TIP3    H173879   5.752   6.254  11.602 -0.0317 -0.8635 -0.1580
17488TIP3    H273880   5.709   6.342  11.486 -1.3508 -0.1010  0.8897
17489TIP3   OH273881   6.080   2.997  13.444  0.0284  0.6215 -0.2374
17489TIP3    H173882   6.004   3.006  13.387  0.7406 -0.9865 -1.5471
17489TIP3    H273883   6.150   2.966  13.386  1.2955  0.6971  1.1819
17490TIP3   OH273884   3.899   3.004   3.158 -0.2480  0.3228  0.4810
17490TIP3    H173885   3.826   3.054   3.121  0.1873  3.1316  2.9765
17490TIP3    H273886   3.862   2.961   3.235 -0.0182 -1.1543 -0.2141
17491TIP3   OH273887   6.468   5.341  17.095 -0.2149  0.4015 -0.3501
17491TIP3    H173888   6.427   5.377  17.173  1.1695  0.7656  0.2290
17491TIP3    H273889   6.494   5.252  17.121 -2.1540 -0.4938 -1.2648
17492TIP3   OH273890   3.928   4.517  14.893  0.7678 -0.3301  0.1635
17492TIP3    H173891   3.928   4.604  14.854  1.3113 -0.3402  0.1269
17492TIP3    H273892   3.976   4.528  14.976 -0.5214 -0.2663  0.9323
17493TIP3   OH273893   1.213   5.997  15.748 -0.1057  0.4140 -0.4568
17493TIP3    H173894   1.194   5.970  15.838 -1.6564  0.1344 -0.8292
17493TIP3    H273895   1.163   5.935  15.694  2.1507 -0.5270 -1.5986
17494TIP3   OH273896   6.605   4.347  16.103  0.2140  0.2617  0.3654
17494TIP3    H173897   6.597   4.292  16.024 -1.2416  0.5622  0.2869
17494TIP3    H273898   6.656   4.422  16.073 -2.1448  1.4568 -0.9337
17495TIP3   OH273899   1.547   3.710   0.103  0.3873 -0.1040 -0.0249
17495TIP3    H173900   1.624   3.715   0.161 -0.5384  0.0795  1.2458
17495TIP3    H273901   1.474   3.734   0.160 -0.7875 -1.5987 -0.8553
17496TIP3   OH273902   0.844   2.651   2.265  0.2918 -0.2835  0.0840
17496TIP3    H173903   0.873   2.638   2.355  0.1999 -0.2909  0.1132
17496TIP3    H273904   0.924   2.661   2.214  0.3296  0.3697  0.2661
17497TIP3   OH273905   5.021   3.425  16.558 -0.1457 -0.3060 -0.3659
17497TIP3    H173906   5.115   3.438  16.545 -0.1876  2.0429  1.1990
17497TIP3    H273907   5.010   3.422  16.653 -1.8478  1.5696 -0.4439
17498TIP3   OH273908   1.801   4.771  17.147  0.0110  0.1304 -0.4290
17498TIP3    H173909   1.824   4.752  17.056  0.6254  1.4500 -0.5766
17498TIP3    H273910   1.820   4.864  17.158 -2.9691  0.7682  0.1941
17499TIP3   OH273911   0.659   3.314  15.925  0.4519 -0.6643  0.1718
17499TIP3    H173912   0.686   3.372  15.854  0.2252  0.2524  0.8089
17499TIP3    H273913   0.672   3.366  16.004  0.0840 -1.4311  0.7482
17500TIP3   OH273914   2.638   5.989  11.489 -0.1864  0.2615  0.2332
17500TIP3    H173915   2.651   6.069  11.439  1.9086  0.1332  0.5044
17500TIP3    H273916   2.554   6.002  11.533  0.0432  2.2446  0.1715
17501TIP3   OH273917   3.789   1.865  11.677 -0.3717  0.0366 -0.5439
17501TIP3    H173918   3.700   1.830  11.679 -0.7423  0.8396 -1.6953
17501TIP3    H273919   3.788   1.926  11.604  1.1890 -0.0665 -0.6678
17502TIP3   OH273920   2.834   2.793  15.525  0.9021  0.3903 -0.0350
17502TIP3    H173921   2.821   2.870  15.469  0.9687  1.2894  1.1613
17502TIP3    H273922   2.754   2.742  15.513  0.0907  1.5049  0.4642
17503TIP3   OH273923   4.422   0.704  13.912 -0.5212  0.0683  0.3207
17503TIP3    H173924   4.507   0.695  13.954 -0.4480 -0.8264 -0.0025
17503TIP3    H273925   4.441   0.701  13.819 -0.9663 -0.8309  0.2478
17504TIP3   OH273926   1.293   5.820  16.075 -0.5933 -0.0409  0.4832
17504TIP3    H173927   1.294   5.729  16.048 -0.9879 -0.4244  1.7136
17504TIP3    H273928   1.210   5.830  16.122 -1.0934  1.2418 -0.6083
17505TIP3   OH273929   5.150   3.020  14.507  0.0057 -0.1803 -0.4737
17505TIP3    H173930   5.079   3.065  14.554 -0.6992 -1.5968 -0.1354
17505TIP3    H273931   5.112   2.936  14.481  1.6645 -1.1000 -0.0295
17506TIP3   OH273932   5.463   4.460   1.476  0.4878 -0.1047  0.0074
17506TIP3    H173933   5.387   4.516   1.493  0.1278 -0.6268  0.1159
17506TIP3    H273934   5.483   4.476   1.384 -0.4108 -0.7605 -0.3128
17507TIP3   OH273935   5.388   1.579  12.295 -0.0084  0.4528  0.4147
17507TIP3    H173936   5.371   1.587  12.201  0.1163  0.1778  0.3700
17507TIP3    H273937   5.390   1.670  12.326  0.2713  0.5611  0.0942
17508TIP3   OH273938   0.371   5.221  15.494 -0.5364 -0.3918 -0.0133
17508TIP3    H173939   0.339   5.253  15.578  0.6861  0.5719  0.1080
17508TIP3    H273940   0.294   5.182  15.452 -1.8962  1.7983  0.2816
17509TIP3   OH273941   2.198   4.466  13.468 -0.7547 -0.0549 -0.0573
17509TIP3    H173942   2.111   4.491  13.436 -0.0757  1.7481 -0.6295
17509TIP3    H273943   2.244   4.433  13.391 -0.4403  0.4554 -0.0934
17510TIP3   OH273944   0.811   4.616  13.595 -0.3146 -0.1448  1.3558
17510TIP3    H173945   0.721   4.625  13.566 -0.0888  0.6549  0.8712
17510TIP3    H273946   0.818   4.526  13.626 -1.0790 -0.4354  0.7045
17511TIP3   OH273947   5.117   4.240  12.752  0.2168  0.2929  0.5262
17511TIP3    H173948   5.140   4.320  12.704 -0.5370 -0.3063 -0.9322
17511TIP3    H273949   5.027   4.222  12.725 -0.0981 -0.3054  1.9060
17512TIP3   OH273950   5.190   3.367  15.375 -0.5017  0.2863 -0.0995
17512TIP3    H173951   5.150   3.330  15.296 -1.0791 -0.2373  0.4212
17512TIP3    H273952   5.126   3.349  15.444  0.5056 -0.3217  0.7095
17513TIP3   OH273953   1.878   2.841  16.998 -0.0641  0.2007  0.4851
17513TIP3    H173954   1.861   2.933  17.018  0.1128  0.2971  0.1997
17513TIP3    H273955   1.908   2.841  16.907  1.5922  0.0686  0.9986
17514TIP3   OH273956   5.248   0.529  13.610  0.5412  0.4825  0.6426
17514TIP3    H173957   5.173   0.574  13.648 -1.7842 -0.9266 -1.8667
17514TIP3    H273958   5.231   0.436  13.626  0.0571 -0.0814 -2.4515
17515TIP3   OH273959   1.774   1.998   3.329 -0.2560  0.2962  0.5908
17515TIP3    H173960   1.696   1.949   3.352 -0.1349  0.2166  0.8360
17515TIP3    H273961   1.766   2.013   3.235 -1.1963  1.4055  0.8285
17516TIP3   OH273962   5.442   6.694   2.217  0.1151 -0.5704 -0.1191
17516TIP3    H173963   5.462   6.788   2.211 -1.0653 -0.1794  1.3763
17516TIP3    H273964   5.485   6.666   2.298  0.6562 -1.3955 -0.6774
17517TIP3   OH273965   5.607   3.334   2.978 -0.0750 -0.5764  0.0779
17517TIP3    H173966   5.681   3.281   2.950 -0.6903 -1.0898 -0.6047
17517TIP3    H273967   5.609   3.410   2.921  0.9535  0.2996  1.2164
17518TIP3   OH273968   0.045   6.003   3.906 -0.0366 -0.3296 -0.4088
17518TIP3    H173969  -0.002   5.940   3.961 -2.1070  2.6879  1.5872
17518TIP3    H273970  -0.005   6.007   3.825 -0.4197 -0.6083 -0.1890
17519TIP3   OH273971   3.614   0.634  12.237 -0.2972  0.2294  0.8324
17519TIP3    H173972   3.623   0.643  12.143 -0.3009 -0.7075  0.7348
17519TIP3    H273973   3.567   0.552  12.249  1.0867 -0.4751  1.6914
17520TIP3   OH273974   5.365   4.845  13.993  0.0834 -0.1971 -0.0955
17520TIP3    H173975   5.339   4.906  13.924  0.1291  0.0397  0.0952
17520TIP3    H273976   5.388   4.901  14.067 -1.5163 -0.4921  0.6613
17521TIP3   OH273977   4.474   4.441  13.335 -0.2878 -0.6102  0.3123
17521TIP3    H173978   4.382   4.415  13.348 -0.9322  1.7173  0.8620
17521TIP3    H273979   4.470   4.535  13.320  1.9100 -0.7122 -1.3076
17522TIP3   OH273980   4.184   0.268  13.135  0.2611  0.2912 -0.3471
17522TIP3    H173981   4.216   0.277  13.045 -2.0244  0.6580 -1.1930
17522TIP3    H273982   4.135   0.349  13.150  1.3964  0.6685  1.6096
17523TIP3   OH273983   1.132   3.783  16.703 -0.0917 -0.3782  0.6791
17523TIP3    H173984   1.059   3.784  16.765 -2.0926 -0.5911 -1.5504
17523TIP3    H273985   1.165   3.873  16.705 -2.6281  0.6718 -0.6684
17524TIP3   OH273986   6.318   1.090   5.853  0.2310  0.1219 -0.1268
17524TIP3    H173987   6.308   1.032   5.928  2.0779  1.3468  1.1528
17524TIP3    H273988   6.330   1.177   5.891 -1.4024  1.2454 -1.9541
17525TIP3   OH273989   1.480   2.644  11.274  0.3295 -0.8181 -0.0257
17525TIP3    H173990   1.576   2.646  11.274  0.3359 -0.9371 -0.6447
17525TIP3    H273991   1.455   2.688  11.192 -0.1379 -1.0217  0.0056
17526TIP3   OH273992   4.112   1.826  12.562  0.8228 -0.2463  0.1458
17526TIP3    H173993   4.124   1.868  12.647 -1.7812 -0.8890  0.9395
17526TIP3    H273994   4.120   1.897  12.499  2.3789  0.3180  0.9365
17527TIP3   OH273995   5.929   4.898  16.337  0.4158  0.4404 -0.2448
17527TIP3    H173996   5.849   4.859  16.373  0.6015  0.5176  0.2625
17527TIP3    H273997   5.985   4.823  16.317  0.3855  0.4051 -0.1966
17528TIP3   OH273998   0.521   6.269   5.685  0.0090 -0.7333  0.0637
17528TIP3    H173999   0.588   6.278   5.752 -0.4899  0.5289  0.4187
17528TIP3    H274000   0.440   6.252   5.733 -0.5645  1.2830 -0.0869
17529TIP3   OH274001   2.819   5.902  12.676  0.2115 -0.0576  0.4887
17529TIP3    H174002   2.913   5.891  12.658  0.2210 -1.5866  1.2461
17529TIP3    H274003   2.802   5.841  12.749 -0.6193  2.7876  2.8556
17530TIP3   OH274004   2.335   5.264   5.884 -0.1187 -0.0881 -0.8316
17530TIP3    H174005   2.258   5.320   5.888  0.9302  1.3672  1.0549
17530TIP3    H274006   2.400   5.317   5.837  1.3072  1.0042  2.1004
17531TIP3   OH274007   5.046   3.801   2.562 -0.2260 -0.2684  0.1360
17531TIP3    H174008   5.014   3.723   2.607  1.1064 -0.5945  0.5673
17531TIP3    H274009   5.097   3.848   2.628  1.7808 -0.7619 -0.9618
17532TIP3   OH274010   5.395   4.397  13.731 -0.1969  0.2411 -0.0508
17532TIP3    H174011   5.379   4.444  13.812  1.4396  0.0017  0.4365
17532TIP3    H274012   5.476   4.434  13.696  1.9769 -3.0007  1.0437
17533TIP3   OH274013   6.323   1.549  17.135 -0.4423 -0.4511  0.4682
17533TIP3    H174014   6.402   1.589  17.169 -1.7312  2.6263  0.1921
17533TIP3    H274015   6.349   1.512  17.051  1.0534 -1.0682  1.1809
17534TIP3   OH274016   4.519   5.822   2.730  0.3824 -0.1563  0.3953
17534TIP3    H174017   4.454   5.759   2.762  0.8234 -0.0613  1.5360
17534TIP3    H274018   4.479   5.907   2.743 -0.8813 -0.1661 -2.6344
17535TIP3   OH274019   2.363   4.785   4.979  0.1783 -0.1522  0.3546
17535TIP3    H174020   2.368   4.715   5.044 -0.2577  0.1443  0.7151
17535TIP3    H274021   2.279   4.828   4.997  0.0392 -0.0831 -0.4188
17536TIP3   OH274022   4.886   5.114  12.001  0.3216 -0.2829  0.6663
17536TIP3    H174023   4.793   5.100  12.022 -0.5557  0.5299 -2.1577
17536TIP3    H274024   4.914   5.182  12.062 -1.1852  0.0198  1.0724
17537TIP3   OH274025   0.486   1.806   5.718 -0.6300  0.1580 -0.0776
17537TIP3    H174026   0.573   1.831   5.688 -0.7266 -0.2952 -0.7384
17537TIP3    H274027   0.455   1.882   5.769  0.4689  0.0130  0.8537
17538TIP3   OH274028   2.416   2.033  17.141 -0.5106 -0.5193  0.2205
17538TIP3    H174029   2.443   1.944  17.162  1.2120  0.2874  1.7967
17538TIP3    H274030   2.415   2.037  17.045  2.7125 -1.3755  0.0360
17539TIP3   OH274031   2.731   5.220   1.204  0.0003  0.4860  0.1362
17539TIP3    H174032   2.819   5.208   1.241  0.5833 -1.2372 -1.6453
17539TIP3    H274033   2.676   5.159   1.253  0.0652  0.6220  0.3803
17540TIP3   OH274034   4.823   0.549  12.705  0.3131 -0.1396  0.2217
17540TIP3    H174035   4.731   0.547  12.733 -0.6946  2.6829 -2.3439
17540TIP3    H274036   4.870   0.586  12.780 -0.9666  0.2259  0.8721
17541TIP3   OH274037   0.431   3.417  13.141 -0.0794 -0.0025 -0.2226
17541TIP3    H174038   0.460   3.389  13.054 -0.1551 -1.8754  0.3169
17541TIP3    H274039   0.339   3.441  13.128 -0.0950 -0.2726 -0.6626
17542TIP3   OH274040   5.536   5.894  14.289  0.5825 -0.1757  0.8428
17542TIP3    H174041   5.545   5.891  14.384  0.3191  0.7749  0.9070
17542TIP3    H274042   5.617   5.857  14.255  0.8864 -0.0486  1.4305
17543TIP3   OH274043   4.131   3.251  13.557  0.4133  0.0793 -0.3177
17543TIP3    H174044   4.115   3.163  13.592 -2.6217  1.5238  2.4215
17543TIP3    H274045   4.054   3.272  13.505 -1.0408  2.5261  2.5173
17544TIP3   OH274046   5.065   3.651  17.362  0.6175 -0.6606 -0.3218
17544TIP3    H174047   5.017   3.570  17.348 -3.3084  1.4811 -0.5144
17544TIP3    H274048   5.072   3.690  17.274  0.7926  0.0562  0.0009
17545TIP3   OH274049   3.649   1.694  14.113  0.2891 -0.4112  0.2451
17545TIP3    H174050   3.657   1.600  14.102 -1.9497 -0.8385  1.5539
17545TIP3    H274051   3.700   1.714  14.192  1.7573 -0.2782 -0.7001
17546TIP3   OH274052   5.512   3.191   5.149  0.0825  0.5912 -0.5824
17546TIP3    H174053   5.474   3.152   5.227  0.7847  0.8266 -0.1095
17546TIP3    H274054   5.440   3.193   5.086 -0.7150  1.1491  0.3181
17547TIP3   OH274055   2.773   3.434  11.485  0.1476 -1.0136 -0.2167
17547TIP3    H174056   2.868   3.424  11.483  0.2576 -0.3579 -3.1495
17547TIP3    H274057   2.743   3.369  11.549  2.6275 -0.1183  1.9949
17548TIP3   OH274058   0.191   0.028  14.820  0.2948  0.6892 -0.0001
17548TIP3    H174059   0.113   0.055  14.773  0.6154  0.9354 -0.4025
17548TIP3    H274060   0.261   0.084  14.785  1.1951 -1.3206 -1.6297
17549TIP3   OH274061   0.740   6.410   0.640 -0.2200 -0.0555 -0.2758
17549TIP3    H174062   0.663   6.413   0.696 -0.1293 -0.1168 -0.1477
17549TIP3    H274063   0.751   6.317   0.619 -1.6261  0.1719 -2.3001
17550TIP3   OH274064   3.161   5.963   5.285  0.1334  0.3770  0.1741
17550TIP3    H174065   3.150   5.985   5.377 -1.2937 -2.0704  0.6815
17550TIP3    H274066   3.107   5.885   5.272  2.1816 -0.8109 -2.1574
17551TIP3   OH274067   1.724   3.256  10.970 -0.7973  0.4675 -0.1249
17551TIP3    H174068   1.743   3.344  10.937 -0.3832  0.7234  0.7536
17551TIP3    H274069   1.796   3.237  11.029 -2.3719  0.7895  2.0248
17552TIP3   OH274070   5.570   0.450  15.783  0.1765 -0.1413 -0.2110
17552TIP3    H174071   5.622   0.374  15.758  0.2129  0.3673 -1.7885
17552TIP3    H274072   5.484   0.436  15.742 -0.4561 -0.2330  1.0856
17553TIP3   OH274073   4.533   2.509   0.810 -0.3644 -0.0266 -0.2889
17553TIP3    H174074   4.540   2.593   0.855 -1.1038 -0.1320  0.0462
17553TIP3    H274075   4.466   2.523   0.743 -0.4377 -0.3236 -0.2789
17554TIP3   OH274076   4.181   0.955   0.275 -0.2347  0.4029 -0.1750
17554TIP3    H174077   4.172   1.002   0.357  1.1429 -0.5291  0.5534
17554TIP3    H274078   4.172   1.023   0.207 -0.6912  1.2944  0.7583
17555TIP3   OH274079   1.658   0.943  14.121 -0.3121  1.1959  0.0603
17555TIP3    H174080   1.744   0.952  14.163 -0.7610 -1.2283  1.6778
17555TIP3    H274081   1.652   1.019  14.063  2.7031  1.7112  0.2620
17556TIP3   OH274082   2.808   4.072   4.090  0.2040  0.0981 -0.5183
17556TIP3    H174083   2.777   4.032   4.008 -1.0408  1.9046 -0.9919
17556TIP3    H274084   2.759   4.026   4.159 -1.9498  1.3365 -1.1190
17557TIP3   OH274085   4.101   3.153   1.892  0.2484 -0.3041  0.0551
17557TIP3    H174086   4.117   3.059   1.901 -1.7658 -0.6035  1.1351
17557TIP3    H274087   4.038   3.173   1.961 -1.2040  1.3613 -1.6478
17558TIP3   OH274088   5.746   2.460  11.845 -0.2072 -0.0748 -0.3532
17558TIP3    H174089   5.744   2.555  11.854 -2.1532  0.0278 -1.3174
17558TIP3    H274090   5.654   2.435  11.835  0.2683 -2.0560 -0.1409
17559TIP3   OH274091   5.694   2.795  17.296 -0.1651  0.7977 -0.0257
17559TIP3    H174092   5.709   2.711  17.339  1.4797 -0.5197 -2.9155
17559TIP3    H274093   5.685   2.858  17.368 -0.3016 -1.6340  2.2030
17560TIP3   OH274094   0.651   2.464  15.512 -0.0394 -0.1776  1.0119
17560TIP3    H174095   0.616   2.490  15.427  1.7498 -0.0144  0.2733
17560TIP3    H274096   0.652   2.544  15.564  0.6183  0.1408  0.5213
17561TIP3   OH274097   0.628   3.376   1.938 -0.0924  0.1908  1.0977
17561TIP3    H174098   0.677   3.451   1.971 -1.2142  0.2480  2.7406
17561TIP3    H274099   0.582   3.341   2.015 -2.1775 -0.1819 -0.2432
17562TIP3   OH274100   2.200   6.633   3.940  0.6904  0.2969 -0.3830
17562TIP3    H174101   2.235   6.591   3.861  1.3232  1.2015 -0.6017
17562TIP3    H274102   2.106   6.641   3.922  0.1513 -2.7723  0.4981
17563TIP3   OH274103   4.376   5.220  14.495 -0.1194 -0.3417  0.4790
17563TIP3    H174104   4.460   5.178  14.517 -0.6006 -1.3160  0.5239
17563TIP3    H274105   4.312   5.149  14.502 -0.8550  0.2442 -0.2043
17564TIP3   OH274106   5.447   3.432  13.954 -0.4884 -0.6111  0.2573
17564TIP3    H174107   5.516   3.368  13.938  0.0010 -0.0187 -0.0196
17564TIP3    H274108   5.476   3.480  14.031  0.5907  1.2197 -1.2270
17565TIP3   OH274109   1.385   0.242   6.211 -0.4671  0.4569  0.3847
17565TIP3    H174110   1.381   0.318   6.269  2.6686  1.0953 -0.0230
17565TIP3    H274111   1.339   0.270   6.132 -0.1057  1.6513  0.5718
17566TIP3   OH274112   4.844   4.771  12.109  0.0125  0.1448  0.1976
17566TIP3    H174113   4.883   4.758  12.022 -2.0915  0.8197 -0.9203
17566TIP3    H274114   4.775   4.836  12.094 -2.9717 -2.4655  1.5403
17567TIP3   OH274115   2.951   1.918   2.455  0.0422 -0.6735  0.0122
17567TIP3    H174116   2.927   1.834   2.416  1.9295 -0.5616 -1.5280
17567TIP3    H274117   2.905   1.983   2.403 -0.2190 -0.6699  0.2430
17568TIP3   OH274118   5.772   2.663  13.940 -0.1050  0.7427 -0.3506
17568TIP3    H174119   5.848   2.711  13.972  0.5863 -0.8694  0.5352
17568TIP3    H274120   5.775   2.579  13.986 -1.3988 -0.0715 -1.6610
17569TIP3   OH274121   3.731   0.518   4.434 -0.0027 -0.4103  0.0568
17569TIP3    H174122   3.674   0.573   4.489 -1.5661 -0.6340 -1.2607
17569TIP3    H274123   3.763   0.450   4.493  0.9285  1.1110  1.4173
17570TIP3   OH274124   5.192   3.506   5.865  0.0747 -1.1005  0.3941
17570TIP3    H174125   5.212   3.423   5.908  0.7000 -1.0136  0.2765
17570TIP3    H274126   5.249   3.570   5.908  1.0153 -1.0879 -0.8336
17571TIP3   OH274127   3.954   5.540   2.422  0.2741 -0.1090 -0.1688
17571TIP3    H174128   3.922   5.620   2.379 -1.0479  0.3994  1.6463
17571TIP3    H274129   4.046   5.559   2.441  0.5809  0.0894 -1.7112
17572TIP3   OH274130   2.771   5.066  13.967  0.1162  0.7309 -0.2393
17572TIP3    H174131   2.700   5.119  13.931  0.1052 -0.3413 -1.9158
17572TIP3    H274132   2.748   5.054  14.059 -1.3215  1.2715 -0.4999
17573TIP3   OH274133   1.064   5.029  13.082 -0.0328  0.7507  0.2233
17573TIP3    H174134   0.975   5.030  13.119 -0.2887  0.9094 -0.3776
17573TIP3    H274135   1.053   5.067  12.995  0.5859  0.5211  0.0459
17574TIP3   OH274136   6.136   2.378  11.259  0.5357 -0.4953  0.1461
17574TIP3    H174137   6.087   2.397  11.179 -0.1063 -0.1457  0.6138
17574TIP3    H274138   6.127   2.457  11.312 -2.1886 -1.9775  2.1283
17575TIP3   OH274139   1.280   1.824   6.079  0.6217  0.1955 -0.0988
17575TIP3    H174140   1.186   1.833   6.064  0.8076  0.2931 -1.2279
17575TIP3    H274141   1.286   1.759   6.149 -0.3423  1.5511  1.3118
17576TIP3   OH274142   0.276   2.260  12.346 -0.1636  0.2190 -0.3604
17576TIP3    H174143   0.228   2.269  12.429 -3.5757 -0.0485 -2.1409
17576TIP3    H274144   0.343   2.194  12.365  1.0855  2.1486  2.8681
17577TIP3   OH274145   2.936   2.379  16.665  0.3012 -0.3208 -0.1121
17577TIP3    H174146   2.879   2.303  16.675 -0.8630  0.7193  2.0450
17577TIP3    H274147   2.877   2.451  16.642  0.9648  0.4416  0.4787
17578TIP3   OH274148   5.056   2.200  11.982  0.4484  0.2751 -0.0009
17578TIP3    H174149   5.042   2.283  12.028 -4.0882 -1.9000  3.3201
17578TIP3    H274150   5.137   2.166  12.019 -0.2369  1.0800  2.4523
17579TIP3   OH274151   4.054   5.481  11.667 -0.3790  0.1728  0.7455
17579TIP3    H174152   4.047   5.576  11.658  0.2007  0.1652  0.1439
17579TIP3    H274153   3.968   5.447  11.639 -0.5858  0.5163  0.9643
17580TIP3   OH274154   6.404   5.600   0.869 -0.6691  0.1650 -0.6157
17580TIP3    H174155   6.449   5.618   0.951 -0.9492 -1.1456 -0.1390
17580TIP3    H274156   6.361   5.682   0.846 -2.0613  0.1169  1.5121
17581TIP3   OH274157   3.922   3.750  17.341  0.6192 -0.0999 -0.2189
17581TIP3    H174158   3.998   3.704  17.376 -0.0804 -0.7263  0.5485
17581TIP3    H274159   3.847   3.700  17.375 -0.1238 -0.2773 -1.9871
17582TIP3   OH274160   1.418   0.165   2.128 -0.4941  0.5423 -0.0254
17582TIP3    H174161   1.466   0.240   2.165  0.0062  0.1578  0.1189
17582TIP3    H274162   1.434   0.094   2.190  0.3524 -0.1131 -0.9617
17583TIP3   OH274163   5.086   2.698   4.405 -0.1738  0.2326  0.5327
17583TIP3    H174164   5.171   2.731   4.375  0.3124  0.4090  2.0367
17583TIP3    H274165   5.025   2.726   4.337  0.4227  3.0937  1.0322
17584TIP3   OH274166   5.023   3.011   6.689 -0.6641  0.3747  0.2234
17584TIP3    H174167   5.117   3.000   6.702 -0.5751  0.1907 -0.5498
17584TIP3    H274168   4.988   2.922   6.688 -0.5212  0.3035 -1.7955
17585TIP3   OH274169   4.947   3.677   5.966 -0.0304 -0.0898 -0.6633
17585TIP3    H174170   4.959   3.743   5.898 -0.1358 -1.1874 -1.7944
17585TIP3    H274171   4.937   3.727   6.047 -2.4145  1.3920 -1.7708
17586TIP3   OH274172   1.986   0.266   3.709 -0.6852  0.6716 -0.4828
17586TIP3    H174173   1.986   0.326   3.784 -1.3591  1.0248 -0.7531
17586TIP3    H274174   2.041   0.311   3.643 -0.2845  0.4699 -0.2900
17587TIP3   OH274175   1.076   5.862   1.001  0.4937 -0.4436  0.0439
17587TIP3    H174176   1.032   5.816   1.072  0.5641  0.6053  0.7848
17587TIP3    H274177   1.083   5.952   1.031  0.1868  0.1103 -1.4588
17588TIP3   OH274178   4.852   5.459  16.202 -0.7783 -0.1753 -0.2310
17588TIP3    H174179   4.782   5.400  16.173  0.1152 -1.6352  0.4770
17588TIP3    H274180   4.811   5.512  16.270 -1.9565  0.9745 -1.7642
17589TIP3   OH274181   6.338   3.231   5.518 -0.8209  0.4179  0.2123
17589TIP3    H174182   6.362   3.219   5.426 -0.2388  1.8896  0.1499
17589TIP3    H274183   6.411   3.195   5.567  0.5635  2.7628  0.0311
17590TIP3   OH274184   3.376   2.739   0.275 -0.2189 -0.5363  0.5540
17590TIP3    H174185   3.330   2.660   0.302 -0.9422 -0.5178 -0.5712
17590TIP3    H274186   3.311   2.809   0.282 -1.5676 -0.9927 -4.1727
17591TIP3   OH274187   2.716   5.944  17.320 -0.0083  0.1042 -0.3748
17591TIP3    H174188   2.681   5.860  17.290 -1.3379  0.7960 -0.8564
17591TIP3    H274189   2.681   6.008  17.258  1.8486  0.9102 -0.6602
17592TIP3   OH274190   6.451   6.317   2.733  0.5892 -0.1233 -0.4870
17592TIP3    H174191   6.402   6.283   2.658 -0.2703 -0.8911  0.3902
17592TIP3    H274192   6.538   6.277   2.725  0.2941 -0.7406 -0.7151
17593TIP3   OH274193   0.549   0.686   5.545 -0.6222 -0.1183 -0.7120
17593TIP3    H174194   0.470   0.714   5.591 -0.5739  1.9633 -1.7902
17593TIP3    H274195   0.615   0.753   5.566 -0.2882  0.3115 -2.8476
17594TIP3   OH274196   2.283   3.166  16.878 -0.2482 -0.8971 -0.5471
17594TIP3    H174197   2.332   3.088  16.853 -0.5310 -0.8511 -1.2521
17594TIP3    H274198   2.233   3.190  16.800 -1.4287 -0.9562  0.1643
17595TIP3   OH274199   2.882   1.558  11.476 -0.6247  0.6125 -0.2503
17595TIP3    H174200   2.957   1.603  11.515  0.2490 -1.7333  0.9379
17595TIP3    H274201   2.806   1.603  11.512  0.2021  1.1759  0.8388
17596TIP3   OH274202   0.853   4.068  15.087 -0.5928  0.0396  0.6374
17596TIP3    H174203   0.894   4.120  15.156  0.3783 -0.8837  0.7815
17596TIP3    H274204   0.789   4.014  15.133  0.3259 -0.8627  0.9203
17597TIP3   OH274205   3.519   2.916  11.194 -0.2976  0.0322  0.5200
17597TIP3    H174206   3.457   2.960  11.135  0.1668  0.9614  0.7032
17597TIP3    H274207   3.530   2.829  11.155 -0.7793  0.2715 -0.1937
17598TIP3   OH274208   3.211   5.182   4.588  0.7072 -1.1249  0.2270
17598TIP3    H174209   3.155   5.177   4.511  0.3985  0.6673  0.2739
17598TIP3    H274210   3.261   5.101   4.588  0.6003 -1.2218 -1.7709
17599TIP3   OH274211   6.118   1.173   6.213 -0.6082  0.3008  0.1125
17599TIP3    H174212   6.101   1.263   6.240 -0.3852  0.4384 -0.1930
17599TIP3    H274213   6.169   1.182   6.132 -0.7286 -0.0994 -0.0095
17600TIP3   OH274214   4.396   5.174  16.373 -0.3285  0.2835 -0.5315
17600TIP3    H174215   4.311   5.209  16.402 -0.5336  0.1313 -0.9420
17600TIP3    H274216   4.460   5.239  16.404 -0.6016  0.4431 -0.2933
17601TIP3   OH274217   6.650   1.810   3.445 -0.1011 -0.8624  0.3211
17601TIP3    H174218   6.745   1.801   3.450  0.0366 -0.2172 -0.7385
17601TIP3    H274219   6.617   1.766   3.523  0.9129 -3.4401 -0.6189
17602TIP3   OH274220   0.306   2.597  15.617  0.0484  0.0726 -0.0067
17602TIP3    H174221   0.330   2.687  15.593 -0.5476 -0.2695 -2.1120
17602TIP3    H274222   0.284   2.602  15.710  2.1969  1.6250  0.5024
17603TIP3   OH274223   5.515   4.389  16.062 -0.3267  0.1177 -0.6692
17603TIP3    H174224   5.517   4.485  16.061  1.5817  0.1373 -0.1357
17603TIP3    H274225   5.531   4.364  15.971  0.5643  0.3381 -0.5845
17604TIP3   OH274226   1.101   5.374  15.946 -0.2227 -0.2433  0.2950
17604TIP3    H174227   1.167   5.305  15.958  0.3603  0.6981  3.3192
17604TIP3    H274228   1.146   5.441  15.895 -0.2159 -1.2653 -1.1233
17605TIP3   OH274229   6.066   1.734  16.502  0.7616  0.6142 -0.0484
17605TIP3    H174230   6.115   1.778  16.572 -0.0667 -0.5817  1.3349
17605TIP3    H274231   6.027   1.658  16.544 -2.6094  1.6528 -0.9436
17606TIP3   OH274232   2.797   6.279   2.672  0.8953  0.5020  0.0879
17606TIP3    H174233   2.824   6.302   2.761 -1.3112  1.3393  0.6204
17606TIP3    H274234   2.877   6.247   2.630  2.1164  0.5953  2.1876
17607TIP3   OH274235   3.369   5.620  15.758  0.4885 -0.4421  0.2456
17607TIP3    H174236   3.389   5.610  15.851  0.6708 -2.2429  0.0455
17607TIP3    H274237   3.442   5.577  15.713 -0.2243 -0.7194 -0.6847
17608TIP3   OH274238   6.569   4.804  14.243  0.0410 -0.1182  0.1293
17608TIP3    H174239   6.480   4.785  14.272 -0.3717  1.3937 -0.0473
17608TIP3    H274240   6.613   4.837  14.321 -0.0650  0.7165 -0.1501
17609TIP3   OH274241   6.726   5.893   4.703  0.0376  0.2492 -0.1493
17609TIP3    H174242   6.673   5.929   4.775  0.0899 -2.9017  1.6706
17609TIP3    H274243   6.805   5.947   4.702 -0.6376  1.3268  1.1284
17610TIP3   OH274244   2.018   0.735   2.552  0.4279 -0.1628  0.3944
17610TIP3    H174245   2.108   0.703   2.546  0.6148  0.3540  0.3580
17610TIP3    H274246   2.022   0.823   2.515 -0.6819 -1.1903 -2.4354
17611TIP3   OH274247   5.509   3.892  15.992 -0.0520 -0.0291  0.1673
17611TIP3    H174248   5.509   3.980  16.029  0.0420 -0.1709  0.5029
17611TIP3    H274249   5.472   3.903  15.904  0.6692  0.4683 -0.0801
17612TIP3   OH274250   2.033   1.414   5.188 -0.1557  0.1146  0.2594
17612TIP3    H174251   2.053   1.477   5.119  1.6664 -0.4309  0.2549
17612TIP3    H274252   2.118   1.380   5.216 -1.0215 -1.5771  0.9900
17613TIP3   OH274253   5.306   2.987   6.682 -0.1826 -0.3015  0.2900
17613TIP3    H174254   5.352   3.015   6.603 -0.8278  1.5052  0.5124
17613TIP3    H274255   5.372   2.990   6.751  0.2612 -1.4006 -0.0783
17614TIP3   OH274256   0.504   5.676  15.059 -0.4620 -0.4210  0.3695
17614TIP3    H174257   0.544   5.617  15.124 -2.7442 -0.5766  1.7566
17614TIP3    H274258   0.557   5.755  15.063 -0.1938 -0.6335  2.0816
17615TIP3   OH274259   0.907   4.490   0.122  0.2616  0.3711  1.0674
17615TIP3    H174260   0.878   4.570   0.078  0.5215 -0.1619 -0.1150
17615TIP3    H274261   1.000   4.484   0.102  0.0462 -0.7270  0.2788
17616TIP3   OH274262   6.160   2.939   3.464 -0.1620 -0.5947  0.3267
17616TIP3    H174263   6.153   2.998   3.389 -0.3658 -1.4632 -0.3544
17616TIP3    H274264   6.253   2.918   3.470  0.0184  0.3538  1.0228
17617TIP3   OH274265   3.505   6.748   4.566  0.1786 -0.3282  0.2516
17617TIP3    H174266   3.498   6.687   4.639  1.1950 -0.5286  0.1888
17617TIP3    H274267   3.584   6.722   4.519  0.2819  0.6440 -0.1449
17618TIP3   OH274268   1.054   6.172   2.975  0.0568 -0.1121  0.4573
17618TIP3    H174269   1.039   6.173   3.069  0.5805  1.1534  0.5369
17618TIP3    H274270   1.139   6.214   2.963 -0.3295  0.3894 -0.6316
17619TIP3   OH274271   1.053   4.517   4.640 -0.3763  0.2663 -0.2943
17619TIP3    H174272   1.021   4.456   4.573  0.6963  1.0308 -1.5345
17619TIP3    H274273   1.123   4.566   4.597  0.7433  0.3977  1.5709
17620TIP3   OH274274   2.198   6.164  11.519 -0.0780 -0.2724 -0.2250
17620TIP3    H174275   2.113   6.127  11.497 -1.2280  1.0077  1.7533
17620TIP3    H274276   2.248   6.158  11.438 -2.5559  0.2815 -1.9355
17621TIP3   OH274277   0.350   6.509   5.811 -0.3417 -0.7946  0.2847
17621TIP3    H174278   0.392   6.516   5.896 -1.2765 -1.6203  0.8502
17621TIP3    H274279   0.415   6.540   5.748  1.0696 -1.9411  1.1207
17622TIP3   OH274280   3.305   1.532  13.597 -0.0734  0.3056  0.0677
17622TIP3    H174281   3.228   1.559  13.647 -1.8992 -0.4834 -2.1586
17622TIP3    H274282   3.353   1.613  13.580 -0.2304  0.7719  1.7010
17623TIP3   OH274283   0.755   2.217   3.059 -0.2741  0.2104 -0.1936
17623TIP3    H174284   0.798   2.179   2.982 -0.6735 -1.1043  0.2249
17623TIP3    H274285   0.663   2.225   3.034 -0.3313  0.1640  0.0009
17624TIP3   OH274286   5.878   5.041  12.710  0.1025  0.1879 -0.3361
17624TIP3    H174287   5.877   4.947  12.691 -0.1185  0.3472 -1.1438
17624TIP3    H274288   5.796   5.057  12.757 -0.6546  0.2539 -1.6394
17625TIP3   OH274289   3.307   3.287   4.021 -0.0777 -0.2997 -0.2847
17625TIP3    H174290   3.282   3.287   3.929 -0.4032  1.7788 -0.2378
17625TIP3    H274291   3.225   3.282   4.069  0.0606 -0.8447 -0.0972
17626TIP3   OH274292   2.883   6.126  14.101 -0.6601  0.2160  0.0179
17626TIP3    H174293   2.898   6.192  14.033  0.9512 -1.5460 -1.4221
17626TIP3    H274294   2.789   6.108  14.096 -0.6193  0.3406 -1.5359
17627TIP3   OH274295   4.002   1.425  12.744 -0.0870  0.2063  0.3061
17627TIP3    H174296   4.006   1.329  12.734  1.0464  0.1413  1.2209
17627TIP3    H274297   4.093   1.453  12.741 -0.4632  1.3898 -0.9373
17628TIP3   OH274298   1.727   2.344   3.160 -0.0044 -0.3032  0.0274
17628TIP3    H174299   1.691   2.283   3.225  2.1026 -1.0165  0.6114
17628TIP3    H274300   1.770   2.287   3.097 -0.7605  0.4707 -1.2103
17629TIP3   OH274301   3.622   3.307   5.017  0.2346  0.2874  0.1304
17629TIP3    H174302   3.677   3.360   4.959  2.4853 -1.5526  0.4150
17629TIP3    H274303   3.542   3.291   4.966  0.7570  1.4672 -1.1139
17630TIP3   OH274304   3.587   0.229  13.665  0.3138 -0.2173  0.1069
17630TIP3    H174305   3.543   0.154  13.705  1.7862 -0.2840  1.7258
17630TIP3    H274306   3.644   0.190  13.598 -0.0016 -0.4079 -0.0511
17631TIP3   OH274307   1.932   5.298  14.279  0.1596 -0.1821 -0.4110
17631TIP3    H174308   1.918   5.378  14.329  0.2661 -1.0072  0.9881
17631TIP3    H274309   1.854   5.291  14.223  0.5453  1.3121 -1.1990
17632TIP3   OH274310   0.339   1.491  15.456  0.2292  0.2656 -0.0354
17632TIP3    H174311   0.248   1.491  15.427  0.8812 -0.3859 -2.3406
17632TIP3    H274312   0.347   1.412  15.510 -0.6751  0.6381  0.6709
17633TIP3   OH274313   2.227   0.027   4.174 -0.1621 -0.2144  0.7809
17633TIP3    H174314   2.223  -0.005   4.264  2.6416 -1.1504  0.6535
17633TIP3    H274315   2.228  -0.052   4.120  1.0727  0.2229  0.1203
17634TIP3   OH274316   5.233   2.758   2.870  0.6745 -0.4806  0.0651
17634TIP3    H174317   5.241   2.849   2.842  0.3309 -1.3883 -3.3478
17634TIP3    H274318   5.312   2.716   2.838 -0.7523 -2.0522 -1.5903
17635TIP3   OH274319   2.505   4.846  15.156 -0.2709 -0.6684 -0.3494
17635TIP3    H174320   2.599   4.846  15.136 -0.1748  1.0482 -0.0314
17635TIP3    H274321   2.494   4.913  15.223 -1.7915 -0.5057 -0.7111
17636TIP3   OH274322   4.900   1.812   6.565 -0.2121 -0.5375 -0.4390
17636TIP3    H174323   4.845   1.758   6.622  0.7052 -0.5603  0.4577
17636TIP3    H274324   4.980   1.760   6.552  0.5112  0.4104  0.0909
17637TIP3   OH274325   1.805   6.117   4.760 -0.1522 -0.1408 -0.0917
17637TIP3    H174326   1.798   6.066   4.840  0.0694 -0.5823 -0.3524
17637TIP3    H274327   1.763   6.063   4.693  0.6816 -0.2876 -0.5056
17638TIP3   OH274328   5.530   5.314  12.174  0.4030  0.2681 -0.4685
17638TIP3    H174329   5.498   5.369  12.245  0.5690  0.2932 -0.4139
17638TIP3    H274330   5.534   5.372  12.098 -0.3901  0.0898 -0.6587
17639TIP3   OH274331   0.425   3.049   1.208  0.1635  0.3653  0.2318
17639TIP3    H174332   0.405   3.033   1.116 -2.1304 -0.3992  0.7879
17639TIP3    H274333   0.518   3.030   1.216 -0.3186 -3.7891 -1.1635
17640TIP3   OH274334   5.326   2.032   0.421  0.2617  0.0825 -0.9698
17640TIP3    H174335   5.383   1.994   0.487 -0.1508  0.1382 -0.5717
17640TIP3    H274336   5.384   2.053   0.347  0.7618  0.2029 -0.5482
17641TIP3   OH274337   4.022   2.686  17.203 -0.2854  0.4485  0.2887
17641TIP3    H174338   4.082   2.659  17.273  0.0132  1.9140  0.6251
17641TIP3    H274339   4.029   2.781  17.200  0.7037  0.3820 -2.6445
17642TIP3   OH274340   6.134   3.711   4.527  0.0734 -0.0104 -0.3711
17642TIP3    H174341   6.124   3.767   4.451 -0.0751 -0.1425 -0.4512
17642TIP3    H274342   6.046   3.676   4.542 -0.0646  0.6048  0.3195
17643TIP3   OH274343   5.830   2.682   2.762 -0.0816 -0.3568  0.6051
17643TIP3    H174344   5.772   2.612   2.730  0.3284 -0.4202 -0.0033
17643TIP3    H274345   5.902   2.636   2.804 -0.1653 -0.2849  0.8289
17644TIP3   OH274346   2.726   3.927   5.915  0.0981 -0.2302  0.1672
17644TIP3    H174347   2.796   3.915   5.978  0.2910 -0.8019 -0.1470
17644TIP3    H274348   2.770   3.926   5.830 -0.0687  1.2023  0.0328
17645TIP3   OH274349   3.516   6.318  15.807 -0.2123  0.5267  0.4840
17645TIP3    H174350   3.475   6.404  15.812  0.7793  0.9795  0.9957
17645TIP3    H274351   3.470   6.266  15.873 -0.2201  0.9154  0.7862
17646TIP3   OH274352   1.463   4.136  12.011 -0.7382 -0.5638  0.0952
17646TIP3    H174353   1.451   4.169  11.922  0.5057 -0.2403  0.0287
17646TIP3    H274354   1.374   4.133  12.048 -1.2382 -0.4660 -1.0616
17647TIP3   OH274355   0.707   0.437   5.565  0.0487 -0.5313  0.6094
17647TIP3    H174356   0.714   0.532   5.559 -0.9291 -0.3956  1.3415
17647TIP3    H274357   0.719   0.417   5.658  1.9053 -1.3051  0.2546
17648TIP3   OH274358   5.042   2.326   0.732  0.3124 -0.3072 -0.3556
17648TIP3    H174359   5.043   2.373   0.816  1.9375  0.3923 -0.7277
17648TIP3    H274360   5.034   2.394   0.666 -0.0955 -0.7880 -0.8100
17649TIP3   OH274361   0.016   4.339  12.170  0.2255  0.1586  0.1662
17649TIP3    H174362   0.106   4.348  12.137  0.9011 -1.2244  1.4886
17649TIP3    H274363   0.027   4.316  12.263 -1.4315 -1.9009 -0.0851
17650TIP3   OH274364   2.652   3.266  17.084  0.0772 -0.3201  0.8193
17650TIP3    H174365   2.726   3.276  17.144 -0.3473  0.3475  1.2346
17650TIP3    H274366   2.621   3.177  17.098 -0.9888  0.3085  2.7218
17651TIP3   OH274367   6.453   1.981   4.558 -0.1128 -0.0348 -0.0631
17651TIP3    H174368   6.532   1.983   4.504 -0.2212 -1.4610 -0.3260
17651TIP3    H274369   6.382   1.972   4.496 -0.3049 -0.8599  0.2632
17652TIP3   OH274370   2.153   3.411  11.234  0.0325 -0.6393 -0.1849
17652TIP3    H174371   2.239   3.373  11.251  1.2650  1.7556 -0.6642
17652TIP3    H274372   2.140   3.400  11.140 -0.1279 -0.9035 -0.1313
17653TIP3   OH274373   1.412   2.356  12.231 -0.1702  0.0523 -0.1717
17653TIP3    H174374   1.344   2.414  12.265 -2.0719 -2.1293  0.0250
17653TIP3    H274375   1.492   2.409  12.230 -1.0681  1.6842  3.0266
17654TIP3   OH274376   2.498   0.056   2.004  0.0494  0.2297 -0.2422
17654TIP3    H174377   2.525   0.109   1.929 -0.3157 -1.8350 -1.9292
17654TIP3    H274378   2.570  -0.006   2.017 -0.8182 -0.8258 -0.3030
17655TIP3   OH274379   4.759   3.317   0.597 -0.3595  0.0508  0.4589
17655TIP3    H174380   4.753   3.404   0.558  1.4625  0.6676  1.4532
17655TIP3    H274381   4.774   3.258   0.522  0.8259  0.9117 -0.0076
17656TIP3   OH274382   0.505   3.695   3.464 -0.2524 -0.5789  0.0400
17656TIP3    H174383   0.553   3.689   3.381 -1.8889  1.8450 -1.1951
17656TIP3    H274384   0.428   3.639   3.451  0.7147 -2.1831  0.9351
17657TIP3   OH274385   4.366   4.216  13.651 -0.1956  0.0174 -0.6663
17657TIP3    H174386   4.292   4.162  13.676  0.8970 -0.4592  1.8393
17657TIP3    H274387   4.435   4.154  13.626  0.2833  0.3292 -0.1474
17658TIP3   OH274388   1.624   6.311   4.472  0.3675 -0.1794 -0.1685
17658TIP3    H174389   1.603   6.219   4.456  0.2094 -0.5469  1.9090
17658TIP3    H274390   1.547   6.346   4.518 -0.7040  1.7418 -3.1476
17659TIP3   OH274391   4.619   6.068   2.458  0.0949  0.0785  0.1360
17659TIP3    H174392   4.574   6.108   2.533 -3.1927 -0.6321 -1.3008
17659TIP3    H274393   4.630   5.976   2.482 -3.5477 -0.8462 -1.1403
17660TIP3   OH274394   0.519   0.403  11.603  0.5178 -0.6955  0.2213
17660TIP3    H174395   0.535   0.333  11.539  2.1799  0.5685 -0.8343
17660TIP3    H274396   0.542   0.483  11.557  0.1660  0.4150  1.8991
17661TIP3   OH274397   4.620   6.403   4.147 -0.4102  0.1304  0.0258
17661TIP3    H174398   4.642   6.332   4.086 -0.1720 -0.3622  0.6721
17661TIP3    H274399   4.529   6.424   4.127  0.2290  1.3320 -1.8313
17662TIP3   OH274400   3.539   4.727  16.225 -0.4568  0.4058  0.2309
17662TIP3    H174401   3.493   4.684  16.297 -1.2937 -1.1023 -1.1379
17662TIP3    H274402   3.564   4.655  16.167 -1.0993  1.6965 -1.7200
17663TIP3   OH274403   0.251   1.310   2.934 -0.0077 -0.7046 -0.3266
17663TIP3    H174404   0.235   1.227   2.979  1.2630 -1.1792 -0.7057
17663TIP3    H274405   0.307   1.287   2.860  1.1289  0.6027  0.0762
17664TIP3   OH274406   1.033   3.767   2.877  0.1925 -0.2516 -0.4956
17664TIP3    H174407   1.103   3.704   2.897 -0.5198 -0.5348  1.3467
17664TIP3    H274408   1.036   3.777   2.782  2.9723  0.0318 -0.4819
17665TIP3   OH274409   6.448   2.635  16.943 -0.0571  0.0966 -0.5452
17665TIP3    H174410   6.442   2.633  17.038  0.0664 -0.5801 -0.5486
17665TIP3    H274411   6.504   2.710  16.924  1.2922 -0.7396 -0.0109
17666TIP3   OH274412   1.431   2.496   6.415  0.3932  0.4585 -0.5494
17666TIP3    H174413   1.456   2.450   6.495  1.4206  0.8689 -0.6215
17666TIP3    H274414   1.477   2.580   6.419  0.2716  0.5876 -1.4522
17667TIP3   OH274415   6.577   5.796  11.033 -0.9751  0.3141 -0.1494
17667TIP3    H174416   6.594   5.854  11.107  3.3843 -1.8984  0.9602
17667TIP3    H274417   6.590   5.851  10.956  0.3582  1.4720  0.8436
17668TIP3   OH274418   4.708   6.450   1.664 -0.3547 -0.4252  0.6556
17668TIP3    H174419   4.697   6.462   1.758  2.0863  2.3171  0.7388
17668TIP3    H274420   4.659   6.522   1.625 -0.6333 -1.0293 -0.1312
17669TIP3   OH274421   0.940   5.279  16.972  0.5851 -0.4237  0.1141
17669TIP3    H174422   0.881   5.295  16.899  2.2855 -0.4782 -1.3570
17669TIP3    H274423   0.941   5.361  17.022 -1.3096 -0.6979  0.6677
17670TIP3   OH274424   4.828   5.320   5.140 -0.2705 -0.3351 -0.8022
17670TIP3    H174425   4.875   5.373   5.076 -2.0442  0.8790 -1.1714
17670TIP3    H274426   4.750   5.372   5.162  0.0200 -0.9011  2.0060
17671TIP3   OH274427   5.504   1.546   2.413 -0.0539  0.4031  0.0521
17671TIP3    H174428   5.513   1.568   2.320  0.0909  0.8793  0.1753
17671TIP3    H274429   5.565   1.606   2.458 -0.2296  0.2772  0.4657
17672TIP3   OH274430   2.819   6.077  15.910  0.3570 -0.1272  0.4002
17672TIP3    H174431   2.901   6.081  15.860  0.8315  0.0239  1.1795
17672TIP3    H274432   2.831   6.141  15.980 -1.1747  1.2587 -0.5468
17673TIP3   OH274433   1.127   4.908  12.567 -1.1172 -0.4882 -0.4076
17673TIP3    H174434   1.176   4.840  12.612 -1.6810 -1.0158 -0.5726
17673TIP3    H274435   1.179   4.927  12.489 -1.2667 -1.1789 -0.6813
17674TIP3   OH274436   4.206   1.718  16.550  0.2056  0.6773  0.0849
17674TIP3    H174437   4.270   1.656  16.584 -1.9667 -0.6069  2.1342
17674TIP3    H274438   4.214   1.795  16.606 -1.1459 -0.1577  1.4774
17675TIP3   OH274439   2.212   1.245  15.402 -0.1038 -0.0124  0.2936
17675TIP3    H174440   2.189   1.181  15.335  1.0180 -0.8079  0.6379
17675TIP3    H274441   2.282   1.297  15.363 -0.7652  0.7807  0.1499
17676TIP3   OH274442   5.009   4.453   6.436  0.2232 -0.3625  0.5376
17676TIP3    H174443   5.002   4.433   6.343 -0.6743 -0.9988  0.7351
17676TIP3    H274444   5.015   4.549   6.440 -1.6392 -0.1930 -0.0747
17677TIP3   OH274445   2.236   4.382   1.358  0.0018  0.4753 -0.0425
17677TIP3    H174446   2.265   4.394   1.448  1.2729  0.6714 -0.4568
17677TIP3    H274447   2.317   4.369   1.308 -0.6738  0.4481 -1.1673
17678TIP3   OH274448   2.244   3.289   1.601  0.1027 -0.3751 -0.3711
17678TIP3    H174449   2.259   3.357   1.536 -2.3817  1.2031  0.5153
17678TIP3    H274450   2.330   3.270   1.637  1.2097  0.3969 -2.4708
17679TIP3   OH274451   3.745   1.832  12.169 -0.1827 -0.0299  0.3977
17679TIP3    H174452   3.664   1.847  12.120 -0.4684 -1.6128  0.3250
17679TIP3    H274453   3.729   1.751  12.217  0.6772  0.6378  1.8758
17680TIP3   OH274454   5.945   3.291  13.744  0.5829 -0.0639  0.3657
17680TIP3    H174455   5.952   3.205  13.702 -0.3069  0.1733 -0.3010
17680TIP3    H274456   6.032   3.309  13.778  0.5111 -1.7928  1.5996
17681TIP3   OH274457   5.470   4.745   3.506 -0.5540  0.2592  1.0600
17681TIP3    H174458   5.480   4.735   3.411 -1.7210  0.1308  0.9355
17681TIP3    H274459   5.553   4.714   3.542  0.0757  0.7094  0.0610
17682TIP3   OH274460   6.557   4.872   3.807 -0.0921 -0.0150  0.0008
17682TIP3    H174461   6.616   4.818   3.754  0.6166  1.1784 -0.4768
17682TIP3    H274462   6.560   4.832   3.894  2.9852  1.0576  0.5343
17683TIP3   OH274463   4.122   4.278   5.056  0.0676  0.5046  0.1972
17683TIP3    H174464   4.183   4.204   5.062  0.2507  0.5616 -0.9052
17683TIP3    H274465   4.165   4.341   4.998 -0.2108  1.3722  0.9049
17684TIP3   OH274466   3.756   0.957   5.406  0.0105  0.3107  0.0478
17684TIP3    H174467   3.662   0.969   5.417 -0.1988 -0.7021 -0.4721
17684TIP3    H274468   3.773   0.870   5.442  0.4107 -0.2960 -1.5153
17685TIP3   OH274469   0.606   6.116  13.906  0.3451  0.2666  0.1612
17685TIP3    H174470   0.580   6.075  13.824 -0.1777  1.3058 -0.2126
17685TIP3    H274471   0.543   6.085  13.970 -0.2575  0.7369 -0.1941
17686TIP3   OH274472   5.837   3.926  12.199 -0.3608 -0.2184 -0.1158
17686TIP3    H174473   5.882   3.897  12.120 -0.4521 -0.4534 -0.0814
17686TIP3    H274474   5.890   3.891  12.271 -0.8429 -0.8855 -0.0754
17687TIP3   OH274475   3.655   5.759   4.895 -0.1567  0.4854  0.5182
17687TIP3    H174476   3.682   5.714   4.975 -0.4728 -1.8289 -0.5977
17687TIP3    H274477   3.639   5.689   4.832 -1.2853  2.1628 -1.1718
17688TIP3   OH274478   6.339   6.721   3.868 -0.1003 -0.2717 -0.2685
17688TIP3    H174479   6.284   6.796   3.846  0.2038  0.4854  1.3769
17688TIP3    H274480   6.299   6.647   3.821 -0.5080  0.8700 -1.7749
17689TIP3   OH274481   5.850   0.579  15.175  0.5622 -0.2017 -0.2196
17689TIP3    H174482   5.834   0.528  15.254 -0.1221 -0.6568 -0.6448
17689TIP3    H274483   5.764   0.614  15.151  0.6778 -0.4442 -1.0206
17690TIP3   OH274484   6.230   2.627  11.072 -0.6580  0.9958  0.1222
17690TIP3    H174485   6.167   2.556  11.056  2.6960 -2.6220  1.1924
17690TIP3    H274486   6.263   2.650  10.985 -1.4719  0.9147 -0.2147
17691TIP3   OH274487   4.163   1.148   5.642  0.4117 -0.3266  0.0719
17691TIP3    H174488   4.153   1.185   5.554 -0.9289  0.7608  0.6399
17691TIP3    H274489   4.251   1.173   5.669  0.9492 -0.9051 -1.0329
17692TIP3   OH274490   6.188   3.300  14.585  0.1017  0.4004  0.2620
17692TIP3    H174491   6.161   3.372  14.530 -0.2166  0.0968  0.0183
17692TIP3    H274492   6.185   3.223  14.528  0.2097  0.1557  0.5793
17693TIP3   OH274493   4.647   6.246  11.664 -0.0355 -0.2480 -0.1552
17693TIP3    H174494   4.721   6.279  11.716  0.2251 -0.8793 -0.1236
17693TIP3    H274495   4.685   6.178  11.608 -0.4309  0.0023 -0.7422
17694TIP3   OH274496   2.299   2.585  14.124 -0.3518 -0.3745 -0.5390
17694TIP3    H174497   2.254   2.524  14.184 -1.8944  0.2370 -1.0104
17694TIP3    H274498   2.227   2.631  14.080  0.7715  0.2803 -1.7335
17695TIP3   OH274499   0.770   6.667  11.211  0.1666 -0.2270 -0.0837
17695TIP3    H174500   0.693   6.718  11.189 -1.7820 -2.9292  0.0129
17695TIP3    H274501   0.790   6.616  11.131  1.9533  0.4818 -0.1470
17696TIP3   OH274502   1.276   3.504   2.332  0.5115 -0.0670  0.1858
17696TIP3    H174503   1.330   3.433   2.295 -0.0929 -0.8985  0.8481
17696TIP3    H274504   1.306   3.583   2.287  1.2827 -0.7261 -0.4963
17697TIP3   OH274505   0.055   3.024  16.302  0.4235 -0.0212 -0.2169
17697TIP3    H174506   0.121   2.957  16.315  0.1320 -0.2747 -0.0467
17697TIP3    H274507   0.097   3.105  16.330  0.4655 -0.2645  0.4340
17698TIP3   OH274508   3.523   3.834  12.264 -0.0033 -0.3816  0.6683
17698TIP3    H174509   3.472   3.909  12.297 -1.0489 -1.2493  1.0941
17698TIP3    H274510   3.613   3.865  12.264 -0.0971  0.1373  3.0854
17699TIP3   OH274511   1.888   6.532  12.184  0.3412  0.5834  0.0605
17699TIP3    H174512   1.869   6.493  12.269 -0.3268  1.4517  0.3326
17699TIP3    H274513   1.979   6.509  12.166 -0.0879 -1.2424  0.1051
17700TIP3   OH274514   0.634   6.325  12.869  0.5015  0.0227  0.3426
17700TIP3    H174515   0.546   6.305  12.902  0.0943 -2.2927 -1.8579
17700TIP3    H274516   0.623   6.406  12.819  0.3847  1.5183  2.6130
17701TIP3   OH274517   1.776   1.702   5.015  0.7011 -0.2028 -0.5306
17701TIP3    H174518   1.733   1.619   5.037 -1.0959  0.6692 -0.5519
17701TIP3    H274519   1.760   1.713   4.921 -0.0607  0.6613 -0.3219
17702TIP3   OH274520   3.431   5.048   3.336  0.3001  0.6720  0.3087
17702TIP3    H174521   3.335   5.045   3.328  0.4790 -0.7693 -3.9566
17702TIP3    H274522   3.450   4.987   3.407 -1.9562 -1.5451 -0.7772
17703TIP3   OH274523   3.683   2.174   4.962 -0.2348  0.3779 -0.0021
17703TIP3    H174524   3.744   2.238   4.926 -0.8007 -0.2969 -2.3244
17703TIP3    H274525   3.728   2.137   5.038  1.0914  1.7805 -0.0614
17704TIP3   OH274526   0.098   6.442   4.161 -0.0094 -0.0731  0.1759
17704TIP3    H174527   0.049   6.362   4.143 -1.4170  0.6874  0.4719
17704TIP3    H274528   0.041   6.513   4.129  1.1363  0.8237  0.0457
17705TIP3   OH274529   5.546   1.689   5.094  0.0665 -0.2154 -0.4082
17705TIP3    H174530   5.490   1.766   5.088 -0.1143 -0.3799 -0.8967
17705TIP3    H274531   5.487   1.615   5.076 -0.2239 -0.6726  2.0335
17706TIP3   OH274532   5.785   3.162  15.575  0.6617  0.4397 -0.1780
17706TIP3    H174533   5.738   3.148  15.492 -0.2130  1.0684  0.1874
17706TIP3    H274534   5.717   3.192  15.636  1.5975  1.7829  0.2620
17707TIP3   OH274535   0.700   4.780  14.078  0.8193 -0.7229 -0.2231
17707TIP3    H174536   0.729   4.854  14.131 -0.4817 -0.1469 -0.2855
17707TIP3    H274537   0.655   4.722  14.141 -0.8864  0.0475 -0.6832
17708TIP3   OH274538   0.319   6.107  11.054  0.0917 -0.2510 -0.4646
17708TIP3    H174539   0.354   6.033  11.104  2.3854 -0.4351 -2.2014
17708TIP3    H274540   0.380   6.118  10.981 -0.6787  2.7890 -0.7827
17709TIP3   OH274541   4.592   1.740  16.782 -0.4772 -0.3693  0.1781
17709TIP3    H174542   4.553   1.746  16.869 -1.6059  0.2262 -0.3379
17709TIP3    H274543   4.677   1.698  16.796 -0.9982 -1.0593  1.4461
17710TIP3   OH274544   0.725   1.306  16.156 -0.1900 -0.0300 -0.0681
17710TIP3    H174545   0.710   1.223  16.111  0.3593  0.3517 -0.9832
17710TIP3    H274546   0.806   1.340  16.118  1.2489 -0.4666  2.4032
17711TIP3   OH274547   6.469   4.349  11.627 -0.5243 -0.1363  0.0611
17711TIP3    H174548   6.528   4.375  11.698  0.4080 -1.1392 -0.3174
17711TIP3    H274549   6.478   4.253  11.622  0.2746 -0.0002 -2.1040
17712TIP3   OH274550   2.458   3.657  10.814 -0.2725 -0.0704  0.7001
17712TIP3    H174551   2.444   3.690  10.725  0.9789  0.3512  0.6474
17712TIP3    H274552   2.401   3.580  10.820 -0.6891  0.1432 -0.3212
17713TIP3   OH274553   2.640   3.435  11.036  0.0591 -0.0365 -0.0021
17713TIP3    H174554   2.689   3.360  11.001  0.8685 -0.1058  1.1911
17713TIP3    H274555   2.699   3.472  11.102 -0.3666  1.6061 -0.5093
17714TIP3   OH274556   6.181   0.915  11.986  0.4193 -0.0196 -0.0643
17714TIP3    H174557   6.222   0.937  12.070  0.7328  0.0668 -0.2382
17714TIP3    H274558   6.163   0.999  11.945 -0.2919 -0.0470  0.1791
17715TIP3   OH274559   3.104   3.913  17.376 -0.4922 -0.0434  0.2169
17715TIP3    H174560   3.125   3.892  17.285  1.3629 -0.4520  0.7010
17715TIP3    H274561   3.178   3.966  17.407 -1.6651  1.1239  1.1561
17716TIP3   OH274562   5.221   0.132  12.418  0.2088  0.0716  0.7152
17716TIP3    H174563   5.257   0.158  12.333  2.0289  1.7279  1.9230
17716TIP3    H274564   5.214   0.036  12.413 -1.0052  0.2048 -1.7316
17717TIP3   OH274565   3.377   2.142  12.142 -0.3925 -0.9319  0.0625
17717TIP3    H174566   3.310   2.197  12.181 -1.4374 -1.2423 -1.1932
17717TIP3    H274567   3.406   2.084  12.213 -1.5721 -0.8851  0.6034
17718TIP3   OH274568   2.763   2.958   6.715 -0.2404 -0.2544  0.2588
17718TIP3    H174569   2.850   2.975   6.752  0.2480 -0.0305 -0.9285
17718TIP3    H274570   2.709   3.030   6.746  0.4814  0.6294 -0.4735
17719TIP3   OH274571   2.221   0.576   4.384  0.0074 -0.2007 -0.2201
17719TIP3    H174572   2.244   0.627   4.462 -0.2585  3.2263 -2.1622
17719TIP3    H274573   2.305   0.551   4.346  0.3659  2.4282 -1.3373
17720TIP3   OH274574   5.168   1.523   0.347  0.0811 -0.4564  0.5767
17720TIP3    H174575   5.140   1.614   0.358  0.2494 -0.5824  2.2171
17720TIP3    H274576   5.244   1.529   0.289 -0.4443  0.3498 -0.0579
17721TIP3   OH274577   3.167   6.723  14.889 -0.3779 -0.0039  0.4625
17721TIP3    H174578   3.223   6.740  14.965 -0.8326  1.6405  0.4734
17721TIP3    H274579   3.115   6.647  14.915  1.2982 -1.1097  0.7389
17722TIP3   OH274580   1.935   1.270  15.415  0.1271  0.3476 -0.3794
17722TIP3    H174581   1.891   1.342  15.459  0.7600  0.7306 -0.3482
17722TIP3    H274582   2.025   1.272  15.450  0.4295  0.1917 -1.1202
17723TIP3   OH274583   0.540   1.009  12.618 -0.4343  0.2284 -0.3131
17723TIP3    H174584   0.603   1.052  12.675  1.2332 -1.4124 -0.8128
17723TIP3    H274585   0.458   1.055  12.634  0.5562  1.5241  1.4197
17724TIP3   OH274586   3.231   0.740   5.611 -0.4547 -0.2340  0.1952
17724TIP3    H174587   3.154   0.693   5.580 -0.7085  0.1328  0.2688
17724TIP3    H274588   3.281   0.674   5.659 -0.8166 -0.4234  0.3157
17725TIP3   OH274589   5.287   6.567   5.460  0.4055 -0.1599 -0.6823
17725TIP3    H174590   5.235   6.593   5.384  1.6837  2.6856 -0.7502
17725TIP3    H274591   5.223   6.543   5.527 -0.9996  2.0827 -1.1211
17726TIP3   OH274592   3.915   5.822   1.967 -0.1735  0.3912 -0.3690
17726TIP3    H174593   3.978   5.768   1.919 -1.0427 -0.3316 -0.7280
17726TIP3    H274594   3.844   5.839   1.904 -0.0913  1.6598 -0.1496
17727TIP3   OH274595   5.398   0.765   1.337  0.0580  0.2010  0.0766
17727TIP3    H174596   5.447   0.841   1.369  0.5119 -0.2151  0.3802
17727TIP3    H274597   5.466   0.705   1.306 -0.3160  0.0796 -0.5274
17728TIP3   OH274598   4.717   4.475   0.586 -0.1313  0.4429 -0.2702
17728TIP3    H174599   4.813   4.473   0.587 -0.1462 -0.0649  0.8127
17728TIP3    H274600   4.696   4.537   0.516  1.0540  3.9555  2.1894
17729TIP3   OH274601   2.124   6.503   2.048 -0.6267 -0.0090 -0.1321
17729TIP3    H174602   2.137   6.496   1.953  0.2971 -0.3006  0.0031
17729TIP3    H274603   2.041   6.459   2.064 -2.4310  2.7439 -1.1913
17730TIP3   OH274604   4.119   6.668  16.744  0.7117 -0.7073 -0.1564
17730TIP3    H174605   4.179   6.618  16.798  2.9465  1.2937 -0.6188
17730TIP3    H274606   4.062   6.603  16.704  0.7584 -2.4645  2.4014
17731TIP3   OH274607   1.321   1.450  17.057 -0.3998 -0.1884 -0.7168
17731TIP3    H174608   1.353   1.486  17.140  2.4170 -3.1554 -0.2991
17731TIP3    H274609   1.241   1.403  17.080  0.7899 -1.6904  0.6131
17732TIP3   OH274610   1.210   3.652  16.459  0.1522  0.1188 -0.2657
17732TIP3    H174611   1.191   3.668  16.551 -1.8229 -0.7847 -0.4640
17732TIP3    H274612   1.207   3.738  16.419  0.2935  0.4389  0.3959
17733TIP3   OH274613   2.462   4.352   0.974 -0.2759  0.1644 -0.2290
17733TIP3    H174614   2.430   4.442   0.970 -1.0156 -0.0707  0.3138
17733TIP3    H274615   2.420   4.314   1.051 -1.3495 -1.1557 -1.3976
17734TIP3   OH274616   0.871   3.150   2.994  0.2277 -0.1579 -0.4404
17734TIP3    H174617   0.860   3.137   2.899 -3.0894  0.6205 -0.2786
17734TIP3    H274618   0.902   3.065   3.026  0.4070 -0.7602 -2.1018
17735TIP3   OH274619   2.729   3.004   1.062  0.0583  0.1050 -0.1424
17735TIP3    H174620   2.737   3.026   0.969 -0.9121 -1.9738 -0.7937
17735TIP3    H274621   2.710   3.087   1.105  0.3573  1.0972 -1.8187
17736TIP3   OH274622   5.732   1.086  14.190  0.4027 -0.1662 -0.3549
17736TIP3    H174623   5.787   1.106  14.114  0.4960 -1.3108 -0.6057
17736TIP3    H274624   5.772   1.007  14.228 -2.0608 -2.1847 -1.6049
17737TIP3   OH274625   1.000   0.074   5.692 -0.3616 -0.1317 -0.1241
17737TIP3    H174626   0.981   0.168   5.703 -1.1684 -0.4261  1.1918
17737TIP3    H274627   1.081   0.061   5.741  0.5102  0.1103 -1.4381
17738TIP3   OH274628   2.495   0.155  16.367  0.6896  0.5354  0.3532
17738TIP3    H174629   2.496   0.092  16.439  1.7678 -2.2083 -1.8728
17738TIP3    H274630   2.406   0.190  16.365 -0.8956 -3.1482  0.0066
17739TIP3   OH274631   6.173   4.518  14.708  0.3241 -0.2764  0.2456
17739TIP3    H174632   6.123   4.574  14.649  1.7242  1.4347  0.5948
17739TIP3    H274633   6.168   4.562  14.793  0.6583 -1.2091  0.7559
17740TIP3   OH274634   4.675   6.471  12.251  0.7254  0.0714  0.3426
17740TIP3    H174635   4.742   6.513  12.197  1.0443 -0.6914  0.1265
17740TIP3    H274636   4.701   6.378  12.253 -1.9633 -0.8530 -2.2178
17741TIP3   OH274637   5.410   6.074  12.839 -0.3219  0.0251  0.5808
17741TIP3    H174638   5.473   6.029  12.784 -0.4921 -0.0321  0.4287
17741TIP3    H274639   5.325   6.056  12.798 -0.8685 -2.6451  2.5520
17742TIP3   OH274640   3.929   6.076  16.293 -0.6543  0.0783 -0.0556
17742TIP3    H174641   3.936   6.143  16.225 -0.6942 -0.6533 -0.7956
17742TIP3    H274642   3.841   6.089  16.329 -0.4739  0.7486  0.1596
17743TIP3   OH274643   5.962   3.779  11.341 -0.7748 -0.0981 -0.4990
17743TIP3    H174644   5.956   3.764  11.247  0.8246 -2.9353 -0.2607
17743TIP3    H274645   6.056   3.778  11.360 -1.0778 -0.3663  1.2037
17744TIP3   OH274646   1.460   4.676   1.427  0.6450  0.3651 -0.2873
17744TIP3    H174647   1.476   4.637   1.512 -0.1725 -1.5403 -0.9496
17744TIP3    H274648   1.455   4.770   1.444  0.6037  0.0366  1.7280
17745TIP3   OH274649   6.650   3.565   5.229  0.6184  0.0300  0.0818
17745TIP3    H174650   6.701   3.637   5.192  0.1459  0.7418  0.7784
17745TIP3    H274651   6.578   3.552   5.168  0.1257  0.8579  0.4700
17746TIP3   OH274652   2.591   4.502   3.052 -0.6080  0.1564  0.6310
17746TIP3    H174653   2.640   4.452   3.118  0.1489  0.9933  0.7201
17746TIP3    H274654   2.635   4.587   3.049  0.0885 -0.1973 -1.7328
17747TIP3   OH274655   5.565   1.336  15.307 -0.3028 -0.0203 -0.3698
17747TIP3    H174656   5.534   1.420  15.341 -0.7802  0.1888 -1.3038
17747TIP3    H274657   5.494   1.275  15.325 -0.2513 -0.0708 -0.3361
17748TIP3   OH274658   0.610   3.227  16.418  0.2536  0.2514 -0.8982
17748TIP3    H174659   0.694   3.255  16.382  1.0822 -1.2891 -0.2704
17748TIP3    H274660   0.625   3.224  16.513 -0.5658  0.1244 -0.7684
17749TIP3   OH274661   0.778   5.655  16.914 -0.4636 -0.0458  0.1126
17749TIP3    H174662   0.736   5.726  16.963 -3.1452 -0.6577 -1.1506
17749TIP3    H274663   0.714   5.584  16.914  1.3657 -1.7955 -0.3146
17750TIP3   OH274664   2.077   1.957   2.934  0.4439 -0.5697 -0.2256
17750TIP3    H174665   2.058   1.937   2.842 -0.1013 -0.9373 -0.0357
17750TIP3    H274666   2.090   1.872   2.975  0.0015 -0.4436  0.1828
17751TIP3   OH274667   5.502   4.664  15.217  0.3373 -0.3423  0.1892
17751TIP3    H174668   5.507   4.577  15.178  0.3306 -0.6394  0.8285
17751TIP3    H274669   5.542   4.722  15.153  0.2560 -0.8031 -0.2868
17752TIP3   OH274670   4.710   4.207   0.381 -0.4145 -0.1757 -0.5620
17752TIP3    H174671   4.718   4.261   0.460 -0.1436 -1.1927  0.1145
17752TIP3    H274672   4.645   4.253   0.328 -0.2503  0.7738  0.0345
17753TIP3   OH274673   3.989   1.720   0.918  0.2733  0.3389 -0.8377
17753TIP3    H174674   3.909   1.703   0.869  2.1828 -2.3622 -3.3116
17753TIP3    H274675   3.974   1.680   1.004 -1.0524  0.0273 -1.2041
17754TIP3   OH274676   4.830   2.590  14.720  0.6072 -0.0344 -0.1396
17754TIP3    H174677   4.830   2.680  14.688  0.5107 -0.3121 -0.9479
17754TIP3    H274678   4.840   2.598  14.815  2.1537  0.7676 -0.3438
17755TIP3   OH274679   2.902   6.540  17.133  0.2706 -0.4655  0.7883
17755TIP3    H174680   2.982   6.594  17.127  0.3578 -0.3617  2.4063
17755TIP3    H274681   2.892   6.504  17.046  1.2922  0.6620  0.1567
17756TIP3   OH274682   0.216   2.897   4.026  0.3945 -0.2147  0.8309
17756TIP3    H174683   0.218   2.876   4.119  0.0417  0.8309  1.0875
17756TIP3    H274684   0.308   2.903   4.000  0.4922 -0.5956  1.0893
17757TIP3   OH274685   5.151   2.501  14.843  0.5167 -0.1264  0.2867
17757TIP3    H174686   5.099   2.432  14.802 -1.1921 -0.4446  2.7497
17757TIP3    H274687   5.162   2.567  14.774  0.3657 -1.8983 -1.4937
17758TIP3   OH274688   4.238   6.404   1.014  0.3517 -0.1919  0.2775
17758TIP3    H174689   4.313   6.344   1.012  0.6297  0.0529  1.7065
17758TIP3    H274690   4.191   6.380   1.094 -0.7501  0.0749 -0.2780
17759TIP3   OH274691   0.657   6.086   5.449 -0.2628  0.1266 -0.6187
17759TIP3    H174692   0.728   6.116   5.506 -0.9570  0.7927 -0.0884
17759TIP3    H274693   0.675   6.129   5.365  0.3755 -0.3060 -0.7096
17760TIP3   OH274694   2.701   2.324   0.956  0.6676  0.0608 -0.7911
17760TIP3    H174695   2.668   2.343   1.044  0.8255 -3.0590  0.0721
17760TIP3    H274696   2.736   2.408   0.925 -0.5963  1.5809  1.5438
17761TIP3   OH274697   5.102   6.512   5.680  0.6104  0.4623  0.6683
17761TIP3    H174698   5.046   6.577   5.723  0.3386 -0.2876  1.4755
17761TIP3    H274699   5.113   6.444   5.746  2.1240  0.3911  0.3595
17762TIP3   OH274700   3.153   5.244  16.729 -0.3783 -0.4294 -0.4576
17762TIP3    H174701   3.066   5.210  16.708 -0.2567 -0.7185 -0.4957
17762TIP3    H274702   3.147   5.338  16.711 -0.8480 -0.3466  0.0807
17763TIP3   OH274703   6.391   5.046  12.522  0.1615  0.3917 -0.5880
17763TIP3    H174704   6.397   4.951  12.517 -0.9006  0.2870  0.0168
17763TIP3    H274705   6.455   5.071  12.589 -1.2529 -0.1212  1.0026
17764TIP3   OH274706   1.819   5.850   4.375  0.2804  0.4351 -0.2739
17764TIP3    H174707   1.877   5.776   4.355  0.6154  0.3302  1.0461
17764TIP3    H274708   1.873   5.928   4.356 -0.1002  0.3742 -1.7443
17765TIP3   OH274709   4.047   2.450   1.233  0.1903 -0.3453 -0.0257
17765TIP3    H174710   4.122   2.411   1.277  0.4197  1.2905  1.1216
17765TIP3    H274711   3.972   2.396   1.259  0.2143  0.8705  2.9462
17766TIP3   OH274712   5.776   0.202  14.062  0.0648 -0.5127  0.2204
17766TIP3    H174713   5.850   0.214  14.003 -1.1251  0.2269 -1.1948
17766TIP3    H274714   5.802   0.249  14.142  1.0384 -0.0972 -0.3133
17767TIP3   OH274715   1.628   5.336   0.655  0.3122  0.0551 -0.9484
17767TIP3    H174716   1.583   5.283   0.589  0.1153 -0.5431 -0.3366
17767TIP3    H274717   1.570   5.411   0.668  0.9321  0.8194 -2.3382
17768TIP3   OH274718   4.175   2.443  14.501  0.0661  0.3047 -0.0273
17768TIP3    H174719   4.145   2.457  14.411 -0.1915  0.8718  0.1392
17768TIP3    H274720   4.100   2.465  14.555 -0.2236 -1.3585  0.2984
17769TIP3   OH274721   6.061   2.197   5.265  0.4428 -0.4142  0.2464
17769TIP3    H174722   6.094   2.160   5.183 -1.6710 -1.3217 -0.2641
17769TIP3    H274723   5.982   2.146   5.285 -0.4888  1.3879  1.5441
17770TIP3   OH274724   3.586   5.298   4.661  0.5123  0.0483 -0.5609
17770TIP3    H174725   3.568   5.207   4.685  2.8787 -0.3595 -0.1248
17770TIP3    H274726   3.639   5.292   4.582  1.5666  0.9828  0.0490
17771TIP3   OH274727   0.117   6.130  14.827 -0.1098 -0.0185 -0.3161
17771TIP3    H174728   0.022   6.134  14.841 -0.5299 -2.4735 -1.8223
17771TIP3    H274729   0.155   6.152  14.912 -2.0677 -0.3285  0.7022
17772TIP3   OH274730   1.216   3.199  15.758  0.3518 -0.5155  0.0261
17772TIP3    H174731   1.258   3.236  15.680  1.5182 -1.1635  0.3416
17772TIP3    H274732   1.135   3.250  15.767  0.7586  0.3394 -0.9407
17773TIP3   OH274733   6.456   3.055   2.985 -0.2047  0.5464 -0.0861
17773TIP3    H174734   6.419   2.970   3.010 -0.7441  0.7236 -0.2786
17773TIP3    H274735   6.496   3.087   3.066  0.5631 -0.1737 -0.1658
17774TIP3   OH274736   2.709   1.430   1.538  1.1613  0.1932 -0.5671
17774TIP3    H174737   2.672   1.351   1.577 -0.0370 -0.4068 -2.7667
17774TIP3    H274738   2.684   1.500   1.598 -1.1763 -0.5889 -0.5421
17775TIP3   OH274739   2.800   3.661   4.581 -0.3463 -0.0368 -0.3807
17775TIP3    H174740   2.734   3.668   4.513 -2.3927 -2.5447  1.1565
17775TIP3    H274741   2.752   3.673   4.663  1.7166  1.1314  0.7767
17776TIP3   OH274742   0.046   6.381   3.086  0.0745  0.5818  0.3980
17776TIP3    H174743  -0.020   6.398   3.154  0.3562  0.6436  0.6612
17776TIP3    H274744   0.009   6.309   3.035 -0.3652  0.8614  0.3117
17777TIP3   OH274745   1.121   4.806  11.447 -0.6532  0.0782  0.6966
17777TIP3    H174746   1.119   4.835  11.356  0.6088  0.1746  0.6818
17777TIP3    H274747   1.168   4.875  11.494  1.6990 -1.5092  0.8017
17778TIP3   OH274748   3.503   2.327   3.431 -0.9345 -0.3192  0.0045
17778TIP3    H174749   3.453   2.408   3.443  0.2941  0.2356  1.7204
17778TIP3    H274750   3.535   2.306   3.519  0.9505 -1.2400 -0.8547
17779TIP3   OH274751   1.603   5.228  11.806  0.3976  1.0653  0.4149
17779TIP3    H174752   1.531   5.228  11.743  0.6107 -1.6561  0.0520
17779TIP3    H274753   1.568   5.182  11.883  1.6173 -0.0890  0.3228
17780TIP3   OH274754   5.617   1.035   5.976  0.4050  0.3938 -0.3870
17780TIP3    H174755   5.630   1.109   6.034 -0.5574 -0.8182  1.4771
17780TIP3    H274756   5.674   0.967   6.012  0.6671 -0.0304 -1.5716
17781TIP3   OH274757   1.695   1.283  13.731 -0.6274  0.0922 -0.3763
17781TIP3    H174758   1.691   1.252  13.641 -1.4505  1.5477 -0.8810
17781TIP3    H274759   1.624   1.347  13.737 -1.0817 -0.5248  1.5291
17782TIP3   OH274760   4.608   3.398  15.076  0.4607 -0.0589 -0.2855
17782TIP3    H174761   4.675   3.449  15.029  3.9469 -1.7354  2.3671
17782TIP3    H274762   4.585   3.328  15.015  1.4583  0.3342 -1.1538
17783TIP3   OH274763   6.290   5.075  11.855  0.2381 -0.0953 -0.3928
17783TIP3    H174764   6.281   5.169  11.838 -1.4511 -0.5738 -2.7174
17783TIP3    H274765   6.339   5.042  11.779 -0.2624 -1.2750 -0.2185
17784TIP3   OH274766   3.007   0.875  15.459  0.1485  0.1526  0.1795
17784TIP3    H174767   3.046   0.798  15.418  0.4912 -0.7781  2.1615
17784TIP3    H274768   2.917   0.877  15.426  0.0994 -1.1662  0.2025
17785TIP3   OH274769   6.460   3.882  16.960  0.0202  0.5672  0.0408
17785TIP3    H174770   6.489   3.791  16.949  1.0833  0.8628  0.3077
17785TIP3    H274771   6.373   3.884  16.920  0.9596 -0.0004 -2.1478
17786TIP3   OH274772   6.726   6.667   0.187 -0.2124  0.2089  0.2623
17786TIP3    H174773   6.649   6.624   0.149  0.2733  0.0762 -0.6038
17786TIP3    H274774   6.732   6.750   0.140  0.3209  0.1025  0.1413
17787TIP3   OH274775   4.617   4.180  13.000  0.6862 -0.3633 -0.2021
17787TIP3    H174776   4.543   4.219  12.954  1.1677 -0.5160 -1.1348
17787TIP3    H274777   4.603   4.203  13.092  0.9050  1.9864 -0.6851
17788TIP3   OH274778   1.915   1.822  13.816  0.5190  0.5710  0.4377
17788TIP3    H174779   1.996   1.783  13.784 -0.6506  0.4233 -2.7558
17788TIP3    H274780   1.907   1.904  13.766 -1.7052  0.0966 -0.0964
17789TIP3   OH274781   1.376   5.504   5.059  0.0089  0.0819  0.5918
17789TIP3    H174782   1.294   5.546   5.033 -0.2415 -0.8061 -0.0896
17789TIP3    H274783   1.431   5.577   5.088 -2.0397  0.5155  4.0629
17790TIP3   OH274784   5.338   5.411   0.501 -0.0704 -0.2091 -0.7074
17790TIP3    H174785   5.295   5.490   0.468  0.0188  0.1486  0.0264
17790TIP3    H274786   5.282   5.381   0.572  0.2476 -0.4359 -0.5524
17791TIP3   OH274787   0.147   5.299   6.015  0.2373  0.3902 -0.1195
17791TIP3    H174788   0.194   5.244   5.953 -0.1632 -0.1507  0.0541
17791TIP3    H274789   0.083   5.241   6.056  0.6191  0.6867  0.9383
17792TIP3   OH274790   0.314   5.657  11.943 -0.4270  0.3321  0.0701
17792TIP3    H174791   0.378   5.601  11.900  0.4007  0.3412  1.2516
17792TIP3    H274792   0.341   5.746  11.921 -0.3305  0.3237  0.1546
17793TIP3   OH274793   5.682   1.793  16.748  0.2916 -0.0713  0.3088
17793TIP3    H174794   5.721   1.809  16.834 -1.2861 -1.6645  1.3915
17793TIP3    H274795   5.707   1.702  16.728  0.1136  0.0830 -0.6218
17794TIP3   OH274796   2.363   4.971  10.876 -0.2195 -0.4183  0.1552
17794TIP3    H174797   2.349   4.910  10.948  3.0198 -1.1031  0.3583
17794TIP3    H274798   2.458   4.972  10.863 -0.5830 -0.1131 -3.9172
17795TIP3   OH274799   5.219   4.275  11.932  0.3290  0.0696 -0.1004
17795TIP3    H174800   5.263   4.335  11.872  0.0091  0.6718  0.2654
17795TIP3    H274801   5.288   4.247  11.993  0.5193 -0.0834 -0.3851
17796TIP3   OH274802   1.207   0.118  13.235 -0.1834 -0.0349 -0.2168
17796TIP3    H174803   1.178   0.030  13.213  1.8350 -0.6320 -0.6947
17796TIP3    H274804   1.164   0.138  13.318 -0.5131 -1.5462 -0.0044
17797TIP3   OH274805   0.715   0.812  12.977 -0.2155 -0.0697  0.8001
17797TIP3    H174806   0.766   0.741  13.014  0.0902 -0.4498 -0.2979
17797TIP3    H274807   0.712   0.793  12.883  0.0477  1.4567  0.4485
17798TIP3   OH274808   0.259   2.429  16.848 -0.2508 -0.2414 -0.2892
17798TIP3    H174809   0.311   2.413  16.927 -2.6453 -1.6912  1.0911
17798TIP3    H274810   0.321   2.470  16.788  1.4137  2.0417  2.6927
17799TIP3   OH274811   4.295   2.211  10.638  0.4139  0.1857 -0.3028
17799TIP3    H174812   4.388   2.200  10.619  0.0602  1.0082 -2.8393
17799TIP3    H274813   4.261   2.122  10.649  1.4970 -0.1068  0.8884
17800TIP3   OH274814   5.939   3.145   0.077  0.0250  0.5369  0.1045
17800TIP3    H174815   5.925   3.057   0.043  0.0654  0.1499  1.0588
17800TIP3    H274816   5.950   3.200  -0.001 -2.4286  0.1334 -0.6158
17801TIP3   OH274817   2.567   3.744  15.879 -0.1302 -0.2940 -0.3472
17801TIP3    H174818   2.626   3.737  15.804  0.3610  0.2469 -0.0222
17801TIP3    H274819   2.566   3.838  15.899 -0.7604 -0.3567 -0.0767
17802TIP3   OH274820   3.899   5.013   6.478  0.4430 -0.3139  0.4379
17802TIP3    H174821   3.969   4.950   6.458  0.1320 -0.8516  1.0134
17802TIP3    H274822   3.934   5.097   6.449  0.5417 -0.8526 -1.1529
17803TIP3   OH274823   3.732   1.913   0.783  0.6095  0.9118 -0.0292
17803TIP3    H174824   3.712   1.891   0.692  1.5111  1.6828 -0.4379
17803TIP3    H274825   3.736   1.829   0.828  1.1298  0.4464 -0.9205
17804TIP3   OH274826   5.423   4.919   5.236  0.3828 -0.4939  0.4957
17804TIP3    H174827   5.342   4.970   5.242  1.2162  0.7668  1.6070
17804TIP3    H274828   5.430   4.875   5.321 -0.3254 -2.5538 -0.4377
17805TIP3   OH274829   2.839   4.695  16.973 -0.6233  0.2163  0.7744
17805TIP3    H174830   2.860   4.627  16.909 -1.7007 -0.1117  0.7405
17805TIP3    H274831   2.921   4.710  17.020 -0.0818 -0.2929  0.0308
17806TIP3   OH274832   4.598   2.040  12.231  0.9557  0.4941  0.7483
17806TIP3    H174833   4.686   2.077  12.239  0.7901  0.5668  2.8083
17806TIP3    H274834   4.611   1.959  12.180  1.9678  1.2026 -0.1780
17807TIP3   OH274835   0.617   6.733  12.036 -0.0142 -0.3501 -0.7291
17807TIP3    H174836   0.688   6.714  11.975  0.2580  1.6917 -1.1113
17807TIP3    H274837   0.600   6.826  12.024 -2.8572 -0.7937 -0.7430
17808TIP3   OH274838   3.383   4.741  15.464  0.0610 -0.4437  0.1754
17808TIP3    H174839   3.298   4.750  15.508 -1.1507 -1.6887 -1.7644
17808TIP3    H274840   3.416   4.831  15.457 -0.9150  0.0218  1.2759
17809TIP3   OH274841   1.607   1.598  15.373 -0.5452  0.9124  0.3024
17809TIP3    H174842   1.650   1.655  15.309  3.1958 -1.3380  0.5259
17809TIP3    H274843   1.627   1.637  15.458  1.2723 -0.1362  0.4066
17810TIP3   OH274844   5.694   0.580  14.885  0.4455 -0.4941 -0.5206
17810TIP3    H174845   5.608   0.572  14.844  1.3077 -0.4685 -2.4740
17810TIP3    H274846   5.678   0.625  14.967 -1.5260 -1.3981 -0.3621
17811TIP3   OH274847   4.531   0.548   0.877  0.3285 -0.4009 -0.1907
17811TIP3    H174848   4.448   0.508   0.850  0.5670 -2.5134  1.9103
17811TIP3    H274849   4.594   0.518   0.811 -0.2259 -0.3352 -0.7599
17812TIP3   OH274850   5.777   5.123  13.056  0.3302 -0.2640 -0.1079
17812TIP3    H174851   5.868   5.152  13.060  1.0119 -2.3739  1.0926
17812TIP3    H274852   5.755   5.102  13.147 -1.9775  1.8444 -0.0828
17813TIP3   OH274853   4.193   4.335   0.828 -0.1015  0.1991  0.0550
17813TIP3    H174854   4.109   4.380   0.814 -0.1384  0.0457 -0.2206
17813TIP3    H274855   4.212   4.349   0.921 -0.5080  0.1010  0.1565
17814TIP3   OH274856   4.960   6.612   5.300 -0.0330  0.7616  0.0967
17814TIP3    H174857   4.963   6.705   5.321 -2.7147  1.3909 -1.7586
17814TIP3    H274858   4.964   6.609   5.205  0.9003 -1.1049  0.1566
17815TIP3   OH274859   5.667   5.296  16.831  0.1054  0.2627 -0.2882
17815TIP3    H174860   5.692   5.388  16.823  0.1456  0.2002 -0.8954
17815TIP3    H274861   5.750   5.249  16.834  0.0888  0.2578  0.2338
17816TIP3   OH274862   3.339   1.155   2.915  0.4374  0.3590  0.1254
17816TIP3    H174863   3.351   1.249   2.928 -1.3286  0.5494  0.6850
17816TIP3    H274864   3.410   1.115   2.965  0.4059  1.3843  1.0336
17817TIP3   OH274865   1.940   2.983   3.487  0.8064  0.1347  1.1517
17817TIP3    H174866   1.947   3.078   3.482  0.4990  0.1205  0.3846
17817TIP3    H274867   1.872   2.960   3.424  3.4284 -0.9173 -1.5243
17818TIP3   OH274868   4.887   3.392  14.377  0.8983  0.2050 -0.4021
17818TIP3    H174869   4.806   3.441  14.381  0.7515 -0.1100  1.0375
17818TIP3    H274870   4.882   3.343  14.295 -1.5769 -1.8347  0.8494
17819TIP3   OH274871   6.027   3.134  11.659  0.0153 -0.9298  0.6280
17819TIP3    H174872   5.988   3.073  11.722 -2.5149  1.3141  1.4457
17819TIP3    H274873   5.985   3.113  11.576  1.1185 -1.9363  0.2956
17820TIP3   OH274874   5.511   1.546   2.890  0.5463  0.0748  0.2990
17820TIP3    H174875   5.448   1.484   2.926  0.5232  0.4651  0.9389
17820TIP3    H274876   5.462   1.628   2.883  0.9747  0.3651  0.7521
17821TIP3   OH274877   6.441   5.564  15.783 -0.5678 -0.2502  0.2911
17821TIP3    H174878   6.389   5.526  15.853  0.9708  1.3157  2.4247
17821TIP3    H274879   6.495   5.492  15.751  0.6059 -0.5054  2.6281
17822TIP3   OH274880   0.307   6.139  14.461  0.0250 -0.2826  0.3645
17822TIP3    H174881   0.242   6.106  14.398 -1.2550  1.4911  0.6981
17822TIP3    H274882   0.300   6.079  14.536 -0.9785 -0.3274  0.2463
17823TIP3   OH274883   1.732   0.074   2.168 -0.3728 -0.0284 -0.0400
17823TIP3    H174884   1.657   0.019   2.188 -1.3480  0.9511 -0.8765
17823TIP3    H274885   1.789   0.065   2.244 -0.7898 -1.6679  0.1205
17824TIP3   OH274886   3.400   0.498   6.622 -0.7896 -0.4380 -0.5137
17824TIP3    H174887   3.466   0.565   6.605 -0.0693 -0.9598  0.1825
17824TIP3    H274888   3.322   0.530   6.577 -0.6539  1.1932  0.3175
17825TIP3   OH274889   5.695   6.315   5.447 -0.1172 -0.3026 -0.0147
17825TIP3    H174890   5.789   6.326   5.455  0.4191 -2.2160 -2.4032
17825TIP3    H274891   5.679   6.224   5.473 -1.1863 -0.2388 -0.3915
17826TIP3   OH274892   2.004   1.091  12.336  0.1317  0.1117  0.5119
17826TIP3    H174893   2.024   1.176  12.375 -1.8858  0.3000  1.2572
17826TIP3    H274894   1.963   1.113  12.252 -0.9336 -0.0933  0.9732
17827TIP3   OH274895   3.961   3.715  17.059 -0.2248 -0.5114 -0.1291
17827TIP3    H174896   4.016   3.637  17.063  0.8534  0.2364  0.8600
17827TIP3    H274897   3.967   3.752  17.148  0.8089  1.6513 -1.0174
17828TIP3   OH274898   3.858   3.242  16.120 -0.2389 -0.2186  0.2842
17828TIP3    H174899   3.925   3.213  16.181  0.1853 -0.4008 -0.2589
17828TIP3    H274900   3.800   3.298  16.172  0.0280 -0.4937  0.8826
17829TIP3   OH274901   3.045   5.311  15.984 -0.4799  0.1450 -0.1815
17829TIP3    H174902   2.978   5.342  16.045 -2.5228 -2.3187 -0.9799
17829TIP3    H274903   3.064   5.221  16.012  0.2316 -0.2562 -1.7842
17830TIP3   OH274904   2.180   2.365  14.274  0.0573  1.0711  0.0193
17830TIP3    H174905   2.136   2.310  14.210  1.8496 -1.3070  0.6810
17830TIP3    H274906   2.111   2.394  14.333 -1.4586  2.4831 -2.2952
17831TIP3   OH274907   6.315   2.190   0.490  0.4015 -0.1409  0.7705
17831TIP3    H174908   6.384   2.138   0.532  1.1558  0.4771  0.3071
17831TIP3    H274909   6.255   2.212   0.562  2.2840  1.9054  1.8179
17832TIP3   OH274910   2.559   3.359   5.244 -0.1637 -0.4145 -0.0827
17832TIP3    H174911   2.567   3.355   5.148 -1.9181 -0.4704 -0.2638
17832TIP3    H274912   2.504   3.284   5.266 -1.9376  1.0320  0.6683
17833TIP3   OH274913   0.349   2.925  12.502 -0.0604  0.1171  0.1605
17833TIP3    H174914   0.376   2.846  12.454  0.6001  1.6890 -2.2637
17833TIP3    H274915   0.257   2.936  12.480  0.0645  0.4507 -0.2203
17834TIP3   OH274916   1.595   6.540   3.681 -0.1447  0.0285 -0.2806
17834TIP3    H174917   1.606   6.565   3.590  0.1079  0.2529 -0.1936
17834TIP3    H274918   1.568   6.448   3.679  1.8186 -0.5906 -0.5409
17835TIP3   OH274919   2.051   6.294   3.770 -0.2144 -0.6676 -0.1596
17835TIP3    H174920   2.043   6.244   3.688 -0.3207  0.6660 -0.9815
17835TIP3    H274921   1.977   6.354   3.768  0.7005  0.4936  0.1376
17836TIP3   OH274922   5.491   3.827   0.030 -0.0776  1.0510 -0.4294
17836TIP3    H174923   5.458   3.755  -0.023  1.0151  0.8541 -0.8712
17836TIP3    H274924   5.571   3.793   0.069  0.3235  1.9514 -0.4522
17837TIP3   OH274925   3.352   3.773  11.115 -0.2366  0.4492  0.1305
17837TIP3    H174926   3.413   3.846  11.111 -0.3722  0.5459 -0.1869
17837TIP3    H274927   3.364   3.727  11.032  1.1071 -0.9156  1.0207
17838TIP3   OH274928   3.283   0.193  10.563  0.6285  0.2380  0.5961
17838TIP3    H174929   3.227   0.139  10.619 -0.9987  0.6767 -0.5270
17838TIP3    H274930   3.361   0.140  10.548  0.0528 -0.8583  1.3473
17839TIP3   OH274931   5.096   3.094  11.783  0.5893 -0.8993 -0.1487
17839TIP3    H174932   5.169   3.076  11.724  0.2630  0.4794 -1.0246
17839TIP3    H274933   5.120   3.051  11.865  1.7548 -1.5917 -0.8268
17840TIP3   OH274934   3.233   4.583  15.015 -0.0185  0.2779  0.1707
17840TIP3    H174935   3.243   4.668  14.970 -0.5094  1.0516  1.4786
17840TIP3    H274936   3.158   4.542  14.973  0.4942  0.2761 -0.7745
17841TIP3   OH274937   0.552   3.825   3.992  0.0788  0.3586 -0.1234
17841TIP3    H174938   0.572   3.820   3.899  1.8764  3.8589 -0.0973
17841TIP3    H274939   0.500   3.905   4.001 -1.6637 -0.8795  1.7134
17842TIP3   OH274940   2.332   5.587  11.583  0.2931 -0.2863 -1.1168
17842TIP3    H174941   2.303   5.647  11.651  0.7092 -0.8881 -0.3931
17842TIP3    H274942   2.324   5.500  11.623  1.3547 -0.5903 -1.5416
17843TIP3   OH274943   5.456   4.528   2.949  0.1138 -0.5182  0.3817
17843TIP3    H174944   5.527   4.586   2.922  0.0722 -0.0214  1.2946
17843TIP3    H274945   5.377   4.582   2.942 -0.2444 -1.1581 -0.9260
17844TIP3   OH274946   6.001   2.736  12.100 -0.5900 -0.1038  0.4643
17844TIP3    H174947   6.087   2.725  12.141 -0.8836 -1.0444  0.8645
17844TIP3    H274948   5.944   2.677  12.150 -1.6100  1.0016  0.6243
17845TIP3   OH274949   3.308   2.200  10.907  0.0227 -0.0958  0.6475
17845TIP3    H174950   3.361   2.127  10.942  1.5683  1.5065  1.8382
17845TIP3    H274951   3.372   2.259  10.868 -1.2106  0.6052 -0.3735
17846TIP3   OH274952   6.546   1.498   4.829 -0.2060  1.0353  0.9246
17846TIP3    H174953   6.579   1.454   4.908  1.3824 -0.9554 -0.7247
17846TIP3    H274954   6.615   1.560   4.805  0.5735 -0.2234 -0.2643
17847TIP3   OH274955   5.815   0.161   1.008  0.1306  0.0028  0.0157
17847TIP3    H174956   5.813   0.204   1.093  0.4559  1.5314 -0.7103
17847TIP3    H274957   5.902   0.178   0.974 -0.0344 -0.4959 -0.6810
17848TIP3   OH274958   4.452   6.530  14.217 -0.2704 -0.4602 -0.4026
17848TIP3    H174959   4.424   6.441  14.239 -1.3768  0.2617  1.3448
17848TIP3    H274960   4.411   6.548  14.132 -2.9399 -0.4558  0.7864
17849TIP3   OH274961   6.052   6.644   3.753 -0.4617 -0.3723 -0.2699
17849TIP3    H174962   5.997   6.572   3.722 -0.6144 -1.8869  3.1150
17849TIP3    H274963   6.019   6.664   3.840  1.3021  2.0334 -0.0597
17850TIP3   OH274964   4.208   1.665   5.368 -0.6780  0.1431 -0.1117
17850TIP3    H174965   4.232   1.686   5.458  0.6144 -0.2378 -0.3531
17850TIP3    H274966   4.124   1.710   5.355 -1.2384 -0.3693  1.4828
17851TIP3   OH274967   1.888   6.287  12.416 -0.0882 -0.2818  0.8974
17851TIP3    H174968   1.808   6.334  12.441 -0.4777 -0.9587  0.9571
17851TIP3    H274969   1.905   6.229  12.490  0.8530  0.3275  1.1865
17852TIP3   OH274970   2.209   0.724  16.212 -0.2252 -0.6886  0.3194
17852TIP3    H174971   2.293   0.680  16.202 -0.3248 -0.9702  0.6865
17852TIP3    H274972   2.216   0.772  16.295 -0.5712 -1.0465  0.5573
17853TIP3   OH274973   2.836   6.653   3.603  0.1227  0.7613 -0.4874
17853TIP3    H174974   2.758   6.610   3.570 -0.3163  1.6166 -0.5875
17853TIP3    H274975   2.909   6.610   3.558 -0.1471 -1.2348  0.8797
17854TIP3   OH274976   1.873   5.251   0.188 -0.5344  0.2342 -0.1493
17854TIP3    H174977   1.859   5.260   0.283 -3.2849  0.6837 -0.5206
17854TIP3    H274978   1.958   5.293   0.172 -0.8788  1.8459  1.8543
17855TIP3   OH274979   6.492   4.644  16.270 -0.6793  0.4044  0.4385
17855TIP3    H174980   6.505   4.682  16.357 -0.4474  0.7156  0.2717
17855TIP3    H274981   6.502   4.550  16.283 -1.1266  0.4133  0.8344
17856TIP3   OH274982   4.737   6.434  16.200  0.1269 -0.1111  0.4926
17856TIP3    H174983   4.763   6.350  16.237  1.0642 -0.6028 -1.1668
17856TIP3    H274984   4.778   6.436  16.114 -2.7865  0.4437 -1.0275
17857TIP3   OH274985   1.260   3.086  13.803 -0.1548 -0.3497 -0.3331
17857TIP3    H174986   1.234   3.095  13.895  0.0240 -0.4944 -0.2684
17857TIP3    H274987   1.232   3.168  13.763  0.5401  0.0769  0.0318
17858TIP3   OH274988   3.530   1.680   0.301 -0.0392 -0.6993  0.2168
17858TIP3    H174989   3.542   1.656   0.393  0.9066  0.6063  0.4564
17858TIP3    H274990   3.463   1.619   0.269 -0.3883 -1.1696  1.7629
17859TIP3   OH274991   6.016   2.862  15.500  0.4773 -0.3479 -0.7348
17859TIP3    H174992   6.090   2.921  15.487  1.9947 -1.4280  2.1356
17859TIP3    H274993   5.994   2.831  15.412  1.8780  1.7645 -1.9243
17860TIP3   OH274994   4.003   5.241  13.494  0.3031 -0.0910  0.0833
17860TIP3    H174995   4.071   5.271  13.433 -0.2591  1.1819  0.0414
17860TIP3    H274996   3.975   5.156  13.460  2.3349 -0.9844  0.4979
17861TIP3   OH274997   1.166   6.028   2.284 -0.0179  0.3687 -0.1226
17861TIP3    H174998   1.111   6.102   2.257  1.1344  1.0252 -0.7633
17861TIP3    H274999   1.158   6.025   2.379 -2.2282 -0.4294 -0.2810
17862TIP3   OH275000   6.688   4.469   1.769 -0.5587  0.1487 -0.5454
17862TIP3    H175001   6.660   4.388   1.725 -0.8098 -0.0629 -0.0070
17862TIP3    H275002   6.755   4.505   1.712 -0.0685 -0.7138 -0.5359
17863TIP3   OH275003   3.357   3.444  14.024  0.3021  0.0065  0.2602
17863TIP3    H175004   3.338   3.467  14.115 -0.4024  0.8512 -0.0821
17863TIP3    H275005   3.409   3.363  14.030  1.6790  0.9354  1.4580
17864TIP3   OH275006   1.510   4.357   4.498 -0.1469 -0.1596 -0.0657
17864TIP3    H175007   1.574   4.387   4.434 -1.5086  0.1864 -1.3285
17864TIP3    H275008   1.516   4.261   4.495  0.9871 -0.1269  0.5812
17865TIP3   OH275009   4.830   3.007  11.742  0.2594  0.0973  0.5901
17865TIP3    H175010   4.918   3.034  11.768 -0.0225  1.4991  0.1744
17865TIP3    H275011   4.843   2.928  11.690  1.3041  0.5347  0.1788
17866TIP3   OH275012   4.959   2.888   0.048  0.1419  0.5480 -0.2684
17866TIP3    H175013   4.969   2.797   0.020  1.3818  0.6402 -0.1995
17866TIP3    H275014   4.907   2.882   0.128  1.0062 -0.2105  0.2688
17867TIP3   OH275015   1.699   3.056   0.861  0.9963  0.3243  0.1636
17867TIP3    H175016   1.664   3.048   0.950  0.7048  1.7124  0.1966
17867TIP3    H275017   1.645   2.998   0.808  0.0885  0.7555  0.6049
17868TIP3   OH275018   5.143   2.082  13.973  0.4870 -0.5119  0.1422
17868TIP3    H175019   5.215   2.069  14.034  0.5100 -1.1901 -0.0183
17868TIP3    H275020   5.185   2.090  13.887  0.4313  0.0714  0.1652
17869TIP3   OH275021   4.764   1.704  15.536 -0.2821 -0.1647 -0.2120
17869TIP3    H175022   4.815   1.767  15.587  0.8135 -1.4595  0.3602
17869TIP3    H275023   4.827   1.665  15.476 -1.0624 -0.3353 -0.9463
17870TIP3   OH275024   4.492   4.914  15.472 -1.0247 -0.1805 -0.5496
17870TIP3    H175025   4.525   4.960  15.549 -0.6746 -2.6434  0.8747
17870TIP3    H275026   4.558   4.930  15.404  1.9519 -2.8329  1.4584
17871TIP3   OH275027   6.126   5.706  15.186  0.1235 -0.1793  0.0198
17871TIP3    H175028   6.186   5.640  15.222  0.9999  0.6441  0.1306
17871TIP3    H275029   6.176   5.787  15.190 -1.6432  0.9013  1.7872
17872TIP3   OH275030   1.815   2.717  15.750  0.5133 -0.3739  0.5237
17872TIP3    H175031   1.727   2.730  15.787  0.7261  0.9404  0.6102
17872TIP3    H275032   1.862   2.797  15.773  1.2506 -0.3663 -0.9256
17873TIP3   OH275033   0.320   6.522  11.395  0.0037  0.5132  0.0317
17873TIP3    H175034   0.307   6.466  11.319  1.3450  2.0225 -1.3848
17873TIP3    H275035   0.272   6.478  11.466 -0.1726 -1.6283 -1.3305
17874TIP3   OH275036   0.421   2.743   3.555 -0.5335  0.6956  0.2631
17874TIP3    H175037   0.390   2.686   3.625 -0.7571  0.1266 -0.2870
17874TIP3    H275038   0.513   2.719   3.543 -1.2543 -1.5574 -1.7935
17875TIP3   OH275039   6.457   0.830  16.636  0.1025 -0.0704  0.3029
17875TIP3    H175040   6.364   0.808  16.633  0.4501 -1.5136 -1.2038
17875TIP3    H275041   6.501   0.747  16.656  1.1073  0.3929  0.0813
17876TIP3   OH275042   6.341   5.721   2.357  0.1416 -0.2870 -0.2861
17876TIP3    H175043   6.430   5.710   2.325 -0.2442  1.2377 -2.1059
17876TIP3    H275044   6.336   5.813   2.383 -1.0221 -0.2229 -0.6715
17877TIP3   OH275045   3.940   6.119   6.307  0.2312 -0.2373  0.4768
17877TIP3    H175046   3.956   6.212   6.322  0.0523 -0.0437 -0.4643
17877TIP3    H275047   3.854   6.116   6.265 -0.1828 -0.9083  1.3263
17878TIP3   OH275048   3.528   3.344  12.484  0.6019 -0.2141 -0.3156
17878TIP3    H175049   3.471   3.417  12.507  0.1283  0.3352 -2.8783
17878TIP3    H275050   3.487   3.268  12.524  0.5323  0.7319  1.5357
17879TIP3   OH275051   3.793   0.148   3.993 -0.2898  0.2555 -0.3268
17879TIP3    H175052   3.793   0.160   4.088 -2.0731  1.2636 -0.4054
17879TIP3    H275053   3.771   0.056   3.981 -0.2900  0.1754  0.2460
17880TIP3   OH275054   6.140   6.486   4.431 -0.2499  0.1533 -0.1830
17880TIP3    H175055   6.218   6.432   4.435 -2.4573 -3.2059  1.9956
17880TIP3    H275056   6.143   6.539   4.511 -1.1122 -1.5349  1.0287
17881TIP3   OH275057   5.323   2.254   3.021  0.2638  0.1069 -0.3000
17881TIP3    H175058   5.252   2.248   2.958 -1.3967 -0.4379  1.5316
17881TIP3    H275059   5.286   2.301   3.096  0.9103 -2.4829  1.8217
17882TIP3   OH275060   1.900   4.401  13.597 -0.4050 -0.0738  0.5781
17882TIP3    H175061   1.982   4.352  13.590  0.1361  0.9332 -0.6335
17882TIP3    H275062   1.915   4.464  13.667 -0.0493  0.2423  0.2250
17883TIP3   OH275063   6.216   2.374  17.353  0.5713  0.4971 -0.0907
17883TIP3    H175064   6.207   2.457  17.400  1.3284  0.7764 -0.4276
17883TIP3    H275065   6.192   2.307  17.417 -1.6772  1.0464 -0.2790
17884TIP3   OH275066   2.755   5.929   2.314  0.5563 -0.0976 -0.1643
17884TIP3    H175067   2.728   5.978   2.391 -0.1834 -0.7145 -0.0223
17884TIP3    H275068   2.743   5.989   2.241  1.4180  0.5461  0.2052
17885TIP3   OH275069   6.724   0.801   1.232 -0.1175 -0.0370 -0.8727
17885TIP3    H175070   6.774   0.776   1.154  1.4255 -1.4546  0.5145
17885TIP3    H275071   6.714   0.720   1.281 -2.3367  0.5470 -0.2328
17886TIP3   OH275072   0.575   3.237  11.408  0.0167  0.1949 -0.3963
17886TIP3    H175073   0.499   3.272  11.454 -1.1964 -0.1178 -2.0508
17886TIP3    H275074   0.607   3.166  11.464  0.1918  1.4513  1.1547
17887TIP3   OH275075   3.588   0.975   6.093  0.1702 -0.2346 -0.4486
17887TIP3    H175076   3.543   0.910   6.040 -1.3259  0.0380  0.4318
17887TIP3    H275077   3.530   1.051   6.093  0.0318 -0.2670  1.6648
17888TIP3   OH275078   6.176   1.119  10.525 -0.6801  0.1292  0.0436
17888TIP3    H175079   6.197   1.116  10.619 -1.9371 -0.9024  0.3277
17888TIP3    H275080   6.259   1.136  10.482 -0.3316  2.2922  1.4284
17889TIP3   OH275081   5.383   1.379   6.092 -0.6273  0.3760 -0.6136
17889TIP3    H175082   5.465   1.332   6.081 -2.4768 -2.9260 -1.6978
17889TIP3    H275083   5.374   1.390   6.187  0.4588 -0.3305 -0.4086
17890TIP3   OH275084   6.506   5.082  13.142 -0.4639  0.0058 -0.3521
17890TIP3    H175085   6.557   5.105  13.220 -0.0171  0.5303 -0.7873
17890TIP3    H275086   6.515   4.987  13.135  0.9842  0.1361 -0.7538
17891TIP3   OH275087   4.042   2.329   5.733  0.1060 -0.2275  0.1956
17891TIP3    H175088   4.056   2.340   5.827  1.3068  0.8962 -0.1029
17891TIP3    H275089   4.085   2.246   5.712 -0.1869 -0.4949  0.6173
17892TIP3   OH275090   0.177   1.322  13.418 -0.2638  0.0592 -0.2745
17892TIP3    H175091   0.108   1.257  13.403 -0.2561  0.0464 -0.2543
17892TIP3    H275092   0.146   1.400  13.372 -0.1995 -0.0066 -0.4301
17893TIP3   OH275093   3.193   3.928  11.507  0.0323  0.5235 -0.2891
17893TIP3    H175094   3.237   3.934  11.592  0.5029  0.8873 -0.5522
17893TIP3    H275095   3.264   3.915  11.445 -0.1011  2.3683 -0.8674
17894TIP3   OH275096   0.976   5.627  12.064 -1.0303 -0.1192  0.0173
17894TIP3    H175097   0.964   5.675  12.145  0.6163 -1.0676  0.8706
17894TIP3    H275098   1.023   5.687  12.006 -0.4559 -0.1130  0.4841
17895TIP3   OH275099   3.461   0.214  14.621 -0.2152 -0.8182 -0.5466
17895TIP3    H175100   3.430   0.133  14.661 -2.4783 -0.1996 -0.9358
17895TIP3    H275101   3.482   0.271  14.695 -3.0329 -0.1811 -0.1377
17896TIP3   OH275102   0.997   2.951   3.143 -0.3108 -0.2805 -0.1972
17896TIP3    H175103   0.951   2.940   3.226 -0.0558 -0.2673 -0.0543
17896TIP3    H275104   1.073   3.004   3.164  0.9882 -2.1363  0.0186
17897TIP3   OH275105   3.375   4.810   6.018  0.2866  0.3429 -0.5007
17897TIP3    H175106   3.421   4.828   6.099  0.0737  3.0309 -0.8732
17897TIP3    H275107   3.294   4.861   6.025  0.6066  1.2567 -2.6461
17898TIP3   OH275108   3.191   5.709  17.034  0.2912 -0.1568  0.0160
17898TIP3    H175109   3.099   5.732  17.039  0.2331 -0.3267 -0.2326
17898TIP3    H275110   3.204   5.646  17.105 -0.2970 -1.8110 -1.2937
17899TIP3   OH275111   4.750   0.727   2.868 -0.2452  0.6754 -0.1647
17899TIP3    H175112   4.722   0.643   2.903  0.9700  0.4299  0.2787
17899TIP3    H275113   4.810   0.704   2.797  0.2063  1.1680  0.0547
17900TIP3   OH275114   5.368   3.439  12.576  0.3770  0.6326 -0.0171
17900TIP3    H175115   5.338   3.454  12.666  1.7207 -0.7394  0.7060
17900TIP3    H275116   5.460   3.414  12.586  0.8190  1.3823 -1.8654
17901TIP3   OH275117   1.987   5.065  13.767  0.0710 -0.5002 -0.0676
17901TIP3    H175118   1.921   5.003  13.799 -0.0775 -0.0683  0.4944
17901TIP3    H275119   2.063   5.051  13.824 -0.5398  0.9694  1.1933
17902TIP3   OH275120   1.659   2.418  17.369  0.4644  0.4648  0.1240
17902TIP3    H175121   1.659   2.342  17.428  2.4743  0.5041  0.2560
17902TIP3    H275122   1.576   2.462  17.386 -1.9293 -2.9026 -1.5980
17903TIP3   OH275123   5.036   4.082   1.123  0.1030 -0.3325 -0.4742
17903TIP3    H175124   5.009   4.020   1.056  2.7664 -1.6027 -0.4966
17903TIP3    H275125   5.010   4.040   1.206 -0.3409 -0.2797 -0.5858
17904TIP3   OH275126   5.011   5.745   6.432  0.5170 -0.2402 -0.7298
17904TIP3    H175127   4.941   5.738   6.497 -1.1619 -0.6021 -2.4584
17904TIP3    H275128   5.050   5.658   6.430  0.0104 -0.4731 -0.7700
17905TIP3   OH275129   1.767   6.186  14.738  0.4517 -0.2345 -0.2224
17905TIP3    H175130   1.852   6.207  14.778  0.6049 -0.5128 -0.3943
17905TIP3    H275131   1.704   6.236  14.789  0.6428 -0.5879  0.3771
17906TIP3   OH275132   0.865   2.046   0.689 -1.0078  0.2076 -0.7742
17906TIP3    H175133   0.930   2.037   0.620 -0.2549 -1.5907  0.0936
17906TIP3    H275134   0.811   1.967   0.683 -0.4294 -0.4021  1.1210
17907TIP3   OH275135   3.962   1.240   3.607 -0.2032 -0.5327 -0.2858
17907TIP3    H175136   3.876   1.233   3.566 -0.7055  0.8158  0.4460
17907TIP3    H275137   3.951   1.310   3.672  2.1678  1.6278 -2.0600
17908TIP3   OH275138   3.022   2.347  16.224  0.2460  0.2524  0.4393
17908TIP3    H175139   3.027   2.251  16.225 -1.5214  0.1123  1.1281
17908TIP3    H275140   2.941   2.365  16.175 -0.3372  1.3057  1.7531
17909TIP3   OH275141   6.314   3.649   0.931 -0.1664 -0.1470 -0.0043
17909TIP3    H175142   6.226   3.625   0.959 -1.4139  1.8432 -1.8715
17909TIP3    H275143   6.340   3.721   0.989  0.7545 -1.4591  1.2687
17910TIP3   OH275144   2.106   6.722  13.089  0.6750 -0.3654 -0.8813
17910TIP3    H175145   2.076   6.751  13.003  1.3529 -1.1504 -1.3959
17910TIP3    H275146   2.198   6.698  13.075  0.7567 -0.6163  0.0383
17911TIP3   OH275147   0.323   6.743   1.255 -0.1168 -0.1692  0.3764
17911TIP3    H175148   0.289   6.825   1.292 -0.1080 -1.5422  3.7676
17911TIP3    H275149   0.418   6.758   1.249  0.2656 -0.6950  3.5496
17912TIP3   OH275150   2.132   4.541   3.110  0.7038 -0.1506 -0.0503
17912TIP3    H175151   2.099   4.606   3.048  0.0515 -0.3517  0.0784
17912TIP3    H275152   2.169   4.472   3.056  1.7433  0.4881 -0.1892
17913TIP3   OH275153   1.358   3.279   5.012 -0.3209 -0.2922 -0.0240
17913TIP3    H175154   1.263   3.268   5.003 -0.0133 -1.8569 -2.3937
17913TIP3    H275155   1.386   3.311   4.926  1.3291 -0.1211  0.5449
17914TIP3   OH275156   2.267   6.600  12.161  0.5559 -0.4328  0.2098
17914TIP3    H175157   2.212   6.530  12.125  1.0173 -0.9240  0.4539
17914TIP3    H275158   2.213   6.679  12.152  0.4669 -0.6192 -1.1045
17915TIP3   OH275159   1.007   2.756  16.033 -0.1481  0.2262  0.1737
17915TIP3    H175160   1.070   2.804  16.087 -1.1957  1.1403  0.6049
17915TIP3    H275161   0.997   2.809  15.954 -0.3812  0.0746  0.1001
17916TIP3   OH275162   0.373   6.479   0.010 -0.4886 -0.2058 -0.1731
17916TIP3    H175163   0.399   6.391   0.035 -3.2006 -1.3814 -1.0673
17916TIP3    H275164   0.358   6.524   0.093 -0.5852 -1.0939  0.3054
17917TIP3   OH275165   5.932   4.422   3.722 -0.0499  0.1700  0.1634
17917TIP3    H175166   5.903   4.407   3.632 -1.2073  1.3527  0.3076
17917TIP3    H275167   5.981   4.505   3.718 -0.5379  0.4908  0.6995
17918TIP3   OH275168   1.420   2.608  12.601 -0.0688 -0.4131 -0.7055
17918TIP3    H175169   1.439   2.622  12.508  1.0878 -1.7706 -0.7021
17918TIP3    H275170   1.427   2.513  12.613 -1.4830 -0.3951  0.5137
17919TIP3   OH275171   4.340   3.780   1.482 -0.8409 -0.5004  0.1768
17919TIP3    H175172   4.309   3.715   1.420 -1.6722  0.6370 -0.6319
17919TIP3    H275173   4.307   3.750   1.567 -1.0673 -1.2078 -0.1583
17920TIP3   OH275174   0.822   1.064  16.704  0.4806 -0.2228  0.3033
17920TIP3    H175175   0.769   1.127  16.753  0.7470  0.7116 -0.5679
17920TIP3    H275176   0.788   0.978  16.731  0.1505  0.2730  1.5668
17921TIP3   OH275177   2.874   6.098   6.117  0.2028  0.4315  0.1731
17921TIP3    H175178   2.869   6.193   6.114  5.0241  0.8890 -1.9461
17921TIP3    H275179   2.863   6.076   6.210 -1.1758  2.9369  0.6853
17922TIP3   OH275180   5.401   3.433  11.251 -0.6181 -0.3093 -0.6187
17922TIP3    H175181   5.448   3.445  11.169  0.6174 -0.8956 -0.0171
17922TIP3    H275182   5.469   3.428  11.318 -1.5579 -0.7489  0.3384
17923TIP3   OH275183   0.003   2.899   0.202 -0.3703  0.3102 -0.0568
17923TIP3    H175184   0.004   2.864   0.291 -0.9914  0.3181 -0.0415
17923TIP3    H275185  -0.086   2.934   0.191  0.3870  2.5021  0.1759
17924TIP3   OH275186   5.188   5.620  14.163  0.1270 -0.3307  0.2177
17924TIP3    H175187   5.232   5.632  14.078  0.9373 -2.6556  0.2116
17924TIP3    H275188   5.250   5.653  14.227 -0.5911  1.6671 -0.0665
17925TIP3   OH275189   2.960   2.616  16.323  0.1474 -0.0284  0.0091
17925TIP3    H175190   3.011   2.674  16.266 -0.7287  0.9685  0.2089
17925TIP3    H275191   3.024   2.555  16.358  1.1356  0.8956 -0.1236
17926TIP3   OH275192   4.064   1.502   0.555 -0.6136 -0.2417  0.0717
17926TIP3    H175193   4.018   1.529   0.476  0.6786 -1.5731 -1.2050
17926TIP3    H275194   4.083   1.584   0.601 -0.5306  0.6615 -1.4974
17927TIP3   OH275195   5.688   4.844   3.032 -0.5007 -0.1220 -0.2398
17927TIP3    H175196   5.666   4.879   2.945  0.1565 -1.0777 -0.8204
17927TIP3    H275197   5.783   4.831   3.029 -0.7204 -2.0335 -0.1257
17928TIP3   OH275198   2.593   5.743   0.164  0.3711  0.1621  0.3978
17928TIP3    H175199   2.580   5.652   0.191  0.9901 -0.5253 -1.4774
17928TIP3    H275200   2.682   5.763   0.191  1.2719 -0.7848 -1.7243
17929TIP3   OH275201   1.807   0.635  11.508  0.4508 -0.0005 -0.6155
17929TIP3    H175202   1.792   0.725  11.538 -0.9595  0.2409 -1.9648
17929TIP3    H275203   1.720   0.596  11.504  0.9959 -1.2410 -0.6344
17930TIP3   OH275204   3.114   2.385  15.976 -0.0485 -0.1100  0.2304
17930TIP3    H175205   3.184   2.449  15.962  0.0839 -0.5140 -1.0991
17930TIP3    H275206   3.093   2.392  16.069  0.6408  1.1662  0.3105
17931TIP3   OH275207   6.230   4.311  16.338 -0.1629 -0.1606 -0.5597
17931TIP3    H175208   6.167   4.240  16.331 -0.1481 -0.2565  0.1364
17931TIP3    H275209   6.291   4.283  16.407 -0.6121  0.8548  0.2885
17932TIP3   OH275210   3.860   5.918  14.769  0.4901 -0.0918  0.2907
17932TIP3    H175211   3.813   5.983  14.821 -1.1957 -0.3770 -0.7975
17932TIP3    H275212   3.898   5.968  14.697 -1.4713 -0.3425 -0.9909
17933TIP3   OH275213   3.810   5.887   3.459  0.3645 -0.6435 -0.3084
17933TIP3    H175214   3.880   5.909   3.397 -1.2898  1.3981 -1.6152
17933TIP3    H275215   3.804   5.964   3.516  0.6206 -1.7209  1.2009
17934TIP3   OH275216   6.378   0.949  15.048 -0.2625 -0.2007  0.1682
17934TIP3    H175217   6.363   0.909  14.962 -1.5676  0.1953  0.1892
17934TIP3    H275218   6.408   1.037  15.027 -1.0526  0.0619  0.0986
17935TIP3   OH275219   4.846   1.451  14.644  0.8647 -0.2398 -0.5896
17935TIP3    H175220   4.935   1.472  14.613  0.6776  1.7592  0.0681
17935TIP3    H275221   4.858   1.376  14.702  1.9162 -0.8617 -1.5581
17936TIP3   OH275222   6.151   0.718  13.229 -0.4456  0.4363  0.3558
17936TIP3    H175223   6.220   0.676  13.179  0.3917  0.6136  1.3250
17936TIP3    H275224   6.125   0.652  13.293 -0.0231  0.9275  1.0477
17937TIP3   OH275225   6.346   0.519   0.942  0.1684  0.3659 -0.6356
17937TIP3    H175226   6.350   0.599   0.994  2.0970  0.0725 -0.2753
17937TIP3    H275227   6.436   0.505   0.913  0.3594 -2.8190  1.0869
17938TIP3   OH275228   5.576   3.305   3.986  0.5450 -0.5900 -0.4871
17938TIP3    H175229   5.631   3.236   4.021  1.5953 -0.0232 -0.9641
17938TIP3    H275230   5.487   3.271   3.993  0.8052 -0.9737  1.5635
17939TIP3   OH275231   2.445   2.090  16.299  0.1862 -0.6611  0.9587
17939TIP3    H175232   2.467   2.024  16.233  1.5195  0.0741  0.6453
17939TIP3    H275233   2.395   2.156  16.251 -0.2349 -0.9086  1.0464
17940TIP3   OH275234   6.571   4.590   3.885 -0.2874 -0.2789  0.4755
17940TIP3    H175235   6.582   4.541   3.804 -0.3802  0.9411 -0.3074
17940TIP3    H275236   6.503   4.654   3.865  0.2207  0.5401  1.2835
17941TIP3   OH275237   0.778   6.375   2.725  0.1682  0.8053  0.0457
17941TIP3    H175238   0.745   6.462   2.749  1.2378  0.7426  1.9047
17941TIP3    H275239   0.866   6.391   2.691  0.2273  0.4725  0.0398
17942TIP3   OH275240   1.617   5.943  11.133 -0.4013  0.4637  0.5320
17942TIP3    H175241   1.580   6.023  11.095 -1.0073 -0.7734 -1.6746
17942TIP3    H275242   1.540   5.894  11.162 -0.0965  0.2529  0.9817
17943TIP3   OH275243   4.844   2.196  14.420  0.7358  0.5104  0.1311
17943TIP3    H175244   4.891   2.186  14.337 -0.9979 -0.5953 -0.7721
17943TIP3    H275245   4.782   2.123  14.422 -1.8654  2.5777  0.6090
17944TIP3   OH275246   6.682   2.987  12.199 -0.6170 -0.7926 -0.3504
17944TIP3    H175247   6.625   3.061  12.177 -1.1133 -0.6694  1.2438
17944TIP3    H275248   6.653   2.917  12.140 -0.3805  0.1565 -1.6285
17945TIP3   OH275249   3.511   0.131  14.336 -0.0669  0.0617  0.4851
17945TIP3    H175250   3.555   0.165  14.258 -1.4630 -1.0244 -0.8418
17945TIP3    H275251   3.582   0.095  14.389  0.8555  0.2065 -0.6076
17946TIP3   OH275252   0.193   3.721  12.687 -0.9885 -0.5952 -0.7987
17946TIP3    H175253   0.240   3.803  12.699 -0.7061 -1.0241  1.3690
17946TIP3    H275254   0.118   3.744  12.633 -0.8102  1.0538 -0.3985
17947TIP3   OH275255   0.234   4.247  16.232  0.0304  0.2695 -0.3413
17947TIP3    H175256   0.197   4.261  16.145 -0.6248  0.0857 -0.0966
17947TIP3    H275257   0.213   4.327  16.280 -1.7943 -0.5846  0.3879
17948TIP3   OH275258   5.650   2.301   2.329 -0.2250  0.0720  0.2883
17948TIP3    H175259   5.620   2.273   2.242 -0.4150 -0.0342  0.3887
17948TIP3    H275260   5.628   2.394   2.334  2.4203  0.8614 -0.9436
17949TIP3   OH275261   3.278   6.605  11.848 -0.5257 -0.0501  0.1024
17949TIP3    H175262   3.215   6.610  11.776 -0.2835  0.0930 -0.1017
17949TIP3    H275263   3.363   6.591  11.805 -0.2123  1.1852  0.2760
17950TIP3   OH275264   0.684   3.985  14.157  0.1109  0.0288 -0.5742
17950TIP3    H175265   0.759   3.946  14.203  0.0584  0.7728  0.1549
17950TIP3    H275266   0.657   3.917  14.095  0.1111 -1.0554  0.5756
17951TIP3   OH275267   1.441   4.017   0.920  0.1425 -0.0237 -0.2881
17951TIP3    H175268   1.402   3.931   0.903 -0.6626  0.6997 -2.4590
17951TIP3    H275269   1.378   4.061   0.977  0.7172 -0.9272  1.1176
17952TIP3   OH275270   3.485   3.126  14.301  0.4659 -0.7962  0.5633
17952TIP3    H175271   3.544   3.141  14.227  0.2225 -1.6415  0.1938
17952TIP3    H275272   3.506   3.197  14.363 -0.7417  1.1835 -1.1521
17953TIP3   OH275273   3.372   6.672   0.678 -0.0474  0.4829 -0.0118
17953TIP3    H175274   3.304   6.707   0.735  0.1007  0.8017 -0.0285
17953TIP3    H275275   3.454   6.697   0.720  0.0624  0.3081 -0.1179
17954TIP3   OH275276   5.895   1.474   5.750 -0.0572 -0.4850  0.4209
17954TIP3    H175277   5.895   1.409   5.820  1.6173 -2.2742 -1.1118
17954TIP3    H275278   5.828   1.443   5.689  0.5606 -0.6482 -0.1856
17955TIP3   OH275279   4.822   6.473   0.001 -0.3194 -0.2193  0.5068
17955TIP3    H175280   4.727   6.483   0.002 -0.4447 -0.4535 -1.7849
17955TIP3    H275281   4.856   6.560  -0.018 -0.4005 -0.7377 -2.6145
17956TIP3   OH275282   0.052   5.431   5.095  0.1881  0.4445  0.3000
17956TIP3    H175283   0.027   5.523   5.108 -1.8471 -0.0891  0.6574
17956TIP3    H275284   0.119   5.433   5.028 -0.0483  2.1787  0.0674
17957TIP3   OH275285   1.045   0.919  12.056 -0.4591 -0.9358 -0.1391
17957TIP3    H175286   1.001   1.001  12.034  1.5644 -0.0182 -1.0379
17957TIP3    H275287   1.078   0.933  12.145  1.4543  0.0323 -0.9318
17958TIP3   OH275288   1.263   0.007  16.136  0.1292 -1.0312  0.0936
17958TIP3    H175289   1.308   0.084  16.103  2.6987 -0.8127  3.5571
17958TIP3    H275290   1.188   0.041  16.184 -0.2423 -0.9523 -0.5233
17959TIP3   OH275291   0.899   0.059  15.453  0.2078  0.1791  0.0616
17959TIP3    H175292   0.985   0.095  15.474  1.0549 -0.4642 -2.0769
17959TIP3    H275293   0.877   0.004  15.528  1.8626  0.0143  0.4568
17960TIP3   OH275294   0.971   0.531  12.716  0.5609  0.8317  0.5643
17960TIP3    H175295   1.044   0.468  12.718 -0.9043 -1.2972 -3.1378
17960TIP3    H275296   0.979   0.573  12.630  0.1781  4.2817  2.0708
17961TIP3   OH275297   2.282   2.262   1.308  0.2634 -0.4449 -0.8937
17961TIP3    H175298   2.329   2.202   1.249  0.3317 -1.6283  0.3002
17961TIP3    H275299   2.331   2.257   1.390 -1.1479 -0.6620 -0.0235
17962TIP3   OH275300   6.548   2.226  14.215  0.8404  0.2313 -0.3121
17962TIP3    H175301   6.479   2.204  14.278  1.0248  1.1554  0.2239
17962TIP3    H275302   6.629   2.216  14.265  1.0739 -0.4185 -0.8140
17963TIP3   OH275303   4.826   4.949   3.355 -0.5351 -0.7424 -0.4014
17963TIP3    H175304   4.919   4.931   3.369 -0.1706  0.9365 -0.4127
17963TIP3    H275305   4.782   4.867   3.378  0.8567 -1.2428  0.6576
17964TIP3   OH275306   4.079   5.942  17.126 -0.4304  0.0439  0.1868
17964TIP3    H175307   4.116   5.875  17.069  2.0716  0.5377  1.1335
17964TIP3    H275308   4.003   5.899  17.166 -0.9758 -1.0082 -1.8568
17965TIP3   OH275309   2.333   5.155   1.473 -0.5551 -0.2334  0.0189
17965TIP3    H175310   2.364   5.182   1.387 -1.8355 -0.9524 -0.6968
17965TIP3    H275311   2.238   5.149   1.464 -0.6031 -1.6505  1.0827
17966TIP3   OH275312   2.626   5.418   1.773 -0.3494 -0.1382  0.1795
17966TIP3    H175313   2.564   5.491   1.782 -0.2890 -0.1417  0.6595
17966TIP3    H275314   2.570   5.340   1.770 -0.5000  0.0004 -1.7146
17967TIP3   OH275315   4.956   3.920  15.142 -1.1626  0.2590  0.0853
17967TIP3    H175316   4.927   4.003  15.180 -0.1276  1.9665 -2.5528
17967TIP3    H275317   4.890   3.900  15.075  0.1782  0.6537 -1.4088
17968TIP3   OH275318   0.468   0.834   1.822  1.1261 -0.1567  0.8641
17968TIP3    H175319   0.390   0.887   1.806  0.6781 -0.8734  0.6482
17968TIP3    H275320   0.435   0.756   1.866  2.0322  0.7056  3.2355
17969TIP3   OH275321   6.005   2.946   0.786 -0.2687  0.4534  0.4045
17969TIP3    H175322   5.970   2.972   0.872  1.5624  1.1620  0.9977
17969TIP3    H275323   6.082   3.002   0.774  1.1872 -1.5643 -0.3833
17970TIP3   OH275324   1.184   0.857   3.503 -0.5115  0.0051  0.4368
17970TIP3    H175325   1.145   0.944   3.493  1.6091  0.7972 -1.8942
17970TIP3    H275326   1.185   0.842   3.598 -0.3393  2.8052  0.9639
17971TIP3   OH275327   4.917   1.553  16.061  0.0907 -0.5722 -0.4934
17971TIP3    H175328   4.942   1.635  16.104 -1.0161 -0.3110 -0.3193
17971TIP3    H275329   4.892   1.494  16.132 -0.1396 -0.7001 -0.6772
17972TIP3   OH275330   3.279   0.197  13.108  0.0826  0.0824  0.2392
17972TIP3    H175331   3.250   0.287  13.090  1.3228  1.0760  2.7527
17972TIP3    H275332   3.341   0.177  13.038  0.1609  1.3841 -0.0935
17973TIP3   OH275333   3.421   5.477  15.110  0.0458 -0.1441 -0.6034
17973TIP3    H175334   3.403   5.545  15.046  0.1569  0.0655 -0.4134
17973TIP3    H275335   3.477   5.415  15.063  1.7579  0.9847 -0.1590
17974TIP3   OH275336   3.894   2.558  13.419  0.0810  0.0089 -0.2296
17974TIP3    H175337   3.862   2.535  13.332  0.0611  0.3412 -0.3128
17974TIP3    H275338   3.822   2.537  13.478  1.0268 -2.7792  0.0672
17975TIP3   OH275339   4.782   4.497   5.985  0.8492  0.5324 -0.3554
17975TIP3    H175340   4.872   4.467   5.971  0.8989  0.0970  0.7837
17975TIP3    H275341   4.792   4.587   6.017  0.9666  0.1070  0.8759
17976TIP3   OH275342   1.024   2.205   5.305 -0.1135  0.7052  0.2972
17976TIP3    H175343   1.079   2.127   5.294  1.2555  1.4807  1.2917
17976TIP3    H275344   1.071   2.274   5.258 -0.3137  1.3465  1.0153
17977TIP3   OH275345   6.317   1.316  13.035  0.0170 -0.6590 -0.2198
17977TIP3    H175346   6.260   1.355  12.969  0.7701 -0.0601 -0.5230
17977TIP3    H275347   6.404   1.349  13.015  0.8202 -2.9372 -0.8650
17978TIP3   OH275348   0.231   4.690   1.971 -0.6382 -0.4745  0.3449
17978TIP3    H175349   0.284   4.732   2.039  0.1605 -1.4550  0.3604
17978TIP3    H275350   0.155   4.655   2.018 -0.5701 -0.3227  0.5700
17979TIP3   OH275351   0.386   3.425   4.315  0.3123 -0.2633 -0.4980
17979TIP3    H175352   0.449   3.495   4.298  0.1290  0.2604  0.8836
17979TIP3    H275353   0.301   3.469   4.311  0.0280 -0.8745 -1.8835
17980TIP3   OH275354   5.275   2.818  13.412  0.0332  0.2364 -0.7198
17980TIP3    H175355   5.203   2.778  13.363  0.3735 -1.8127  0.3453
17980TIP3    H275356   5.354   2.772  13.382  0.3176 -0.7132  1.2680
17981TIP3   OH275357   4.644   1.962   3.277 -0.4108 -0.2374  0.0979
17981TIP3    H175358   4.625   2.056   3.274 -0.0946 -0.1696  0.1615
17981TIP3    H275359   4.675   1.947   3.366 -1.2541 -0.5626  0.3449
17982TIP3   OH275360   0.867   5.827   4.663  0.3165 -0.1591 -0.4588
17982TIP3    H175361   0.946   5.827   4.718 -1.2332 -0.9271  1.9569
17982TIP3    H275362   0.853   5.735   4.641 -0.6250 -0.2321  0.3446
17983TIP3   OH275363   0.500   2.938  11.607  0.7163  0.2266  0.1664
17983TIP3    H175364   0.433   2.981  11.661  1.6506  1.0209  0.7208
17983TIP3    H275365   0.573   2.922  11.667  0.1615 -2.8677  0.1782
17984TIP3   OH275366   6.622   6.315  12.716  0.3586 -0.2652 -0.7826
17984TIP3    H175367   6.671   6.322  12.634 -1.2396  1.4069 -1.6792
17984TIP3    H275368   6.558   6.246  12.700 -0.2713  0.3934 -1.1384
17985TIP3   OH275369   5.434   0.733   4.869  0.7056 -0.0817 -0.1240
17985TIP3    H175370   5.434   0.645   4.833  2.0453 -0.4126  0.6451
17985TIP3    H275371   5.354   0.773   4.833  0.5820 -1.2694 -1.2435
17986TIP3   OH275372   2.130   4.294   5.818  0.1167  0.4108 -0.8864
17986TIP3    H175373   2.177   4.252   5.746 -0.1111  1.1376 -1.4667
17986TIP3    H275374   2.072   4.357   5.776  1.3782  2.2647 -0.0153
17987TIP3   OH275375   5.951   2.195  11.400  0.0258  0.6671 -0.0835
17987TIP3    H175376   5.983   2.186  11.490 -1.0109 -1.1388  0.1614
17987TIP3    H275377   6.023   2.236  11.352  0.7078  1.4017  1.4903
17988TIP3   OH275378   6.574   3.403  16.675  0.1105 -0.1470 -0.5192
17988TIP3    H175379   6.629   3.325  16.660 -0.1246 -0.1996 -1.1436
17988TIP3    H275380   6.611   3.469  16.616 -1.0522 -0.4593 -1.6488
17989TIP3   OH275381   2.126   3.256   0.549 -0.0933  0.1817  0.5255
17989TIP3    H175382   2.095   3.258   0.640  1.2480  0.3813  1.0088
17989TIP3    H275383   2.222   3.256   0.557  0.0425 -0.1776 -0.8891
17990TIP3   OH275384   0.017   0.422  15.862  0.6492  0.0465  0.1602
17990TIP3    H175385   0.095   0.478  15.865  0.8159 -0.1178 -0.6547
17990TIP3    H275386  -0.056   0.484  15.865  0.7971  0.1741  1.4096
17991TIP3   OH275387   0.399   5.526   5.649 -0.2786 -0.4533 -0.0055
17991TIP3    H175388   0.459   5.593   5.617 -0.2456  0.3431  1.6103
17991TIP3    H275389   0.448   5.444   5.644  0.3152 -0.0779 -0.3266
17992TIP3   OH275390   0.698   1.384   3.063  0.1516  0.2382 -0.7471
17992TIP3    H175391   0.697   1.295   3.026  0.3672  0.3214 -0.9527
17992TIP3    H275392   0.710   1.441   2.988 -0.6192  0.4859 -0.6952
17993TIP3   OH275393   0.221   2.220  13.268  0.0429 -0.2861 -0.8191
17993TIP3    H175394   0.204   2.314  13.277  2.8862  0.2343  0.2686
17993TIP3    H275395   0.167   2.193  13.194 -1.1948  2.0968 -0.8837
17994TIP3   OH275396   4.714   4.705   1.095 -0.5485 -0.5631 -0.0636
17994TIP3    H175397   4.783   4.731   1.156 -2.9376  1.6549  1.9191
17994TIP3    H275398   4.740   4.744   1.011  0.5171  0.3782  0.6829
17995TIP3   OH275399   6.052   2.192   2.105  0.0600  0.0417  0.2162
17995TIP3    H175400   5.961   2.193   2.076 -0.0216 -2.3012  0.1318
17995TIP3    H275401   6.053   2.130   2.179  1.3477  1.1336  1.1666
17996TIP3   OH275402   5.612   1.854  16.334 -0.3546  0.2811 -0.1296
17996TIP3    H175403   5.537   1.859  16.393 -1.1433  0.9503 -1.1428
17996TIP3    H275404   5.688   1.850  16.391 -1.0954  0.7621  0.9176
17997TIP3   OH275405   0.453   2.704   1.280  0.0327 -0.2829  0.5154
17997TIP3    H175406   0.482   2.704   1.189  0.0661  0.1735  0.5267
17997TIP3    H275407   0.383   2.638   1.283 -0.4927  0.2438 -0.0007
17998TIP3   OH275408   2.947   6.104   2.932  0.6459 -0.1667 -0.4633
17998TIP3    H175409   3.011   6.069   2.870  2.2095  1.1682  0.3395
17998TIP3    H275410   2.999   6.151   2.997 -1.1589  1.0752  0.1662
17999TIP3   OH275411   1.547   4.805   5.701  0.4810 -0.2704  0.0222
17999TIP3    H175412   1.573   4.743   5.769 -1.8275 -1.9000 -0.4984
17999TIP3    H275413   1.452   4.811   5.707  0.3918  1.1794 -1.7152
18000TIP3   OH275414   3.054   3.345  13.248 -0.3784  0.3546 -0.1399
18000TIP3    H175415   3.089   3.385  13.168 -1.0158  0.1120 -0.5457
18000TIP3    H275416   2.973   3.303  13.221 -0.5848  0.2323  0.6303
18001TIP3   OH275417   6.297   4.069   0.521  0.8221  0.1439 -0.3236
18001TIP3    H175418   6.351   4.112   0.455  0.2287 -0.2783 -1.1027
18001TIP3    H275419   6.341   3.985   0.537  1.2420  0.4612  0.1958
18002TIP3   OH275420   5.869   3.916  15.517 -0.0056 -0.0926  0.4699
18002TIP3    H175421   5.797   3.862  15.483 -0.2157 -0.1214  0.9632
18002TIP3    H275422   5.827   3.995  15.550  0.2820  0.2927 -0.0566
18003TIP3   OH275423   2.677   1.546  16.513 -0.9496 -0.2404 -0.3623
18003TIP3    H175424   2.595   1.556  16.465 -0.0683 -1.6463 -2.3060
18003TIP3    H275425   2.661   1.473  16.573 -1.4943  0.3648  0.2567
18004TIP3   OH275426   5.371   2.701   4.985 -0.1266 -0.4187 -0.2813
18004TIP3    H175427   5.422   2.724   5.063 -1.8663  0.9727  0.5103
18004TIP3    H275428   5.416   2.745   4.913 -0.7395  1.6958  0.5574
18005TIP3   OH275429   0.795   3.189   2.453  0.0008  0.0253  0.1470
18005TIP3    H175430   0.746   3.181   2.535  1.9148 -1.8002  1.2292
18005TIP3    H275431   0.883   3.214   2.480  0.3972  0.5001 -1.4739
18006TIP3   OH275432   5.351   3.870   3.718  0.3286 -0.9369  0.6228
18006TIP3    H175433   5.341   3.781   3.683 -0.1933 -1.8817  2.9731
18006TIP3    H275434   5.291   3.872   3.793 -0.8308  1.9367 -0.2619
18007TIP3   OH275435   2.026   1.642   2.835  0.3050 -0.2285  0.1339
18007TIP3    H175436   2.074   1.585   2.775 -0.5708 -1.3890  0.4691
18007TIP3    H275437   2.015   1.724   2.788  1.1509 -0.5198 -0.5927
18008TIP3   OH275438   1.271   1.571   4.434 -0.2861  0.0487  0.6717
18008TIP3    H175439   1.220   1.515   4.375  0.4768 -1.0335  1.0121
18008TIP3    H275440   1.261   1.659   4.398  0.5849 -0.6421 -1.4089
18009TIP3   OH275441   6.490   6.634   5.045 -0.1467  0.1442 -0.5558
18009TIP3    H175442   6.573   6.587   5.060 -1.1727 -1.8963 -0.9710
18009TIP3    H275443   6.512   6.699   4.978  1.1971 -0.1205 -0.4143
18010TIP3   OH275444   4.071   3.108  14.783  0.2610  0.6159 -0.3245
18010TIP3    H175445   4.115   3.099  14.699  0.1513 -0.1491 -0.3152
18010TIP3    H275446   4.022   3.026  14.792  0.0670  0.8048  0.3640
18011TIP3   OH275447   6.680   5.645   0.767 -0.6057 -0.3912 -0.4440
18011TIP3    H175448   6.705   5.737   0.759  0.3274 -0.7270 -1.8730
18011TIP3    H275449   6.595   5.646   0.811 -1.1155  1.2175 -1.3943
18012TIP3   OH275450   5.781   6.524   6.063  0.0043 -0.1800 -0.3794
18012TIP3    H175451   5.794   6.590   5.995 -0.4596 -0.2756 -0.5676
18012TIP3    H275452   5.700   6.549   6.107  1.6217  1.3930  1.9243
18013TIP3   OH275453   4.589   4.182  11.173  0.2177  0.2998 -0.0810
18013TIP3    H175454   4.541   4.185  11.090  0.7252  3.1179 -0.3831
18013TIP3    H275455   4.539   4.239  11.232  0.6391 -0.5226  1.1061
18014TIP3   OH275456   0.346   1.540   0.685  0.2401  0.3703  0.4711
18014TIP3    H175457   0.350   1.522   0.591  0.6723  2.5943  0.0041
18014TIP3    H275458   0.366   1.457   0.726  1.3711 -0.3574 -1.4331
18015TIP3   OH275459   0.782   2.740   0.502 -0.1432  0.5478 -0.0789
18015TIP3    H175460   0.780   2.796   0.580  1.0491 -1.9985  1.9444
18015TIP3    H275461   0.871   2.704   0.502 -0.4543 -0.3133 -2.0803
18016TIP3   OH275462   5.300   6.685  15.946 -1.0312 -0.3912 -0.6173
18016TIP3    H175463   5.213   6.722  15.933 -0.6917  0.3289 -0.8579
18016TIP3    H275464   5.288   6.622  16.017 -2.3703 -2.4713 -2.5278
18017TIP3   OH275465   3.792   3.013  16.336  0.6924 -0.2220  0.5284
18017TIP3    H175466   3.884   2.994  16.356  1.5921  2.0814 -0.9592
18017TIP3    H275467   3.772   2.959  16.260  1.9778  1.6450 -1.2557
18018TIP3   OH275468   5.177   5.579  17.056  0.5689  0.0180  0.4439
18018TIP3    H175469   5.133   5.660  17.031  0.7944 -0.0937 -0.3423
18018TIP3    H275470   5.243   5.566  16.988  0.4089 -0.9258  0.4611
18019TIP3   OH275471   1.961   0.840   3.770 -0.8911 -0.6163  0.7172
18019TIP3    H175472   1.991   0.798   3.850 -0.2229  0.4499  1.0346
18019TIP3    H275473   1.922   0.769   3.719 -0.6881 -1.4296  1.6740
18020TIP3   OH275474   3.693   4.840  12.381 -0.0897 -0.1348  0.6022
18020TIP3    H175475   3.643   4.763  12.357 -0.0647  0.6077 -2.1196
18020TIP3    H275476   3.784   4.818  12.358 -0.3318  1.3054 -2.2051
18021TIP3   OH275477   1.471   2.580  17.105 -0.0872 -0.3768  0.5137
18021TIP3    H175478   1.413   2.545  17.037  1.3713 -1.2387 -0.3495
18021TIP3    H275479   1.543   2.620  17.057 -0.9472  2.6108  1.5193
18022TIP3   OH275480   6.226   1.463  15.210  0.0404  0.0823  0.1747
18022TIP3    H175481   6.257   1.551  15.188  0.7006 -0.1655  0.0936
18022TIP3    H275482   6.306   1.414  15.229 -0.2021 -0.9152 -1.2338
18023TIP3   OH275483   6.015   1.698   4.147  0.6351  0.4648 -0.2356
18023TIP3    H175484   6.076   1.772   4.144  0.1049  0.9127 -0.1457
18023TIP3    H275485   6.063   1.630   4.193  1.3322  0.5599 -0.7922
18024TIP3   OH275486   0.382   4.007  17.340  0.4766  0.6548 -0.0376
18024TIP3    H175487   0.469   3.999  17.302  0.3147  0.3583 -0.3548
18024TIP3    H275488   0.392   4.070  17.412  1.1217  0.0019  0.4588
18025TIP3   OH275489   4.754   5.905  15.401 -0.3983  0.4001  0.0583
18025TIP3    H175490   4.779   5.940  15.487  1.2512 -1.3702  0.3804
18025TIP3    H275491   4.661   5.884  15.410 -0.2721  0.2983  1.4017
18026TIP3   OH275492   1.156   2.689   2.390  0.4159 -0.3649 -0.8605
18026TIP3    H175493   1.084   2.649   2.439  1.0749 -0.7441 -0.1778
18026TIP3    H275494   1.182   2.764   2.443 -0.3686  0.6042 -1.8000
18027TIP3   OH275495   1.838   4.709  14.435  0.4725  0.0512 -0.3480
18027TIP3    H175496   1.805   4.621  14.417 -0.9958  0.6723 -0.7763
18027TIP3    H275497   1.810   4.762  14.361 -0.9029  1.4298  1.0687
18028TIP3   OH275498   0.937   4.134  14.825  0.9319  0.4759 -0.3503
18028TIP3    H175499   0.960   4.227  14.835  1.2248  0.4267 -0.5488
18028TIP3    H275500   0.909   4.107  14.912 -0.2806  1.0469 -0.5293
18029TIP3   OH275501   1.962   6.345   4.698 -0.2626  0.5723  0.2979
18029TIP3    H175502   1.888   6.291   4.671  0.2757 -0.5174  0.9316
18029TIP3    H275503   1.991   6.306   4.781  0.1560  1.8292  0.7694
18030TIP3   OH275504   5.290   5.844  13.796 -0.7384 -0.1674 -0.0190
18030TIP3    H175505   5.232   5.773  13.770 -1.1347 -0.0979  0.6752
18030TIP3    H275506   5.372   5.826  13.749 -1.1733 -0.4915 -0.6770
18031TIP3   OH275507   4.147   1.561  14.565  0.3885 -0.0490  0.0629
18031TIP3    H175508   4.173   1.470  14.550 -0.0635 -0.1689 -0.0194
18031TIP3    H275509   4.148   1.601  14.478  1.3912  0.2529  0.1977
18032TIP3   OH275510   0.250   5.032   6.235 -0.2439 -0.4796  0.1354
18032TIP3    H175511   0.174   5.074   6.195  0.8390  4.5051  2.4633
18032TIP3    H275512   0.213   4.974   6.302 -1.9199 -1.0981 -1.2581
18033TIP3   OH275513   4.734   4.652   5.745  0.1573 -0.1726  0.2175
18033TIP3    H175514   4.761   4.584   5.806  0.9606 -0.9760 -0.9985
18033TIP3    H275515   4.681   4.607   5.680  0.1714  0.4756 -0.2540
18034TIP3   OH275516   6.718   1.250  12.557 -0.2825 -0.2544  0.0915
18034TIP3    H175517   6.762   1.270  12.474 -0.1310  1.3772  0.5406
18034TIP3    H275518   6.625   1.251  12.535 -0.2628  0.6474  0.0219
18035TIP3   OH275519   0.505   2.627   0.732  0.2594 -0.5223 -0.3777
18035TIP3    H175520   0.469   2.538   0.722 -0.1214 -0.2237 -1.8006
18035TIP3    H275521   0.545   2.626   0.819 -0.8777 -1.6893  0.1773
18036TIP3   OH275522   5.636   6.014  13.379  0.0867  0.1411  0.1210
18036TIP3    H175523   5.673   6.089  13.426  1.2185 -1.7614  2.4509
18036TIP3    H275524   5.542   6.020  13.396  0.1743  0.9660  0.3889
18037TIP3   OH275525   6.745   3.572  12.241 -0.0128 -0.4380 -0.5087
18037TIP3    H175526   6.792   3.644  12.199  0.8215 -1.4959 -1.4653
18037TIP3    H275527   6.661   3.609  12.266  0.2687  0.7754 -1.2901
18038TIP3   OH275528   4.983   1.178   2.402  0.2326 -0.0639  0.5783
18038TIP3    H175529   4.911   1.176   2.465 -0.0748  2.2762  0.4004
18038TIP3    H275530   5.062   1.185   2.456  0.0925  0.3321  0.7343
18039TIP3   OH275531   2.182   0.517  16.586  0.5335 -0.2994  0.0916
18039TIP3    H175532   2.220   0.571  16.655  3.0826  1.3909 -2.4156
18039TIP3    H275533   2.091   0.545  16.580  1.2041  2.1180  0.4281
18040TIP3   OH275534   6.367   6.353  16.467  0.2055 -0.1579  0.1350
18040TIP3    H175535   6.345   6.308  16.548 -1.1990 -0.1287 -0.1917
18040TIP3    H275536   6.448   6.312  16.437  1.0236  0.1695  1.7889
18041TIP3   OH275537   1.839   3.699   5.310  0.2573  0.4007 -0.1851
18041TIP3    H175538   1.751   3.732   5.293  0.3955  0.5592 -0.6101
18041TIP3    H275539   1.884   3.705   5.226  0.3190 -0.7915 -0.2548
18042TIP3   OH275540   3.603   6.154   0.977 -0.1042 -0.2494  0.0580
18042TIP3    H175541   3.650   6.152   0.893  0.1073 -1.3511  0.1899
18042TIP3    H275542   3.661   6.203   1.036 -0.7116  1.4544 -0.6743
18043TIP3   OH275543   2.836   2.139  13.777 -0.1641  0.1781 -0.1238
18043TIP3    H175544   2.794   2.164  13.860  0.9334 -2.8119  1.4819
18043TIP3    H275545   2.929   2.157  13.792 -0.0476  0.3613 -1.0403
18044TIP3   OH275546   0.285   5.600  13.783  0.3007 -0.2750  0.0280
18044TIP3    H175547   0.339   5.538  13.833  1.9758  1.6451  0.7465
18044TIP3    H275548   0.264   5.670  13.845  1.2747  1.4967 -1.5364
18045TIP3   OH275549   2.080   2.458   1.354 -0.4791  0.4442 -0.7747
18045TIP3    H175550   2.116   2.378   1.316  1.6127  1.1113 -0.2837
18045TIP3    H275551   2.077   2.441   1.448 -0.4273  0.7946 -0.7092
18046TIP3   OH275552   3.394   5.607  13.783 -0.2183 -0.4417  0.4418
18046TIP3    H175553   3.482   5.600  13.747 -0.8747 -2.0209 -0.9439
18046TIP3    H275554   3.406   5.595  13.878  1.1798  0.8150  0.4577
18047TIP3   OH275555   4.921   4.110   6.585 -0.2536 -0.2647  0.0940
18047TIP3    H175556   4.942   4.153   6.502 -1.6423 -0.0274 -0.1696
18047TIP3    H275557   4.980   4.035   6.589  1.0452  0.6989 -0.2552
18048TIP3   OH275558   6.180   6.299   1.064 -0.2370 -0.3895 -0.5819
18048TIP3    H175559   6.113   6.241   1.029  2.1869 -2.7298 -1.7068
18048TIP3    H275560   6.163   6.300   1.159 -0.4109 -3.0196 -0.5027
18049TIP3   OH275561   5.115   4.549  11.007 -0.0530 -0.1635 -0.1541
18049TIP3    H175562   5.168   4.540  10.928  0.7831  0.0337  0.3667
18049TIP3    H275563   5.030   4.513  10.983  0.7609 -1.9381 -0.5544
18050TIP3   OH275564   2.638   6.007  13.481  0.2805 -1.0032  0.3137
18050TIP3    H175565   2.680   6.064  13.417  0.1048 -1.7699 -0.5076
18050TIP3    H275566   2.653   5.918  13.448  0.3504 -1.4254  1.4372
18051TIP3   OH275567   1.523   6.001  13.544 -0.1554  0.0750  0.6584
18051TIP3    H175568   1.469   5.923  13.559  0.4173 -0.0057  2.6998
18051TIP3    H275569   1.543   6.033  13.632  1.7394  1.0594 -0.0724
18052TIP3   OH275570   2.525   2.893   2.192 -1.0551 -0.1698  0.0536
18052TIP3    H175571   2.479   2.971   2.222 -2.2894 -0.6367 -0.5514
18052TIP3    H275572   2.616   2.907   2.219 -1.3298  1.2690  0.3294
18053TIP3   OH275573   5.075   2.782  11.026  0.9062  0.3598  0.4568
18053TIP3    H175574   5.083   2.687  11.015 -0.5642  0.1394  0.9905
18053TIP3    H275575   5.073   2.817  10.937  1.4679 -0.1135  0.2566
18054TIP3   OH275576   6.497   1.374   6.537  0.4704 -0.2381 -0.2951
18054TIP3    H175577   6.518   1.411   6.451 -0.4398  0.8349 -0.0734
18054TIP3    H275578   6.542   1.430   6.599  0.9605 -0.8939 -0.0451
18055TIP3   OH275579   4.203   5.396  16.754  0.5274 -0.3272  0.7582
18055TIP3    H175580   4.263   5.322  16.764 -0.4748 -1.3188 -0.3056
18055TIP3    H275581   4.120   5.364  16.791 -0.8417 -0.9815 -2.5598
18056TIP3   OH275582   5.572   6.121   3.990  0.3150  0.1129 -0.5379
18056TIP3    H175583   5.640   6.064   4.025  0.4213  0.0775 -0.8011
18056TIP3    H275584   5.495   6.065   3.984 -0.0122  0.3993  0.6798
18057TIP3   OH275585   3.067   2.145   2.155 -0.2941  0.0460 -0.0872
18057TIP3    H175586   2.988   2.119   2.202 -0.4086 -0.5312 -0.5922
18057TIP3    H275587   3.116   2.199   2.218 -0.7103 -0.2495  0.4940
18058TIP3   OH275588   3.416   4.622  16.523 -0.1218 -0.1033 -0.0506
18058TIP3    H175589   3.442   4.583  16.607 -1.8694  0.5316  0.8498
18058TIP3    H275590   3.397   4.548  16.466 -1.2197 -0.6008  0.9134
18059TIP3   OH275591   3.778   0.346   0.817 -0.0961 -0.0255  0.1594
18059TIP3    H175592   3.807   0.285   0.749  0.6450  0.1603  0.3011
18059TIP3    H275593   3.701   0.304   0.855 -2.2162  1.0582 -2.5633
18060TIP3   OH275594   4.644   4.969   2.571 -0.6956  0.3469 -0.1421
18060TIP3    H175595   4.623   4.975   2.478 -1.7692 -1.9867 -0.1452
18060TIP3    H275596   4.694   4.888   2.578  0.7015  1.2818  1.1349
18061TIP3   OH275597   3.600   3.729   1.901 -0.5672 -0.1050  0.6039
18061TIP3    H175598   3.514   3.708   1.863 -1.3932  1.7701  1.2949
18061TIP3    H275599   3.651   3.762   1.827  0.9664 -4.5888 -0.6382
18062TIP3   OH275600   0.676   4.557   3.577  0.4080 -0.3337 -0.2312
18062TIP3    H175601   0.618   4.593   3.644  2.6215  0.7435  1.2257
18062TIP3    H275602   0.697   4.469   3.606 -0.1261 -0.5644 -0.5320
18063TIP3   OH275603   6.718   3.690   3.822 -0.4157  0.1878 -0.6960
18063TIP3    H175604   6.700   3.781   3.847 -0.3366  0.3702 -1.2753
18063TIP3    H275605   6.633   3.647   3.826 -0.5538  0.4294 -0.9724
18064TIP3   OH275606   5.358   4.974  12.424 -0.2308  0.1238  0.4222
18064TIP3    H175607   5.319   4.932  12.500  1.0826  0.4426  1.3284
18064TIP3    H275608   5.451   4.983  12.448 -0.1106  1.7502 -0.5181
18065TIP3   OH275609   3.977   5.017  11.163  0.1471  0.5261 -0.3014
18065TIP3    H175610   4.029   4.963  11.103 -0.4608  0.5593 -0.8735
18065TIP3    H275611   3.962   4.961  11.239 -2.2238 -0.9423 -1.7217
18066TIP3   OH275612   2.305   3.147   3.786  0.0128  0.0890  0.5589
18066TIP3    H175613   2.253   3.068   3.800  0.4661 -0.3021  0.0761
18066TIP3    H275614   2.343   3.166   3.872  1.3242 -1.2566  0.3319
18067TIP3   OH275615   1.553   4.096   0.679  0.4088 -0.3668  0.1923
18067TIP3    H175616   1.498   4.102   0.757 -0.5764  2.0336 -0.5758
18067TIP3    H275617   1.629   4.150   0.699  0.7460 -0.7465 -0.0535
18068TIP3   OH275618   6.598   3.518  14.890  0.2384  0.1414  0.3542
18068TIP3    H175619   6.575   3.599  14.844  0.1902 -0.0378  0.0576
18068TIP3    H275620   6.538   3.452  14.853 -1.8911  0.5685  2.7450
18069TIP3   OH275621   1.372   4.131  14.976  0.8185 -0.2386  0.2810
18069TIP3    H175622   1.324   4.125  14.893  0.0711  0.2636  0.6646
18069TIP3    H275623   1.395   4.224  14.983  0.5233 -0.2063  0.8304
18070TIP3   OH275624   5.029   0.588   5.922 -0.5080 -0.2749  0.3820
18070TIP3    H175625   4.968   0.646   5.967  0.2644 -0.2590  1.4563
18070TIP3    H275626   5.093   0.564   5.989  1.7332  1.1508 -1.0782
18071TIP3   OH275627   2.797   5.482  17.325  0.5386  0.5644  0.5820
18071TIP3    H175628   2.892   5.494  17.322  0.9192 -2.0954 -0.9001
18071TIP3    H275629   2.785   5.400  17.372 -0.9252  0.1942 -0.3853
18072TIP3   OH275630   4.656   4.392  14.000  0.1379  0.2069 -0.1484
18072TIP3    H175631   4.564   4.413  13.990 -0.0534  1.0640  2.6314
18072TIP3    H275632   4.671   4.391  14.095  3.0088  0.2089 -0.4934
18073TIP3   OH275633   0.270   2.589   0.338 -0.1276  0.1339 -0.2140
18073TIP3    H175634   0.302   2.610   0.250  1.0824  0.5487  0.3060
18073TIP3    H275635   0.350   2.579   0.391 -0.8366 -0.0980  0.8437
18074TIP3   OH275636   0.920   6.359  14.341 -0.0341  0.5469 -0.2367
18074TIP3    H175637   0.969   6.421  14.286 -0.7792  2.4554  1.1619
18074TIP3    H275638   0.859   6.316  14.280  0.8929  0.7223 -1.3350
18075TIP3   OH275639   4.662   5.051  15.693 -0.6080  0.0593  0.7241
18075TIP3    H175640   4.751   5.041  15.658 -0.3697 -1.1843  1.5936
18075TIP3    H275641   4.667   5.014  15.782 -1.7747  0.8408  1.1423
18076TIP3   OH275642   0.967   2.610   4.522  0.1165 -0.3365  0.5348
18076TIP3    H175643   1.047   2.655   4.497 -0.5847 -0.4649 -2.3136
18076TIP3    H275644   0.996   2.525   4.553  1.1600  0.1433  0.9017
18077TIP3   OH275645   3.974   4.648   4.868  0.4383 -0.5149  0.2539
18077TIP3    H175646   4.044   4.585   4.853  0.8651  0.1353 -0.6024
18077TIP3    H275647   3.894   4.603   4.841  0.3488 -1.6318  2.2048
18078TIP3   OH275648   2.190   6.322  16.563 -0.1144  0.1660  0.1646
18078TIP3    H175649   2.211   6.408  16.601 -2.0259 -0.3632  2.7206
18078TIP3    H275650   2.266   6.268  16.585 -0.5908  0.2379  2.3031
18079TIP3   OH275651   2.400   4.392  11.316 -0.6472  0.0548 -0.7070
18079TIP3    H175652   2.416   4.299  11.300 -0.8794 -0.6127  2.2766
18079TIP3    H275653   2.405   4.433  11.230  1.3348 -2.4296 -1.9043
18080TIP3   OH275654   5.691   2.847  14.636 -0.2095 -0.6703  0.3775
18080TIP3    H175655   5.646   2.764  14.652 -0.9443 -0.3313  0.1008
18080TIP3    H275656   5.784   2.823  14.629 -0.1858 -1.2049  2.1740
18081TIP3   OH275657   4.202   3.444  15.808  0.5263 -0.3912  0.4429
18081TIP3    H175658   4.264   3.379  15.773  0.6668 -0.6449  1.1524
18081TIP3    H275659   4.147   3.468  15.733  0.8417 -0.9044  0.0439
18082TIP3   OH275660   2.763   0.973  14.040 -0.5964  0.4593  0.7630
18082TIP3    H175661   2.847   1.010  14.012  0.8565 -2.9059  0.1985
18082TIP3    H275662   2.772   0.962  14.135 -0.2116 -0.2324  0.6538
18083TIP3   OH275663   2.489   3.449  17.393  0.4723 -0.2882 -0.3780
18083TIP3    H175664   2.407   3.477  17.351  0.8231 -0.8583 -1.4761
18083TIP3    H275665   2.518   3.526  17.441 -1.1080 -0.2980  0.6815
18084TIP3   OH275666   2.474   3.669   0.661 -0.6163  0.2524  0.2466
18084TIP3    H175667   2.560   3.651   0.697  0.4905  0.6514 -1.9872
18084TIP3    H275668   2.486   3.663   0.566 -2.6817  1.9181 -0.1983
18085TIP3   OH275669   5.637   3.173  16.047  0.2465 -0.5585 -0.4330
18085TIP3    H175670   5.591   3.247  16.085 -1.0419 -2.0703  1.1414
18085TIP3    H275671   5.708   3.154  16.108 -1.1692 -2.3261  0.7668
18086TIP3   OH275672   1.768   0.701   3.603 -0.7848 -0.2289 -0.6083
18086TIP3    H175673   1.768   0.656   3.688 -0.5455 -0.2479 -0.6184
18086TIP3    H275674   1.698   0.766   3.611 -1.3361 -0.8031 -0.7054
18087TIP3   OH275675   3.680   6.573  16.116  0.1021  0.0632  0.0398
18087TIP3    H175676   3.706   6.514  16.046  0.5496 -0.1813  0.4065
18087TIP3    H275677   3.594   6.605  16.090  1.5481  2.5069 -2.2877
18088TIP3   OH275678   2.698   5.325  14.303 -0.3310 -0.1934 -0.4808
18088TIP3    H175679   2.719   5.365  14.219  0.9374  0.0184 -0.0846
18088TIP3    H275680   2.783   5.296  14.338 -0.8956 -0.7381  0.4879
18089TIP3   OH275681   1.275   2.119   5.554  0.2269 -0.1676  0.0613
18089TIP3    H175682   1.204   2.116   5.618 -1.8502 -0.5393 -2.1027
18089TIP3    H275683   1.330   2.192   5.582 -1.6990  0.9424  1.1802
18090TIP3   OH275684   0.958   1.925   0.163  0.1906  0.2060 -0.2077
18090TIP3    H175685   0.940   1.945   0.071 -1.2010 -0.9606 -0.2376
18090TIP3    H275686   1.028   1.986   0.188  0.0577  1.0780 -1.8052
18091TIP3   OH275687   5.225   5.001  16.525 -0.0650 -0.3051  0.0901
18091TIP3    H175688   5.233   4.958  16.610 -0.4897  0.8322  0.7244
18091TIP3    H275689   5.135   4.983  16.497 -0.6345  1.0955  0.9068
18092TIP3   OH275690   3.432   3.534   0.463 -0.3079  0.0113  0.2731
18092TIP3    H175691   3.508   3.592   0.473 -1.0948  1.4561 -1.5528
18092TIP3    H275692   3.463   3.449   0.494  2.2574  0.4034 -0.9226
18093TIP3   OH275693   5.486   0.427   6.630  0.5004  0.3475  0.1355
18093TIP3    H175694   5.545   0.469   6.693  0.5577  0.7726 -0.1983
18093TIP3    H275695   5.546   0.383   6.569  0.4684  0.6575 -0.1194
18094TIP3   OH275696   3.351   0.153  15.944 -0.1189  0.2480  0.2721
18094TIP3    H175697   3.339   0.133  15.851 -0.8343 -1.5295  0.6916
18094TIP3    H275698   3.418   0.221  15.945 -1.3991  1.6659 -1.6143
18095TIP3   OH275699   5.671   2.692  15.997  0.0505 -0.2592  0.2673
18095TIP3    H175700   5.725   2.616  15.975 -1.0739 -1.1663  0.5322
18095TIP3    H275701   5.582   2.657  16.004 -0.8241  1.4416 -1.5163
18096TIP3   OH275702   1.022   4.107  12.291  0.3390  0.3034  0.1020
18096TIP3    H175703   1.057   4.031  12.338 -1.2017  0.6372  1.9051
18096TIP3    H275704   0.933   4.081  12.266 -0.4250  1.6621  1.2507
18097TIP3   OH275705   6.636   0.964   1.695  0.5871 -0.1914 -0.5158
18097TIP3    H175706   6.650   0.966   1.789 -2.3339 -0.0545 -0.0062
18097TIP3    H275707   6.599   0.877   1.678  3.1593 -1.1316 -1.9816
18098TIP3   OH275708   1.490   2.825  16.713 -0.2792 -0.5905  0.0481
18098TIP3    H175709   1.434   2.859  16.783 -1.8037 -1.4211 -0.7030
18098TIP3    H275710   1.446   2.745  16.684  0.2358 -0.2134 -1.9319
18099TIP3   OH275711   3.873   6.348   3.259 -0.1358  0.0285 -0.1084
18099TIP3    H175712   3.886   6.437   3.226 -0.0328 -0.2437 -0.8247
18099TIP3    H275713   3.896   6.353   3.352 -0.7168  0.8780 -0.0012
18100TIP3   OH275714   2.105   3.603  12.477  0.9859  0.2188  0.3135
18100TIP3    H175715   2.105   3.589  12.382  1.1053 -0.3514  0.3928
18100TIP3    H275716   2.035   3.546  12.509 -1.8388  3.3156  0.1750
18101TIP3   OH275717   3.329   6.395  12.157 -0.5816 -0.4736  0.3406
18101TIP3    H175718   3.323   6.304  12.129 -2.0474 -0.3879  0.2703
18101TIP3    H275719   3.261   6.403  12.225 -0.3680  0.5202  0.4502
18102TIP3   OH275720   3.496   1.643  12.347 -0.4529 -0.5611 -0.3435
18102TIP3    H175721   3.416   1.594  12.368 -0.9401 -0.0164 -0.8949
18102TIP3    H275722   3.465   1.718  12.297  0.1893  0.7712  1.1656
18103TIP3   OH275723   1.129   6.030  13.079  0.3464  0.1213 -0.7844
18103TIP3    H175724   1.218   6.037  13.114 -0.1599 -0.9727  0.8466
18103TIP3    H275725   1.130   5.949  13.028  0.2857  0.0984 -0.7486
18104TIP3   OH275726   1.583   1.768   3.363 -0.1164 -0.0897 -0.2737
18104TIP3    H175727   1.635   1.766   3.282  0.7410 -0.3000  0.2731
18104TIP3    H275728   1.507   1.714   3.343  0.0933 -0.1593 -0.9301
18105TIP3   OH275729   2.221   0.335   1.947  0.5865 -0.0559 -0.4458
18105TIP3    H175730   2.296   0.330   1.888  1.5646  1.3641  0.6033
18105TIP3    H275731   2.213   0.428   1.968 -2.2437  0.0133 -1.4473
18106TIP3   OH275732   0.505   2.625  11.927  0.1800  0.7004  0.2585
18106TIP3    H175733   0.474   2.551  11.978  2.0430  0.5303  1.2292
18106TIP3    H275734   0.514   2.696  11.991 -1.6503  1.8329 -0.6651
18107TIP3   OH275735   5.843   2.764  11.186  0.6879 -0.2001  0.0103
18107TIP3    H175736   5.829   2.854  11.156  2.4103  0.1132  0.0376
18107TIP3    H275737   5.934   2.764  11.218  0.7270 -1.9620 -0.0402
18108TIP3   OH275738   3.883   2.330   4.853 -0.0590  0.2547  0.0446
18108TIP3    H175739   3.904   2.367   4.767 -3.1445  1.5679 -0.2611
18108TIP3    H275740   3.867   2.407   4.908 -0.8000 -0.6035  1.0502
18109TIP3   OH275741   3.799   3.739  16.542 -0.0757  0.2248 -0.3806
18109TIP3    H175742   3.861   3.668  16.560 -0.8067 -0.1917  0.5902
18109TIP3    H275743   3.821   3.769  16.453  0.6630 -0.7780 -0.5474
18110TIP3   OH275744   0.502   5.092   3.348 -0.2066 -0.2902  0.6350
18110TIP3    H175745   0.525   5.003   3.323 -1.4303 -0.2691 -0.6835
18110TIP3    H275746   0.410   5.102   3.322  0.0610  1.5417  0.2180
18111TIP3   OH275747   3.585   2.430  11.683  0.5980  0.0243 -0.6299
18111TIP3    H175748   3.549   2.419  11.771  1.0655  1.8254 -0.1568
18111TIP3    H275749   3.531   2.374  11.627  0.4370 -1.3268  0.8189
18112TIP3   OH275750   0.561   1.219   2.361  0.4551  0.2458  0.1078
18112TIP3    H175751   0.628   1.192   2.299  0.1592  0.2826 -0.2343
18112TIP3    H275752   0.520   1.137   2.390 -0.7420  0.3135 -1.2678
18113TIP3   OH275753   3.879   6.335  14.455 -0.7939 -0.1032  0.0956
18113TIP3    H175754   3.967   6.321  14.488 -0.4729  1.0512 -0.2117
18113TIP3    H275755   3.863   6.429  14.469 -1.8091 -0.2126 -0.2351
18114TIP3   OH275756   1.167   2.851   5.659  0.0731  1.1055  0.4085
18114TIP3    H175757   1.082   2.895   5.649 -0.7444 -0.8441 -2.2505
18114TIP3    H275758   1.157   2.800   5.740 -0.5970  2.2044  1.0549
18115TIP3   OH275759   1.146   4.883   2.002 -0.3791  0.0754 -0.1241
18115TIP3    H175760   1.227   4.838   1.981 -0.2256  0.0866  0.4222
18115TIP3    H275761   1.154   4.969   1.959 -0.7957 -0.5017 -1.4082
18116TIP3   OH275762   4.629   5.995  16.267 -0.2319 -0.3842 -1.3311
18116TIP3    H175763   4.569   6.067  16.248 -2.2692 -1.5910  0.0935
18116TIP3    H275764   4.584   5.917  16.235  1.6873 -1.1164 -2.3841
18117TIP3   OH275765   0.883   3.591   0.280  0.3670 -0.1232  0.0258
18117TIP3    H175766   0.955   3.563   0.337  1.2687  1.7318 -0.1316
18117TIP3    H275767   0.856   3.511   0.235  1.3682 -1.1337  1.1409
18118TIP3   OH275768   2.238   1.465  15.962  0.1666 -0.1510 -0.1616
18118TIP3    H175769   2.155   1.476  16.008  0.5777 -2.0707  1.1521
18118TIP3    H275770   2.214   1.463  15.869 -1.0862  0.4686  0.1291
18119TIP3   OH275771   6.390   4.569  16.009  0.2674 -0.4543 -0.0195
18119TIP3    H175772   6.433   4.601  16.088 -1.2500 -1.7781  1.4254
18119TIP3    H275773   6.403   4.474  16.012 -1.0309 -0.6688 -0.5702
18120TIP3   OH275774   6.079   4.875  12.609 -0.5028 -0.1777 -0.4057
18120TIP3    H175775   6.067   4.970  12.612  2.0288  0.2164 -0.8303
18120TIP3    H275776   6.173   4.863  12.599 -0.7108 -2.7671  0.0855
18121TIP3   OH275777   4.790   4.479  12.962  1.0456  0.0907 -0.2078
18121TIP3    H175778   4.695   4.488  12.951  1.1419  0.7866 -0.5042
18121TIP3    H275779   4.817   4.424  12.889  0.6527 -1.5196  0.8011
18122TIP3   OH275780   0.914   1.176   2.933  0.2411  0.0394  0.1131
18122TIP3    H175781   0.869   1.098   2.966 -0.5226  0.7227  0.7444
18122TIP3    H275782   0.877   1.191   2.846  2.0231 -1.5788 -1.0018
18123TIP3   OH275783   6.591   1.398   5.073  0.9524 -0.0216  0.8052
18123TIP3    H175784   6.656   1.360   5.132  0.9360 -0.9644  0.2375
18123TIP3    H275785   6.507   1.363   5.104  0.9742 -0.7524  0.0576
18124TIP3   OH275786   4.281   4.497  14.848 -0.0595  0.1979  0.1499
18124TIP3    H175787   4.192   4.496  14.884  0.6932 -1.2631  2.1619
18124TIP3    H275788   4.288   4.415  14.799  0.0041  0.5958 -0.5196
18125TIP3   OH275789   4.179   5.823   2.479 -0.2375  0.7886 -0.1573
18125TIP3    H175790   4.186   5.731   2.503 -2.4999  0.0601 -1.9278
18125TIP3    H275791   4.205   5.871   2.558  1.9145 -1.3091  0.4998
18126TIP3   OH275792   0.110   1.958   5.947 -0.1911  0.2797 -0.0456
18126TIP3    H175793   0.114   1.882   5.889  1.1737  1.1398 -1.1102
18126TIP3    H275794   0.144   1.925   6.031  0.3438 -0.2948 -0.4772
18127TIP3   OH275795   1.201   2.438   0.505  0.3210  0.3153 -0.3070
18127TIP3    H175796   1.276   2.468   0.556 -0.0209 -0.6874  0.8050
18127TIP3    H275797   1.193   2.345   0.525 -0.4598  0.1234 -1.4038
18128TIP3   OH275798   4.220   1.944  10.668 -0.0519 -0.4350  0.3628
18128TIP3    H175799   4.145   1.935  10.727  0.6551  0.7061  1.5009
18128TIP3    H275800   4.294   1.908  10.717  1.0146  2.6647  1.2578
18129TIP3   OH275801   6.697   2.974   0.774 -0.5048 -0.4202  0.1110
18129TIP3    H175802   6.739   3.032   0.710  2.8920 -0.7926  1.7374
18129TIP3    H275803   6.611   3.012   0.789  0.0074  1.7800 -1.9297
18130TIP3   OH275804   2.477   3.341  14.778 -0.1858  0.1861 -0.5803
18130TIP3    H175805   2.528   3.343  14.697  0.9560  0.4464  0.1200
18130TIP3    H275806   2.489   3.427  14.817 -0.9045  0.1380 -0.2253
18131TIP3   OH275807   0.015   5.549   2.130 -0.5872  0.3250 -0.2166
18131TIP3    H175808  -0.036   5.468   2.128 -0.5371  0.2870  0.1827
18131TIP3    H275809   0.101   5.524   2.161 -0.2416  0.3509 -1.1362
18132TIP3   OH275810   5.062   4.704   3.067 -0.0466  0.5140 -0.1675
18132TIP3    H175811   5.089   4.684   3.157  0.5706 -0.1565 -0.4876
18132TIP3    H275812   5.058   4.619   3.024  1.0656  0.9364 -1.1485
18133TIP3   OH275813   5.372   4.011  15.763  0.6893 -0.4600 -0.3089
18133TIP3    H175814   5.303   4.067  15.799  0.3186 -0.9393 -0.2657
18133TIP3    H275815   5.378   4.036  15.671  1.4439  0.5744  0.0063
18134TIP3   OH275816   5.844   3.968   0.251 -0.2925  0.6501  0.1701
18134TIP3    H175817   5.782   3.901   0.280 -0.4388  0.8610  0.3468
18134TIP3    H275818   5.823   3.983   0.159 -0.5111  0.7295  0.2331
18135TIP3   OH275819   2.814   0.363   0.032 -0.0423  0.2280  0.0871
18135TIP3    H175820   2.870   0.440   0.029  0.2174  0.0472  0.2820
18135TIP3    H275821   2.868   0.292  -0.003 -0.6251  0.3392 -1.0882
18136TIP3   OH275822   6.000   6.648  13.176 -0.2941  0.2037  0.5425
18136TIP3    H175823   6.047   6.568  13.153  1.2464  0.3973  2.7871
18136TIP3    H275824   6.025   6.711  13.108  1.1382 -0.2663  0.6152
18137TIP3   OH275825   0.632   4.135  16.695 -0.5912 -0.3272 -0.7071
18137TIP3    H175826   0.688   4.199  16.739  0.1504 -0.4209 -1.4801
18137TIP3    H275827   0.559   4.121  16.755 -0.3393  0.6187 -0.1583
18138TIP3   OH275828   4.610   3.739   2.137  0.5650  0.2858  0.6963
18138TIP3    H175829   4.606   3.785   2.221 -0.0172 -1.5857  1.7378
18138TIP3    H275830   4.664   3.662   2.153  0.0767 -0.3471 -0.5146
18139TIP3   OH275831   3.331   4.816  10.462  0.6624 -0.6437 -0.1977
18139TIP3    H175832   3.389   4.761  10.410 -1.9817 -2.2359 -1.7208
18139TIP3    H275833   3.287   4.755  10.521 -1.2114 -0.0024 -0.8330
18140TIP3   OH275834   0.556   2.874   3.239 -0.2275 -0.2954 -0.1594
18140TIP3    H175835   0.553   2.964   3.207 -0.5058  0.0681  0.8223
18140TIP3    H275836   0.476   2.866   3.292  0.0881 -0.9296  0.2265
18141TIP3   OH275837   1.406   6.601   0.796  0.0615 -0.7594 -0.1646
18141TIP3    H175838   1.375   6.542   0.865 -0.0377  1.6919  2.0264
18141TIP3    H275839   1.326   6.638   0.759  0.1737 -0.5862 -0.2338
18142TIP3   OH275840   5.794   2.655  15.541  0.0097  0.2997  0.1534
18142TIP3    H175841   5.792   2.736  15.592 -2.3693  0.6025 -0.3041
18142TIP3    H275842   5.739   2.594  15.590  0.7675 -0.6426 -0.1436
18143TIP3   OH275843   3.399   4.415   2.045  0.0994  0.1936 -0.3340
18143TIP3    H175844   3.491   4.442   2.048  0.0274  0.8759 -2.6316
18143TIP3    H275845   3.383   4.395   1.953 -1.9133 -0.4790  0.1253
18144TIP3   OH275846   0.318   5.775  16.109  0.0766 -0.4181  0.2247
18144TIP3    H175847   0.306   5.831  16.033 -0.8251 -0.4527  0.3303
18144TIP3    H275848   0.384   5.711  16.082 -0.6410 -0.7839 -0.7337
18145TIP3   OH275849   2.330   4.956  13.059 -0.4894  0.6265 -0.3585
18145TIP3    H175850   2.297   5.035  13.101  0.0512  0.1252  1.0755
18145TIP3    H275851   2.253   4.904  13.040 -0.6810  0.2946  1.2324
18146TIP3   OH275852   0.590   0.748  14.662  0.1839 -0.6352 -0.3647
18146TIP3    H175853   0.519   0.722  14.603  0.6542 -2.2935 -0.2329
18146TIP3    H275854   0.631   0.822  14.618 -0.9700 -0.3064 -0.9445
18147TIP3   OH275855   1.965   2.234   5.054  0.1365 -0.3630 -0.4760
18147TIP3    H175856   1.872   2.213   5.057 -0.1693  0.7255 -1.3988
18147TIP3    H275857   2.000   2.180   4.983  0.1971 -0.7037 -0.1900
18148TIP3   OH275858   5.703   0.411  14.671  0.3964  0.9994  0.1436
18148TIP3    H175859   5.735   0.477  14.732 -1.0734  3.3770 -1.4540
18148TIP3    H275860   5.609   0.424  14.668  0.0749 -1.0240 -0.4725
18149TIP3   OH275861   2.550   4.088   3.224  0.4385  0.0498 -0.0406
18149TIP3    H175862   2.463   4.077   3.186 -0.0596  1.7079  0.5016
18149TIP3    H275863   2.532   4.108   3.316  1.3775  0.6734  0.0139
18150TIP3   OH275864   4.963   4.127   0.523  0.2996  0.6123 -0.3851
18150TIP3    H175865   5.033   4.090   0.471 -1.2080 -0.9833 -1.4029
18150TIP3    H275866   4.902   4.163   0.459  0.6377  2.9676  0.5073
18151TIP3   OH275867   0.702   2.658   1.411  0.0230  0.2766  0.5379
18151TIP3    H175868   0.613   2.681   1.384  0.9782  0.8112 -2.5238
18151TIP3    H275869   0.722   2.578   1.362  1.1437 -0.0083  1.4200
18152TIP3   OH275870   4.835   4.938   3.675 -0.6035  0.3330 -0.3233
18152TIP3    H175871   4.761   4.878   3.679 -1.3021  1.2047  0.3690
18152TIP3    H275872   4.873   4.924   3.588 -3.3910  1.9104 -1.9301
18153TIP3   OH275873   2.917   3.111  11.471 -0.3414  1.1941 -0.1866
18153TIP3    H175874   2.878   3.155  11.547  1.4302  0.4689  1.2214
18153TIP3    H275875   2.922   3.019  11.496 -0.8081  0.7300 -1.6942
18154TIP3   OH275876   1.837   6.104   2.372  0.1583 -0.5399  0.0248
18154TIP3    H175877   1.810   6.026   2.324 -1.0338 -0.0305 -0.1786
18154TIP3    H275878   1.872   6.162   2.306  0.5013 -0.6759  0.0880
18155TIP3   OH275879   0.236   1.142  13.017  0.0143 -0.0313 -0.2439
18155TIP3    H175880   0.272   1.230  13.029 -2.8126  1.0589  1.1618
18155TIP3    H275881   0.158   1.156  12.962 -1.2740 -1.3847  1.1508
18156TIP3   OH275882   2.228   5.271  11.977 -0.6768 -1.1822  0.6271
18156TIP3    H175883   2.315   5.254  12.014 -1.2474 -1.1171  2.0603
18156TIP3    H275884   2.178   5.192  11.996 -0.9975 -1.1340 -0.0032
18157TIP3   OH275885   0.079   6.081  11.868  0.2419  0.0034  0.1331
18157TIP3    H175886   0.144   6.120  11.926  1.0482 -0.4115 -0.4756
18157TIP3    H275887   0.057   5.998  11.909 -1.4743  1.0261  1.4287
18158TIP3   OH275888   4.873   5.766  14.949 -0.5759  0.4341 -0.2040
18158TIP3    H175889   4.834   5.757  15.036 -0.8408  0.4076 -0.3242
18158TIP3    H275890   4.958   5.806  14.964 -0.0058 -0.8823  0.2141
18159TIP3   OH275891   4.244   2.542   5.119 -0.2527 -0.3936 -0.0830
18159TIP3    H175892   4.263   2.493   5.039  2.6899 -0.2558  0.4363
18159TIP3    H275893   4.329   2.555   5.160 -1.5158  0.8585  2.3325
18160TIP3   OH275894   4.332   2.121  11.307  0.0190  0.3538 -0.6365
18160TIP3    H175895   4.346   2.178  11.382  0.0937  1.4081 -1.4269
18160TIP3    H275896   4.409   2.135  11.251 -0.1358 -0.2496 -1.0192
18161TIP3   OH275897   5.971   6.713   0.196  0.4106  0.4702 -0.0332
18161TIP3    H175898   5.914   6.640   0.175  0.5454  0.3472  0.0287
18161TIP3    H275899   5.987   6.756   0.112 -0.7620  1.2335  0.1133
18162TIP3   OH275900   5.869   4.532  12.057 -0.9343  0.6300  0.0289
18162TIP3    H175901   5.922   4.608  12.031 -0.3161  0.7984  1.6766
18162TIP3    H275902   5.783   4.549  12.019 -0.3574  1.3212 -1.0372
18163TIP3   OH275903   1.764   5.370  11.626 -0.2989 -0.1185  0.2428
18163TIP3    H175904   1.831   5.380  11.694 -1.0750 -0.7689  1.1252
18163TIP3    H275905   1.695   5.318  11.667 -0.7362 -0.6361 -1.0843
18164TIP3   OH275906   0.278   4.295  12.969 -0.1240 -0.4780 -0.1196
18164TIP3    H175907   0.334   4.345  12.910 -0.5889  1.0931  0.7185
18164TIP3    H275908   0.200   4.275  12.918 -0.0181 -0.1627 -0.4084
18165TIP3   OH275909   3.059   4.930  13.308 -0.1777 -0.1410  1.0194
18165TIP3    H175910   3.068   5.021  13.279 -3.8948  1.0050  2.8658
18165TIP3    H275911   2.993   4.892  13.250 -1.2124 -0.5183  2.3863
18166TIP3   OH275912   4.200   3.742   5.094 -0.2425 -0.6086  0.3627
18166TIP3    H175913   4.226   3.693   5.016  0.3158 -0.9394  0.7445
18166TIP3    H275914   4.112   3.774   5.075  1.5640  3.5706 -2.4752
18167TIP3   OH275915   1.022   0.424  16.906  0.5354  0.3814  0.0919
18167TIP3    H175916   1.076   0.503  16.901 -1.1881  1.6408  0.6982
18167TIP3    H275917   0.932   0.455  16.907 -0.1973 -1.5548  1.0221
18168TIP3   OH275918   0.261   5.423   2.214  0.6047 -0.5661  0.4824
18168TIP3    H175919   0.258   5.353   2.148 -1.3861  1.5691 -1.8911
18168TIP3    H275920   0.323   5.487   2.180  0.1340  0.2286  1.0730
18169TIP3   OH275921   2.670   1.231  14.604  0.1892 -0.4238 -0.0988
18169TIP3    H175922   2.616   1.293  14.654  0.2622  0.0294 -0.5733
18169TIP3    H275923   2.665   1.263  14.514  0.9172 -0.6198 -0.2137
18170TIP3   OH275924   1.630   0.136   2.530 -0.0444  0.0580  0.4661
18170TIP3    H175925   1.699   0.070   2.530 -0.6163 -0.6448 -2.0657
18170TIP3    H275926   1.656   0.199   2.462 -1.9813 -0.3908 -0.7742
18171TIP3   OH275927   0.560   1.592  15.351  0.2839  0.1761  0.3588
18171TIP3    H175928   0.491   1.549  15.401 -0.3271 -0.2782 -0.8450
18171TIP3    H275929   0.515   1.658  15.299  0.8226  0.2329 -0.0440
18172TIP3   OH275930   5.108   6.166  16.828  1.1271  0.0459  0.0398
18172TIP3    H175931   5.151   6.160  16.914  3.1760  0.1245 -0.9171
18172TIP3    H275932   5.180   6.176  16.766 -0.1422 -2.1085 -1.9311
18173TIP3   OH275933   5.642   4.507  13.657  0.3285 -0.6081  0.0867
18173TIP3    H175934   5.717   4.449  13.651 -0.3025 -1.3532 -1.0122
18173TIP3    H275935   5.676   4.594  13.636  0.6357 -1.1587 -1.8497
18174TIP3   OH275936   6.472   6.181   5.073 -0.6908  0.0266  0.1488
18174TIP3    H175937   6.523   6.242   5.020  2.4074 -0.3636  2.4181
18174TIP3    H275938   6.441   6.115   5.011  1.8708  0.1483 -1.3684
18175TIP3   OH275939   2.285   5.163  13.587 -0.4064 -0.1476 -0.1564
18175TIP3    H175940   2.367   5.178  13.634  0.0231  0.4290 -1.0536
18175TIP3    H275941   2.221   5.145  13.655  0.0813  1.1883  0.6992
18176TIP3   OH275942   3.140   5.902  11.511 -0.1968  0.0209  0.0964
18176TIP3    H175943   3.212   5.961  11.532 -1.6706  0.9121  3.2740
18176TIP3    H275944   3.064   5.960  11.500 -0.8526 -1.0253 -1.2308
18177TIP3   OH275945   5.011   4.680  12.721  0.0957 -0.4512  0.1672
18177TIP3    H175946   5.027   4.676  12.815  0.7233 -3.7943  0.0370
18177TIP3    H275947   4.917   4.663  12.712  0.2681 -1.4008  0.1463
18178TIP3   OH275948   0.324   5.128   4.295 -0.0290  0.0358 -0.0833
18178TIP3    H175949   0.340   5.218   4.323 -0.4174  0.5262 -1.3601
18178TIP3    H275950   0.241   5.132   4.248 -0.1528 -1.0411  0.0231
18179TIP3   OH275951   6.292   2.054  14.770  0.0865 -0.5180 -0.5147
18179TIP3    H175952   6.351   2.095  14.706  0.2720  1.6654  0.9314
18179TIP3    H275953   6.205   2.082  14.744  0.1620  0.3729  0.1202
18180TIP3   OH275954   4.317   3.735  12.283 -0.0100 -0.2931  0.4324
18180TIP3    H175955   4.359   3.650  12.292  1.0955 -0.0489 -1.6923
18180TIP3    H275956   4.240   3.730  12.339  0.8754 -2.1031  1.5788
18181TIP3   OH275957   6.640   3.600   3.361  0.1822 -0.3339  0.2700
18181TIP3    H175958   6.591   3.625   3.282 -0.6683 -1.0520  0.5490
18181TIP3    H275959   6.655   3.506   3.351  1.6174 -0.1216  0.1563
18182TIP3   OH275960   2.424   3.027  13.466 -0.1728 -0.1865  0.1843
18182TIP3    H175961   2.463   3.111  13.492 -1.4163  0.7217 -0.7662
18182TIP3    H275962   2.456   2.965  13.531  0.9818  0.9719  0.7697
18183TIP3   OH275963   4.152   1.453   1.225 -0.6645  0.2133  0.2470
18183TIP3    H175964   4.140   1.384   1.291  2.0402 -0.6689 -0.0859
18183TIP3    H275965   4.178   1.405   1.146 -1.9359  1.4185 -0.9547
18184TIP3   OH275966   5.317   0.703  16.087 -0.1517  0.4816  0.1661
18184TIP3    H175967   5.333   0.673  15.998 -0.8879 -2.0587  0.8048
18184TIP3    H275968   5.231   0.743  16.084  0.3580  1.5563 -0.4945
18185TIP3   OH275969   3.884   4.432   4.164 -0.1647  0.2471  0.0403
18185TIP3    H175970   3.830   4.371   4.215  0.9941 -0.5211  0.3862
18185TIP3    H275971   3.841   4.516   4.174 -0.5302 -0.0898  1.4668
18186TIP3   OH275972   4.015   1.197   4.040 -0.3628 -0.3127  0.0129
18186TIP3    H175973   3.929   1.192   4.082 -1.1633 -0.4977 -1.6065
18186TIP3    H275974   4.063   1.262   4.091 -0.8800 -1.3506  1.9321
18187TIP3   OH275975   4.913   0.535   0.360  0.4743 -0.3931  1.0246
18187TIP3    H175976   4.985   0.589   0.327 -0.2927  1.3242  2.0213
18187TIP3    H275977   4.951   0.487   0.434  0.6048  0.5459  1.5826
18188TIP3   OH275978   3.044   2.102  15.885  0.2186 -0.3922 -0.2643
18188TIP3    H175979   3.054   2.197  15.896  1.3158 -0.2460 -2.1121
18188TIP3    H275980   3.096   2.064  15.956 -0.0541  0.3767  0.3603
18189TIP3   OH275981   5.529   1.329   3.835  0.5971  0.0125  1.0266
18189TIP3    H175982   5.439   1.298   3.829 -0.4850  2.9323 -3.8261
18189TIP3    H275983   5.522   1.415   3.878  1.1982 -0.0651  1.2886
18190TIP3   OH275984   2.501   5.101   0.176  0.3212 -0.1703 -0.4527
18190TIP3    H175985   2.498   5.005   0.183 -1.1184 -0.0317  1.8211
18190TIP3    H275986   2.436   5.122   0.109  0.3299 -0.7517 -0.6537
18191TIP3   OH275987   6.304   4.247  11.926  0.0248  0.0662  0.4174
18191TIP3    H175988   6.249   4.321  11.900  1.2189  1.6551  2.1574
18191TIP3    H275989   6.252   4.200  11.992 -0.7876 -0.7851 -0.7833
18192TIP3   OH275990   0.782   5.501   2.966  0.0796  0.5446  0.9302
18192TIP3    H175991   0.759   5.592   2.949  0.8234  0.2590 -2.4379
18192TIP3    H275992   0.699   5.457   2.981 -0.6161  1.3082 -0.4909
18193TIP3   OH275993   3.351   2.447  11.949 -0.2913  0.4790 -0.0483
18193TIP3    H175994   3.333   2.523  12.005 -0.9249  0.4143 -0.1589
18193TIP3    H275995   3.283   2.450  11.882 -1.0653 -0.8635  0.6357
18194TIP3   OH275996   6.393   2.598  11.502 -0.8410 -0.1515 -0.5859
18194TIP3    H175997   6.469   2.657  11.494  0.0950 -0.5570  3.3208
18194TIP3    H275998   6.424   2.515  11.467  0.7125 -0.3870  1.1960
18195TIP3   OH275999   4.234   0.398   0.458 -0.4892  0.0159  0.1536
18195TIP3    H176000   4.239   0.316   0.508 -1.8712  1.0501  2.1794
18195TIP3    H276001   4.142   0.424   0.467 -0.1860  1.5203 -0.8918
18196TIP3   OH276002   5.429   1.253   1.280 -0.0328 -0.5328  0.0452
18196TIP3    H176003   5.342   1.224   1.253 -0.4671 -0.1419  0.9671
18196TIP3    H276004   5.468   1.291   1.201 -1.6558  1.5528  0.1712
18197TIP3   OH276005   5.223   0.047  14.374  0.5007  0.0154 -0.5396
18197TIP3    H176006   5.289   0.070  14.310  0.7423  3.5420  0.7574
18197TIP3    H276007   5.245  -0.042  14.401  2.0340 -0.5201 -3.2269
18198TIP3   OH276008   2.600   2.396   4.891 -0.3777 -0.8124 -0.0718
18198TIP3    H176009   2.567   2.435   4.972  1.9824  0.3329  0.4179
18198TIP3    H276010   2.666   2.332   4.920  2.7861  1.7576 -0.9779
18199TIP3   OH276011   1.390   3.764   4.912  0.1586  0.2901  0.1362
18199TIP3    H176012   1.344   3.821   4.851 -0.0404 -0.3521 -0.3225
18199TIP3    H276013   1.454   3.820   4.954  0.3241  0.7301 -0.6923
18200TIP3   OH276014   6.123   1.488   6.473  0.0955 -0.0287  0.9660
18200TIP3    H176015   6.149   1.539   6.396 -0.9969 -1.9296 -0.7487
18200TIP3    H276016   6.190   1.507   6.538  0.8652  1.9245 -0.3110
18201TIP3   OH276017   3.130   5.231   3.027 -0.1609 -0.1478 -0.0572
18201TIP3    H176018   3.086   5.288   3.091 -0.4784 -0.0498 -0.3581
18201TIP3    H276019   3.091   5.145   3.041 -0.1253 -0.1576 -0.0183
18202TIP3   OH276020   3.436   5.025  15.136  0.3941  0.2692 -0.6184
18202TIP3    H176021   3.478   5.014  15.221 -1.3301 -2.0389  0.0350
18202TIP3    H276022   3.500   5.073  15.083  2.3519 -0.0447  1.3401
18203TIP3   OH276023   6.050   2.005   2.352  0.3565  0.1150 -0.1499
18203TIP3    H176024   6.046   1.975   2.442 -0.7710 -0.7634 -0.4725
18203TIP3    H276025   6.134   2.051   2.346 -0.8679  3.0124  2.1636
18204TIP3   OH276026   5.620   1.926   0.204  0.2889 -0.7557 -0.1140
18204TIP3    H176027   5.670   1.957   0.280  0.1135 -0.6170 -0.0553
18204TIP3    H276028   5.549   1.988   0.195  0.7229 -0.3510 -0.8391
18205TIP3   OH276029   0.434   1.039   5.835 -0.2448  0.0517 -0.4576
18205TIP3    H176030   0.469   0.991   5.910 -0.9975  0.2884  0.0570
18205TIP3    H276031   0.500   1.028   5.767  0.9901  0.7789  0.5838
18206TIP3   OH276032   4.508   6.007   3.687  0.0961 -0.0525  0.1185
18206TIP3    H176033   4.527   6.096   3.716 -0.9694  0.1931  0.1203
18206TIP3    H276034   4.510   5.954   3.766  0.5729 -0.0017  0.1414
18207TIP3   OH276035   1.998   0.328   1.607 -0.3956 -0.3810  0.1166
18207TIP3    H176036   2.048   0.394   1.655 -0.1351 -0.1790 -0.4268
18207TIP3    H276037   1.975   0.263   1.673 -0.5030  0.1613  0.6245
18208TIP3   OH276038   3.677   4.440   1.671  0.0528 -0.6538 -0.2528
18208TIP3    H176039   3.724   4.486   1.740  0.3739 -0.4367 -0.6126
18208TIP3    H276040   3.697   4.348   1.685  0.5393 -0.5699 -0.3611
18209TIP3   OH276041   1.214   3.880   0.438 -0.4019 -0.2564 -0.4324
18209TIP3    H176042   1.140   3.859   0.496  0.4075 -0.6497  0.4776
18209TIP3    H276043   1.184   3.957   0.390 -1.2019 -0.0686  0.3178
18210TIP3   OH276044   4.009   3.236  11.605 -0.1321  1.1584 -0.3002
18210TIP3    H176045   4.090   3.205  11.647  0.0838  0.1511 -1.4070
18210TIP3    H276046   3.939   3.198  11.658  0.0830  2.6177  1.0933
18211TIP3   OH276047   2.302   5.906  11.261 -0.0943 -0.0719 -0.1627
18211TIP3    H176048   2.302   5.856  11.179  2.3000 -0.2334 -0.1261
18211TIP3    H276049   2.366   5.975  11.248 -2.2766  2.2098  0.3349
18212TIP3   OH276050   2.561   6.195  14.968  0.5348  0.3624  0.1367
18212TIP3    H176051   2.607   6.167  14.889 -0.0570 -2.9386  0.8121
18212TIP3    H276052   2.515   6.275  14.942  2.0150  0.5484 -2.1954
18213TIP3   OH276053   1.312   1.747   5.167 -0.5223 -0.1895 -0.6366
18213TIP3    H176054   1.300   1.730   5.074 -0.2209  0.2206 -0.7560
18213TIP3    H276055   1.338   1.663   5.204 -4.8035 -1.5139 -0.1330
18214TIP3   OH276056   2.139   4.248   4.732  0.4615  0.4732  0.6001
18214TIP3    H176057   2.050   4.262   4.764  0.8174  3.0933  0.6767
18214TIP3    H276058   2.130   4.178   4.667 -1.3837 -0.2968  1.6077
18215TIP3   OH276059   3.581   6.603   4.169 -0.3459  0.6847  0.1273
18215TIP3    H176060   3.523   6.678   4.181  1.8988  2.4059  0.8867
18215TIP3    H276061   3.607   6.608   4.077  0.0601  1.0471  0.2596
18216TIP3   OH276062   6.071   0.621  12.755 -0.3316  0.0342 -0.0815
18216TIP3    H176063   6.097   0.698  12.805 -0.4813  0.4027 -0.5622
18216TIP3    H276064   6.078   0.548  12.817  1.4928  0.1688 -0.0825
18217TIP3   OH276065   3.224   1.894   6.398 -0.0590 -0.3321 -0.2185
18217TIP3    H176066   3.142   1.847   6.411  0.3421 -0.7777  0.8266
18217TIP3    H276067   3.202   1.986   6.408 -0.3026 -0.4965  0.8211
18218TIP3   OH276068   6.382   4.328  15.327  0.0173 -0.7463  0.0229
18218TIP3    H176069   6.410   4.319  15.237 -0.6472  2.8310 -0.6981
18218TIP3    H276070   6.460   4.355  15.375 -0.2971  0.6841 -0.2258
18219TIP3   OH276071   3.425   5.550  11.440 -0.1403 -0.8456  0.4008
18219TIP3    H176072   3.504   5.602  11.424 -0.9209 -0.2829 -2.2431
18219TIP3    H276073   3.457   5.469  11.480  1.5847 -0.0197  0.7870
18220TIP3   OH276074   3.821   0.131  13.034  0.0956  0.2959  0.3267
18220TIP3    H176075   3.726   0.119  13.038  0.3196 -1.7449  0.4111
18220TIP3    H276076   3.842   0.183  13.112 -0.7826 -0.7055  1.2769
18221TIP3   OH276077   6.663   0.484  13.545  0.1763  0.3790  0.4198
18221TIP3    H176078   6.687   0.455  13.457 -1.1195  1.0444 -0.1703
18221TIP3    H276079   6.714   0.564  13.558 -0.4288  0.8750 -0.1700
18222TIP3   OH276080   5.205   5.750  11.479  0.4823 -0.2684  0.2762
18222TIP3    H176081   5.185   5.660  11.503 -0.7762  0.1302  0.7879
18222TIP3    H276082   5.252   5.743  11.396  0.3455 -1.3864  0.2842
18223TIP3   OH276083   5.813   1.839  16.495  0.7866  0.0913  0.1400
18223TIP3    H176084   5.892   1.888  16.472  0.2839  1.8244  1.8614
18223TIP3    H276085   5.812   1.840  16.590  0.0767 -2.2723  0.2020
18224TIP3   OH276086   6.369   4.679   2.418  0.2938 -0.3233 -0.1103
18224TIP3    H176087   6.355   4.767   2.451  2.4584  0.3118 -0.7551
18224TIP3    H276088   6.462   4.674   2.399  0.0072 -2.3044 -1.3600
18225TIP3   OH276089   1.698   0.586  12.366 -0.3405 -0.1500 -0.2311
18225TIP3    H176090   1.785   0.611  12.335 -0.4457 -0.7453 -1.0296
18225TIP3    H276091   1.688   0.631  12.450  0.5091  0.3740 -0.4077
18226TIP3   OH276092   2.402   3.245   4.057 -0.0128 -0.1728 -0.7389
18226TIP3    H176093   2.460   3.271   4.129  0.5970 -1.2945 -0.8036
18226TIP3    H276094   2.399   3.322   4.000 -2.0524  1.4676  1.3924
18227TIP3   OH276095   2.310   4.541  12.284  0.5562  0.5623 -0.5604
18227TIP3    H176096   2.339   4.450  12.286  2.1843  0.9411 -2.7575
18227TIP3    H276097   2.231   4.542  12.337  1.7453 -1.6374  1.4686
18228TIP3   OH276098   2.972   6.454   1.954  0.1881 -0.0588 -0.0336
18228TIP3    H176099   3.002   6.538   1.919 -0.7977  0.4575  0.3121
18228TIP3    H276100   2.885   6.442   1.915  0.4761 -1.1166 -0.3833
18229TIP3   OH276101   5.643   2.892  15.212 -0.1356 -0.2021  0.1487
18229TIP3    H176102   5.702   2.836  15.161  0.0749  2.4182 -2.8662
18229TIP3    H276103   5.560   2.845  15.214  0.0849 -0.7961 -2.1052
18230TIP3   OH276104   2.861   6.716  12.143  0.6030 -0.1005 -0.7418
18230TIP3    H176105   2.802   6.641  12.154  0.6536 -0.2128 -1.2074
18230TIP3    H276106   2.813   6.776  12.086 -0.3735  1.2500  1.3458
18231TIP3   OH276107   5.507   5.073   0.831  0.3876  0.2993 -0.6204
18231TIP3    H176108   5.505   5.084   0.736  0.2001 -0.6940 -0.7424
18231TIP3    H276109   5.539   5.157   0.864  1.7600  0.2158 -1.6386
18232TIP3   OH276110   6.452   5.383   4.787  0.3065  0.4427  0.2046
18232TIP3    H176111   6.365   5.344   4.781  0.2663  0.7685 -2.1265
18232TIP3    H276112   6.506   5.332   4.726  1.3324  1.2728  0.3915
18233TIP3   OH276113   5.159   1.753   5.621 -0.4887 -0.1625  0.0295
18233TIP3    H176114   5.132   1.823   5.680 -3.0085  1.3575 -2.6648
18233TIP3    H276115   5.118   1.674   5.658  1.0060 -0.0114  2.1885
18234TIP3   OH276116   1.190   6.737  12.626 -0.0730 -0.3456 -0.2819
18234TIP3    H176117   1.234   6.719  12.543  1.5047  0.7916  0.2643
18234TIP3    H276118   1.208   6.659  12.680  0.6055 -0.2331 -0.3392
18235TIP3   OH276119   4.390   3.665   1.959  0.0895 -0.0065  0.0445
18235TIP3    H176120   4.478   3.694   1.986  0.2972  0.8077 -1.4304
18235TIP3    H276121   4.372   3.590   2.016  1.0542  0.8107  1.4969
18236TIP3   OH276122   3.227   3.158   4.385  0.0430  0.7495  0.2146
18236TIP3    H176123   3.201   3.245   4.414 -1.9277 -0.1314  1.3257
18236TIP3    H276124   3.171   3.141   4.308  0.7399  0.6314 -0.2766
18237TIP3   OH276125   0.232   6.006   4.411 -0.2710 -0.1222 -0.5284
18237TIP3    H176126   0.229   5.962   4.326 -0.9015 -1.4545  0.1711
18237TIP3    H276127   0.141   6.023   4.433 -0.0808  0.8024 -0.3852
18238TIP3   OH276128   2.318   2.500  15.846  0.4414 -0.4268 -0.2844
18238TIP3    H176129   2.391   2.458  15.799  0.5089  0.6908 -1.2400
18238TIP3    H276130   2.358   2.535  15.925  0.8478 -0.2297 -0.5723
18239TIP3   OH276131   4.648   4.926  16.185 -0.3055 -0.8749 -0.2487
18239TIP3    H176132   4.620   4.864  16.252 -0.1912 -0.6303  0.0260
18239TIP3    H276133   4.716   4.978  16.227 -1.3167  0.3337 -0.0412
18240TIP3   OH276134   3.653   5.025  11.346  0.5290 -0.2332 -0.8637
18240TIP3    H176135   3.563   5.055  11.333  0.3830  0.0518  0.6600
18240TIP3    H276136   3.686   5.008  11.257 -0.8062  0.2757 -1.4755
18241TIP3   OH276137   3.041   1.215   1.250 -0.1600 -0.6926 -0.1584
18241TIP3    H176138   3.035   1.311   1.246 -0.7719 -0.6550  1.1004
18241TIP3    H276139   2.950   1.186   1.253  0.0134 -1.3633 -1.1156
18242TIP3   OH276140   6.645   4.156   2.840 -0.1512 -0.3723  0.1231
18242TIP3    H176141   6.699   4.086   2.877  0.5284 -0.0217 -0.1816
18242TIP3    H276142   6.617   4.122   2.755  0.7811 -0.0052 -0.3465
18243TIP3   OH276143   5.152   4.426  16.379 -0.4503  0.3890  0.3827
18243TIP3    H176144   5.172   4.420  16.285  0.8050  0.0779  0.6424
18243TIP3    H276145   5.093   4.501  16.386 -0.1666  0.7264 -0.6046
18244TIP3   OH276146   0.885   0.804  11.501  0.7448 -0.2719  0.0067
18244TIP3    H176147   0.801   0.845  11.481  0.4389 -1.8733 -2.3920
18244TIP3    H276148   0.946   0.843  11.438  1.4989 -0.1814  0.7735
18245TIP3   OH276149   5.982   3.309  11.903 -0.2021 -0.6692 -0.4057
18245TIP3    H176150   5.992   3.233  11.961  1.1364 -0.6528 -0.5953
18245TIP3    H276151   6.002   3.275  11.816  3.5923  0.5021 -0.1404
18246TIP3   OH276152   0.174   6.150  17.085 -0.6556  0.6272  0.4368
18246TIP3    H176153   0.158   6.187  17.173 -0.1428  2.3194 -0.1374
18246TIP3    H276154   0.177   6.227  17.028 -0.8032 -0.4430 -1.0487
18247TIP3   OH276155   0.217   1.471   1.559 -0.3090  0.3165 -0.3144
18247TIP3    H176156   0.278   1.544   1.554  0.9069 -0.5123  1.4787
18247TIP3    H276157   0.186   1.472   1.650 -0.5069 -1.1844 -0.3400
18248TIP3   OH276158   2.214   2.243  11.649  0.2371 -0.0578 -0.5314
18248TIP3    H176159   2.163   2.294  11.586  1.2734 -0.3562 -1.6420
18248TIP3    H276160   2.304   2.274  11.638  0.5871 -0.8140  0.1040
18249TIP3   OH276161   2.254   0.052   0.185  0.0423 -0.1307 -0.4206
18249TIP3    H176162   2.237   0.046   0.279  0.4994  2.5962 -0.0964
18249TIP3    H276163   2.187   0.112   0.152  1.9744  1.7906 -1.1293
18250TIP3   OH276164   6.083   0.445  14.046 -0.1377  0.1602  0.2555
18250TIP3    H176165   6.028   0.375  14.010 -0.0751 -0.7722  1.8631
18250TIP3    H276166   6.172   0.417  14.028 -0.1291  0.4288 -0.1378
18251TIP3   OH276167   5.074   0.452  14.612  0.5420 -0.0384 -0.4574
18251TIP3    H176168   5.076   0.487  14.523 -0.7229  1.0986 -0.0750
18251TIP3    H276169   5.009   0.505  14.657  1.7245 -0.0578  1.3836
18252TIP3   OH276170   4.270   0.281   2.950 -0.2513  0.5038  0.1005
18252TIP3    H176171   4.348   0.274   2.894 -1.7935  0.7207 -2.1936
18252TIP3    H276172   4.252   0.191   2.977  0.4411  0.3704  0.1482
18253TIP3   OH276173   0.016   4.402   4.087 -0.4427 -0.1773  0.4562
18253TIP3    H176174   0.034   4.316   4.125  3.5171  0.4285  0.3699
18253TIP3    H276175   0.013   4.462   4.162 -0.3189 -0.0123  0.3319
18254TIP3   OH276176   1.810   6.484   2.027 -0.5989  0.5138 -0.1300
18254TIP3    H176177   1.779   6.575   2.025 -2.2760  0.0078  1.1141
18254TIP3    H276178   1.749   6.436   1.971 -0.9929 -0.1963  0.8923
18255TIP3   OH276179   5.961   5.368  16.985  0.1444 -0.1871 -0.3690
18255TIP3    H176180   5.997   5.427  17.052 -1.6677  0.3107  0.2379
18255TIP3    H276181   5.980   5.281  17.018  0.5848  0.0588  0.0459
18256TIP3   OH276182   5.041   6.122   1.627 -0.1935 -0.1726 -0.2786
18256TIP3    H176183   5.059   6.068   1.704  2.8544  2.6376  1.2371
18256TIP3    H276184   4.951   6.152   1.639 -0.0892 -0.5290  1.7437
18257TIP3   OH276185   1.453   3.306  11.283  0.8160 -0.1551  0.0692
18257TIP3    H176186   1.454   3.399  11.263 -1.7003 -0.3092 -1.1558
18257TIP3    H276187   1.401   3.267  11.213  0.6660 -2.2866  1.2787
18258TIP3   OH276188   5.701   6.216  12.463  0.4794 -0.2367 -0.1582
18258TIP3    H176189   5.766   6.165  12.512 -0.1022 -0.3947  0.4715
18258TIP3    H276190   5.736   6.305  12.462  0.6103 -0.2764  0.3668
18259TIP3   OH276191   2.142   4.042  12.647  0.0813 -0.2975  0.0080
18259TIP3    H176192   2.097   4.053  12.730 -0.8818 -0.7201 -0.4425
18259TIP3    H276193   2.148   3.947  12.635 -0.8088 -0.2516 -0.9237
18260TIP3   OH276194   3.706   5.938  15.896  0.0548 -0.4916  0.5247
18260TIP3    H176195   3.711   5.956  15.990 -2.5041 -0.1578  0.6744
18260TIP3    H276196   3.782   5.883  15.877  1.4167  0.6022  2.4839
18261TIP3   OH276197   4.353   5.724   0.293  0.2133 -0.3129  0.0185
18261TIP3    H176198   4.317   5.636   0.289 -0.4348 -0.1177  1.1028
18261TIP3    H276199   4.347   5.749   0.385 -1.0926  1.4617 -0.4854
18262TIP3   OH276200   4.328   4.042   1.078  0.1020  0.4134  0.2666
18262TIP3    H176201   4.371   4.122   1.047 -2.5513  1.5877 -0.6505
18262TIP3    H276202   4.245   4.072   1.115 -0.2837 -1.7985  1.3729
18263TIP3   OH276203   4.214   4.235   5.370  0.3167 -0.0535 -0.3012
18263TIP3    H176204   4.137   4.178   5.374  0.5346 -0.3215  0.1921
18263TIP3    H276205   4.267   4.199   5.299 -0.4604  0.7076 -1.2727
18264TIP3   OH276206   1.882   0.642  17.153  0.0292  0.0440 -0.0360
18264TIP3    H176207   1.905   0.728  17.189 -0.4067 -0.1298  0.6588
18264TIP3    H276208   1.786   0.642  17.149 -0.0401 -0.8387  1.0603
18265TIP3   OH276209   5.745   2.128   1.857 -0.6289  0.3266 -0.1125
18265TIP3    H176210   5.661   2.163   1.826 -0.2905  0.8285 -0.4614
18265TIP3    H276211   5.770   2.064   1.791  0.1772  1.5187 -1.0042
18266TIP3   OH276212   2.577   3.099   2.765 -0.1322 -0.1310 -0.1974
18266TIP3    H176213   2.520   3.064   2.834 -0.2554  1.1700  0.3916
18266TIP3    H276214   2.632   3.163   2.810  1.4973 -1.0252 -0.8498
18267TIP3   OH276215   6.484   5.033   3.123 -0.1006 -0.7369  0.3548
18267TIP3    H176216   6.539   5.022   3.045 -0.5370  3.1103 -0.6832
18267TIP3    H276217   6.545   5.060   3.192  0.2659 -4.0157  1.5094
18268TIP3   OH276218   0.950   1.721  14.227 -0.0726 -0.4516 -0.1727
18268TIP3    H176219   1.014   1.680  14.286  0.9647 -0.6064 -1.3669
18268TIP3    H276220   1.000   1.742  14.148 -1.1125  1.0267 -0.4805
18269TIP3   OH276221   0.582   4.900  16.356 -0.2641 -0.0942 -0.1209
18269TIP3    H176222   0.629   4.857  16.286 -0.8115  0.9668 -1.1792
18269TIP3    H276223   0.512   4.949  16.312 -0.3679  0.9267  1.1108
18270TIP3   OH276224   3.373   4.994   4.332 -0.4477 -0.2816  0.6065
18270TIP3    H176225   3.315   5.067   4.311 -0.3768 -0.3397  0.1917
18270TIP3    H276226   3.339   4.921   4.280 -1.3450 -0.9192  2.0516
18271TIP3   OH276227   5.849   6.116   1.387 -0.2471  0.1812  0.4840
18271TIP3    H176228   5.768   6.133   1.338  0.7124 -2.2355 -2.2742
18271TIP3    H276229   5.837   6.028   1.423  0.5924  0.4061  1.3523
18272TIP3   OH276230   2.747   4.731   5.533  0.6498  0.2680  0.6789
18272TIP3    H176231   2.765   4.639   5.518 -0.5341 -0.4171  2.9751
18272TIP3    H276232   2.742   4.769   5.445 -1.9154 -2.4905 -0.5614
18273TIP3   OH276233   0.968   0.810  12.537 -0.5070 -0.0237  0.6436
18273TIP3    H176234   1.057   0.842  12.550  0.5208 -2.3130 -0.1815
18273TIP3    H276235   0.917   0.888  12.518  1.4113  1.3117  0.6456
18274TIP3   OH276236   6.281   0.162  12.810 -0.4625  0.0267 -0.3737
18274TIP3    H176237   6.220   0.120  12.750 -1.5130  2.2518 -0.9894
18274TIP3    H276238   6.311   0.092  12.867 -0.6016 -1.8697 -2.5105
18275TIP3   OH276239   3.099   3.860  14.314 -0.6165 -0.3125 -0.0213
18275TIP3    H176240   3.135   3.800  14.250  1.1884 -0.4042  1.0124
18275TIP3    H276241   3.017   3.819  14.342  0.3128 -2.0501  0.2918
18276TIP3   OH276242   2.571   1.186   2.200 -0.2924 -0.7003 -0.2401
18276TIP3    H176243   2.659   1.150   2.207 -0.3800 -0.6981  1.3104
18276TIP3    H276244   2.576   1.268   2.250 -1.4783 -1.3522  1.0277
18277TIP3   OH276245   4.348   4.448  14.191 -0.2809 -0.1769 -0.7170
18277TIP3    H176246   4.414   4.459  14.260 -1.0267 -0.0993 -0.0094
18277TIP3    H276247   4.326   4.354  14.194 -1.1670  0.0383 -0.0419
18278TIP3   OH276248   0.598   5.261  11.374 -0.5826  0.4136  0.7878
18278TIP3    H176249   0.553   5.177  11.366  0.0775  0.0818  0.4105
18278TIP3    H276250   0.682   5.240  11.415 -1.2498  1.2023  2.6629
18279TIP3   OH276251   1.572   4.032  11.625 -0.2895  0.3909  0.3929
18279TIP3    H176252   1.545   3.974  11.696 -1.4267  0.0595 -0.2961
18279TIP3    H276253   1.499   4.092  11.613 -0.7878 -0.5097 -1.4768
18280TIP3   OH276254   4.297   5.673  14.237 -0.0513 -0.6907 -0.2717
18280TIP3    H176255   4.313   5.651  14.145 -1.0363 -2.0697 -0.1530
18280TIP3    H276256   4.223   5.617  14.262  0.4658 -0.6530  1.4739
18281TIP3   OH276257   6.249   0.936   6.085 -0.4219 -0.3936  0.1878
18281TIP3    H176258   6.228   1.019   6.127 -0.2808  0.6978 -1.8012
18281TIP3    H276259   6.174   0.880   6.104 -1.0842  0.5889  0.5286
18282TIP3   OH276260   1.831   2.894   6.015  0.2571  0.4186 -0.3835
18282TIP3    H176261   1.920   2.919   5.990  0.0140  1.8978  0.0784
18282TIP3    H276262   1.824   2.802   5.990  2.2319 -0.0244  0.4545
18283TIP3   OH276263   0.791   3.906   0.337 -0.3343 -0.3131 -0.2608
18283TIP3    H176264   0.790   3.810   0.335 -0.6381 -0.2964 -2.4886
18283TIP3    H276265   0.772   3.933   0.248  1.4477  1.8259 -0.0812
18284TIP3   OH276266   6.698   0.533  15.059 -0.0461 -0.1895 -0.1065
18284TIP3    H176267   6.746   0.615  15.045 -1.0663  0.8606  2.0175
18284TIP3    H276268   6.729   0.502  15.144 -3.2131  0.7609  1.5995
18285TIP3   OH276269   6.291   5.468   6.047 -0.1529 -0.6201 -0.0538
18285TIP3    H176270   6.196   5.472   6.043 -0.1210  0.1195 -0.2183
18285TIP3    H276271   6.314   5.508   6.130  0.0767  0.6740 -0.7102
18286TIP3   OH276272   5.866   5.609   6.611  0.1082  0.4206  0.7229
18286TIP3    H176273   5.800   5.652   6.665 -1.7092 -1.0847 -0.1761
18286TIP3    H276274   5.818   5.541   6.563  1.5503  1.6069 -2.7895
18287TIP3   OH276275   3.731   3.177   2.308  0.1360 -0.4656  0.3421
18287TIP3    H176276   3.751   3.254   2.360 -1.2071 -0.8135  1.4290
18287TIP3    H276277   3.657   3.135   2.353 -0.4034 -1.3576 -1.2645
18288TIP3   OH276278   0.226   2.169   3.129  0.2726 -0.1343  0.0176
18288TIP3    H176279   0.203   2.084   3.093 -0.4955 -0.0823  0.3528
18288TIP3    H276280   0.292   2.151   3.195  0.7073 -0.3748 -0.4773
18289TIP3   OH276281   3.821   0.311  13.281  0.0570  0.4105  0.7872
18289TIP3    H176282   3.882   0.298  13.354 -0.6866  1.2174  1.5828
18289TIP3    H276283   3.764   0.382  13.311 -1.1801 -0.2381  0.0065
18290TIP3   OH276284   3.972   0.092  15.470 -0.2670  0.2585 -0.0617
18290TIP3    H176285   3.892   0.089  15.418 -1.2385  2.8086  1.1220
18290TIP3    H276286   3.946   0.062  15.557  0.5498 -0.7860 -0.1649
18291TIP3   OH276287   1.218   0.538   5.629  0.2640 -0.2460 -0.4183
18291TIP3    H176288   1.246   0.508   5.716  1.3800 -0.1638 -0.7384
18291TIP3    H276289   1.283   0.603   5.604 -0.0740 -0.2404 -1.3114
18292TIP3   OH276290   2.403   3.989  16.209 -0.0596 -0.3062 -0.5996
18292TIP3    H176291   2.323   3.996  16.158  0.4704 -0.6516 -1.5150
18292TIP3    H276292   2.456   3.925  16.161  0.1379 -1.2712  0.8358
18293TIP3   OH276293   5.471   6.286  12.269 -0.1611  0.3051  0.6854
18293TIP3    H176294   5.519   6.300  12.351 -0.1688  1.8931  0.4461
18293TIP3    H276295   5.432   6.371  12.250 -0.6266 -0.2005 -0.6785
18294TIP3   OH276296   6.243   0.363   4.737  0.1805 -0.2278  0.2401
18294TIP3    H176297   6.329   0.406   4.731  0.5550 -0.8955  0.7713
18294TIP3    H276298   6.200   0.406   4.811  0.1456 -0.0670  0.1292
18295TIP3   OH276299   0.329   0.319  17.072 -0.3214 -0.2912 -0.0617
18295TIP3    H176300   0.260   0.295  17.133  0.7636  0.3560  1.4820
18295TIP3    H276301   0.404   0.265  17.097 -0.3524 -1.3386 -2.0181
18296TIP3   OH276302   3.231   5.826  11.769  0.0138  0.1149 -0.0534
18296TIP3    H176303   3.194   5.782  11.692  0.0309  1.4502 -0.8517
18296TIP3    H276304   3.229   5.919  11.747  0.4020  0.4927  1.4113
18297TIP3   OH276305   2.642   3.918   4.234  0.3912  0.2692  0.2395
18297TIP3    H176306   2.647   3.901   4.328 -1.7834 -1.3146  0.1355
18297TIP3    H276307   2.593   3.844   4.198  1.0003  0.9068 -2.1505
18298TIP3   OH276308   1.053   2.337   3.859  0.5385 -0.3485 -0.5351
18298TIP3    H176309   1.105   2.389   3.798  1.7394 -1.5613 -0.5830
18298TIP3    H276310   1.117   2.292   3.913 -0.4828  0.8575  1.8361
18299TIP3   OH276311   4.400   2.900   4.204 -0.0797 -0.8279 -0.4494
18299TIP3    H176312   4.420   2.958   4.278 -0.6108 -1.2019 -0.0024
18299TIP3    H276313   4.330   2.945   4.156 -0.3874 -1.0213 -0.1870
18300TIP3   OH276314   1.702   5.974  13.888  0.2221  0.6658 -0.0854
18300TIP3    H176315   1.614   6.009  13.876 -0.1094  0.6297  1.8456
18300TIP3    H276316   1.748   5.993  13.806 -1.3615  1.3176 -0.8508
18301TIP3   OH276317   5.647   5.087  12.278  0.4002  0.0346  0.3156
18301TIP3    H176318   5.634   5.175  12.243 -1.1570 -1.0478 -2.1067
18301TIP3    H276319   5.585   5.080  12.350  1.0277  1.0900  0.9970
18302TIP3   OH276320   4.595   5.793   2.473 -0.4478  0.1532  0.1803
18302TIP3    H176321   4.573   5.789   2.566 -0.3989 -0.2986  0.1770
18302TIP3    H276322   4.664   5.727   2.462 -0.3887  0.2681 -0.1580
18303TIP3   OH276323   5.888   0.801  13.716 -0.7373 -0.1846 -0.1792
18303TIP3    H176324   5.807   0.834  13.755 -0.5099 -0.0413  0.1876
18303TIP3    H276325   5.923   0.741  13.782 -0.2730  0.1697 -0.1049
18304TIP3   OH276326   3.400   4.691  13.025 -0.2972  0.1463 -0.0271
18304TIP3    H176327   3.359   4.612  13.059  0.8790  0.2085  1.6454
18304TIP3    H276328   3.388   4.685  12.930 -0.8843 -1.6439  0.1189
18305TIP3   OH276329   3.727   5.320   6.589 -0.0900 -0.0760  0.0969
18305TIP3    H176330   3.669   5.251   6.557  0.5014 -1.3873  1.7013
18305TIP3    H276331   3.815   5.286   6.573  0.2072  0.1501  1.1869
18306TIP3   OH276332   3.299   1.744   5.856 -0.1517  0.7734  0.2083
18306TIP3    H176333   3.375   1.755   5.798  1.2274 -0.4237  1.7031
18306TIP3    H276334   3.285   1.831   5.894 -1.0214  1.5604 -1.7746
18307TIP3   OH276335   4.388   6.291  14.678 -0.3473 -0.0442 -0.2016
18307TIP3    H176336   4.395   6.332  14.764 -0.2772 -1.7636  0.6365
18307TIP3    H276337   4.414   6.360  14.617 -1.0904  1.4377  1.0762
18308TIP3   OH276338   1.596   6.376  14.201  0.2237  0.1746 -0.2270
18308TIP3    H176339   1.621   6.387  14.109  2.1037  1.3126  0.3734
18308TIP3    H276340   1.621   6.458  14.243 -1.2392 -0.0664  1.1864
18309TIP3   OH276341   1.599   0.867   6.470 -0.2886 -0.1012  0.1313
18309TIP3    H176342   1.593   0.804   6.542 -0.8239  1.4306  1.4765
18309TIP3    H276343   1.521   0.850   6.417 -1.1753  0.3043  1.2604
18310TIP3   OH276344   1.283   4.647  11.610  0.3998 -0.2673 -0.0882
18310TIP3    H176345   1.250   4.676  11.695 -0.0282 -1.5605  0.2116
18310TIP3    H276346   1.223   4.686  11.547 -0.3200 -0.7000  0.3172
18311TIP3   OH276347   5.084   6.311  12.818  0.6903  0.1469  0.3748
18311TIP3    H176348   5.028   6.315  12.741 -0.4157 -0.6114  1.1039
18311TIP3    H276349   5.036   6.361  12.885  1.2943  0.2104  0.7655
18312TIP3   OH276350   2.581   2.550   5.747  0.0782  0.0789  0.0860
18312TIP3    H176351   2.527   2.472   5.735  0.5831 -0.0922 -1.2422
18312TIP3    H276352   2.625   2.536   5.831 -0.9730 -0.3502  0.5886
18313TIP3   OH276353   1.725   2.300   1.128 -0.6676  0.4104  0.0351
18313TIP3    H176354   1.813   2.330   1.105  0.2933 -2.5986 -0.6932
18313TIP3    H276355   1.683   2.281   1.044 -1.5979  0.6929  0.4219
18314TIP3   OH276356   1.754   6.247   5.863  0.3410 -0.3237  0.1991
18314TIP3    H176357   1.701   6.171   5.841 -0.5508  0.6331 -1.1543
18314TIP3    H276358   1.739   6.260   5.957 -2.8625  0.5890 -0.2985
18315TIP3   OH276359   0.926   1.798   6.588  0.6860 -0.5450 -0.7306
18315TIP3    H176360   0.851   1.801   6.647 -0.0587  1.8852 -1.6427
18315TIP3    H276361   0.988   1.738   6.629 -0.2825  0.1353  1.9058
18316TIP3   OH276362   5.421   6.141  13.103 -0.3232 -0.6607  0.0685
18316TIP3    H176363   5.478   6.068  13.126  0.9039  0.5028  0.8666
18316TIP3    H276364   5.388   6.120  13.015  0.6112 -1.7881 -0.0256
18317TIP3   OH276365   4.081   1.049   3.380  0.3126  0.2662 -0.4235
18317TIP3    H176366   4.018   1.094   3.436  0.0077  0.7087 -1.1165
18317TIP3    H276367   4.107   0.971   3.431 -0.6503  0.1776 -0.0548
18318TIP3   OH276368   1.167   2.080  11.810 -0.1317  0.8799 -0.6999
18318TIP3    H176369   1.082   2.064  11.852  0.2461  0.0734 -0.2300
18318TIP3    H276370   1.226   2.097  11.884  0.3169  0.4905 -0.9690
18319TIP3   OH276371   4.412   4.414  13.859  0.0836 -0.4273  0.1365
18319TIP3    H176372   4.349   4.482  13.834  1.3091  0.2733 -1.1994
18319TIP3    H276373   4.412   4.354  13.784  0.7077 -0.6338  0.3036
18320TIP3   OH276374   2.336   2.048  14.661  0.1830  0.6781 -0.1416
18320TIP3    H176375   2.300   2.027  14.747 -0.8568  1.4376 -0.3735
18320TIP3    H276376   2.320   1.970  14.608  0.1785  0.4791  0.1498
18321TIP3   OH276377   0.215   2.854   4.296 -0.2815  0.5065  0.6229
18321TIP3    H176378   0.207   2.944   4.328 -0.8153  0.5042  0.5156
18321TIP3    H276379   0.276   2.812   4.357  0.4278  1.0923  0.3223
18322TIP3   OH276380   6.434   6.600  11.504 -0.3753 -0.3349 -0.2719
18322TIP3    H176381   6.514   6.650  11.492 -0.0283  0.1680  3.1585
18322TIP3    H276382   6.367   6.666  11.524 -0.9214 -0.9579 -0.0104
18323TIP3   OH276383   2.294   3.432  14.518  0.6126 -0.2945  0.0344
18323TIP3    H176384   2.233   3.450  14.590  1.0228  0.1805  0.2699
18323TIP3    H276385   2.274   3.342  14.492 -1.7288  0.5376 -1.3900
18324TIP3   OH276386   4.134   2.017  16.634 -0.2955 -0.6371 -0.4641
18324TIP3    H176387   4.224   1.999  16.663 -0.5521 -0.4221  0.4926
18324TIP3    H276388   4.080   2.001  16.711 -1.0147 -0.1320 -0.8520
18325TIP3   OH276389   2.322   1.130   3.654 -0.0165 -0.8026  0.4788
18325TIP3    H176390   2.284   1.181   3.582  0.3768 -0.7150  0.3319
18325TIP3    H276391   2.247   1.082   3.691 -0.3703 -0.1907  0.5647
18326TIP3   OH276392   0.675   1.692   0.202  0.4676  0.1066 -0.0251
18326TIP3    H176393   0.582   1.695   0.225  0.8551  0.4630  1.6624
18326TIP3    H276394   0.709   1.618   0.252  1.4422  1.1429  0.9085
18327TIP3   OH276395   5.299   1.609   1.363  0.2597 -0.1542 -0.0063
18327TIP3    H176396   5.269   1.575   1.279 -0.7028  4.1614 -1.6839
18327TIP3    H276397   5.391   1.631   1.348  0.6550 -1.1885  0.7863
18328TIP3   OH276398   4.936   1.709  13.484 -0.0701 -0.5177  0.3315
18328TIP3    H176399   4.924   1.776  13.551 -1.2683 -0.0211 -0.3619
18328TIP3    H276400   4.900   1.630  13.524 -0.9454 -0.1834  0.2135
18329TIP3   OH276401   2.182   4.103  11.571  0.0077 -0.0412 -0.6443
18329TIP3    H176402   2.096   4.066  11.550  0.8492 -2.0207 -0.8471
18329TIP3    H276403   2.219   4.041  11.634  0.8455  1.4084  0.3401
18330TIP3   OH276404   6.639   3.059   5.692  0.4143  0.5988  0.4489
18330TIP3    H176405   6.613   3.149   5.714  2.1330  1.2615 -0.1137
18330TIP3    H276406   6.586   3.004   5.750 -1.1468  1.9259  0.3429
18331TIP3   OH276407   1.225   2.007  11.428 -0.1681 -0.4640 -0.1349
18331TIP3    H176408   1.144   2.059  11.427  0.5896  0.7619  0.1114
18331TIP3    H276409   1.232   1.972  11.339  0.4131  1.6769 -0.9954
18332TIP3   OH276410   6.153   5.797   2.717  0.4669  0.0440  0.5945
18332TIP3    H176411   6.147   5.728   2.651  0.3313  0.9665 -0.3858
18332TIP3    H276412   6.080   5.780   2.777  0.8793 -1.0834  0.8088
18333TIP3   OH276413   4.551   3.228  14.348  0.8569 -0.5570  0.1087
18333TIP3    H176414   4.576   3.319  14.362  1.5566 -0.5594 -0.9716
18333TIP3    H276415   4.585   3.207  14.261 -0.7735 -1.3401 -0.3809
18334TIP3   OH276416   3.127   2.002  12.901  0.2077  0.3176  0.0852
18334TIP3    H176417   3.197   1.944  12.929  0.1839  0.4794  0.4897
18334TIP3    H276418   3.139   2.082  12.953 -1.2390 -0.2388  1.3675
18335TIP3   OH276419   1.430   1.927  17.120 -0.0188  0.6888 -0.0586
18335TIP3    H176420   1.339   1.933  17.148  0.3271 -0.6264  1.4703
18335TIP3    H276421   1.428   1.947  17.027 -1.8436  0.8105 -0.0223
18336TIP3   OH276422   6.681   6.504  13.876  0.3996  0.5743  0.2396
18336TIP3    H176423   6.676   6.425  13.823  1.0504  0.7035 -0.0359
18336TIP3    H276424   6.716   6.571  13.816 -1.1741  1.3718  0.1516
18337TIP3   OH276425   3.047   5.759  15.217  0.6600 -0.7787 -0.4139
18337TIP3    H176426   2.956   5.789  15.211  0.4606 -1.0871  0.7331
18337TIP3    H276427   3.042   5.666  15.193  0.0071 -1.7843  3.0558
18338TIP3   OH276428   4.687   2.228  13.263 -0.2354  0.6022  0.0695
18338TIP3    H176429   4.622   2.204  13.329 -0.5569  1.6270  0.1334
18338TIP3    H276430   4.696   2.149  13.209 -1.1381  0.2796  0.3756
18339TIP3   OH276431   4.066   4.649   2.827  0.4902 -0.0165  0.3683
18339TIP3    H176432   4.055   4.683   2.916 -1.6803 -1.9414  0.9193
18339TIP3    H276433   4.065   4.727   2.771  0.3461  1.1180  1.8935
18340TIP3   OH276434   1.239   2.552   0.236 -0.5404 -0.4201 -0.2890
18340TIP3    H176435   1.256   2.518   0.324  2.7848  1.2756 -0.1148
18340TIP3    H276436   1.203   2.639   0.250 -1.8232 -0.8708 -0.6685
18341TIP3   OH276437   0.859   0.062  15.178  0.4405 -0.3085  0.3845
18341TIP3    H176438   0.850   0.054  15.273  0.0838 -2.0137  0.2486
18341TIP3    H276439   0.937   0.116  15.165  0.4568 -0.0092  1.6400
18342TIP3   OH276440   3.430   2.545   3.734  0.4232  0.5850  0.7500
18342TIP3    H176441   3.440   2.638   3.715  1.1350  0.6756  1.5116
18342TIP3    H276442   3.518   2.514   3.753  0.4235 -0.6269 -1.0628
18343TIP3   OH276443   4.828   3.143  16.306  0.2519  0.3141  0.0815
18343TIP3    H176444   4.745   3.113  16.341  0.1318  1.3958  0.7773
18343TIP3    H276445   4.820   3.239  16.303  0.9669  0.3670 -1.1406
18344TIP3   OH276446   6.132   6.155  16.011 -0.2341  0.9104 -0.2559
18344TIP3    H176447   6.109   6.160  15.918  1.2088  0.6084 -0.6672
18344TIP3    H276448   6.155   6.063  16.024  1.6876  1.3504 -0.1834
18345TIP3   OH276449   5.526   5.275  15.822  0.7182 -0.1251  0.6082
18345TIP3    H176450   5.459   5.265  15.890 -0.2327 -1.3307 -0.4442
18345TIP3    H276451   5.608   5.256  15.867  0.1148 -0.8839  1.4333
18346TIP3   OH276452   3.225   3.673  14.660  0.2410 -0.1075 -0.3981
18346TIP3    H176453   3.270   3.652  14.742  0.7202 -1.2117 -0.9173
18346TIP3    H276454   3.132   3.660  14.680  0.2017  1.1794  0.3933
18347TIP3   OH276455   5.055   3.353   0.322 -0.5839  0.0753  0.0508
18347TIP3    H176456   5.100   3.306   0.252 -1.2257  0.6544 -0.7766
18347TIP3    H276457   5.001   3.287   0.365  0.7183 -0.5328  0.7878
18348TIP3   OH276458   4.716   0.313  12.347  0.1125  0.4662  0.1347
18348TIP3    H176459   4.676   0.231  12.320 -0.2974  0.5615  0.4446
18348TIP3    H276460   4.807   0.291  12.364  0.0159  0.0878  0.1685
18349TIP3   OH276461   4.796   6.460  11.194  0.5424  0.0414  0.3506
18349TIP3    H176462   4.755   6.424  11.272 -1.6015  2.7901  0.6518
18349TIP3    H276463   4.878   6.499  11.225  1.6321 -2.1843  0.4439
18350TIP3   OH276464   3.479   3.920  12.898  0.1947 -0.2164  0.0544
18350TIP3    H176465   3.390   3.886  12.883 -0.1557  0.6133  0.1896
18350TIP3    H276466   3.511   3.942  12.811 -0.6788  1.7516  0.1789
18351TIP3   OH276467   5.730   2.708   1.993 -0.1849 -0.8571 -0.0762
18351TIP3    H176468   5.742   2.617   1.968  1.9890 -0.3979 -0.9867
18351TIP3    H276469   5.679   2.705   2.074 -0.5614 -2.8325 -0.3427
18352TIP3   OH276470   3.773   1.490  16.843 -0.1353 -0.3448 -0.2262
18352TIP3    H176471   3.729   1.561  16.890 -1.1448  0.1982 -1.9268
18352TIP3    H276472   3.866   1.514  16.847 -0.2221 -0.1232  1.1270
18353TIP3   OH276473   2.386   6.438  15.057 -0.1297  0.7646 -0.0038
18353TIP3    H176474   2.399   6.499  14.985  1.2879  0.7958  0.2430
18353TIP3    H276475   2.323   6.374  15.024  0.1358  1.0467 -1.0908
18354TIP3   OH276476   3.173   3.503   2.759  0.1612  1.2183  0.1284
18354TIP3    H176477   3.267   3.507   2.779 -0.1365 -0.7603  2.3725
18354TIP3    H276478   3.158   3.412   2.733 -1.5168  0.7533  2.4086
18355TIP3   OH276479   4.789   4.830   0.467  0.6257 -0.1896  0.6215
18355TIP3    H176480   4.809   4.749   0.421  0.6477 -0.4930  1.1682
18355TIP3    H276481   4.694   4.829   0.478  0.7964 -1.0907  2.3566
18356TIP3   OH276482   4.130   0.175  16.644 -0.4885  0.2956 -0.0209
18356TIP3    H176483   4.131   0.085  16.676 -0.8876  0.2778 -0.0557
18356TIP3    H276484   4.173   0.171  16.559  0.8330  0.3836  0.6058
18357TIP3   OH276485   3.276   5.827  14.479 -0.0923 -0.3469  0.0255
18357TIP3    H176486   3.304   5.826  14.571 -0.8596 -1.7517  0.2673
18357TIP3    H276487   3.347   5.873  14.433 -0.4098  1.8016  1.5131
18358TIP3   OH276488   0.175   0.607  12.427 -0.1380  0.2006  0.1456
18358TIP3    H176489   0.146   0.547  12.497  0.6674 -2.2029 -1.4409
18358TIP3    H276490   0.101   0.610  12.366  0.7129 -1.2972 -1.0307
18359TIP3   OH276491   5.244   3.019   2.818 -0.1731 -0.1957  0.4155
18359TIP3    H176492   5.235   3.083   2.747 -2.6444  0.3140  1.1090
18359TIP3    H276493   5.288   3.067   2.888  0.9312 -0.2672 -0.1987
18360TIP3   OH276494   1.837   4.893  12.653  0.3977 -0.0340  0.0645
18360TIP3    H176495   1.846   4.988  12.651  0.3554 -0.0068  0.8622
18360TIP3    H276496   1.906   4.863  12.712  1.5944 -0.6688 -1.6105
18361TIP3   OH276497   2.995   6.131  12.071 -0.6360  0.3113  0.3100
18361TIP3    H176498   2.944   6.051  12.081  1.6292 -1.1180  1.1713
18361TIP3    H276499   2.981   6.157  11.980 -2.5908 -0.1884  0.4304
18362TIP3   OH276500   1.800   3.277  10.627  0.2860  0.2295 -0.0644
18362TIP3    H176501   1.733   3.307  10.565  1.3248  3.0833  0.0455
18362TIP3    H276502   1.750   3.234  10.697 -1.0602 -1.2914 -1.8348
18363TIP3   OH276503   5.899   4.419   0.707 -0.0981  0.5512  0.7130
18363TIP3    H176504   5.858   4.359   0.644  1.0527  1.8453 -1.3768
18363TIP3    H276505   5.836   4.425   0.779 -2.0203 -0.1326 -0.8209
18364TIP3   OH276506   3.142   1.138   3.577 -0.2206  0.1393 -0.2612
18364TIP3    H176507   3.154   1.204   3.644 -0.1859  0.2428 -0.3695
18364TIP3    H276508   3.065   1.167   3.528  0.9551  1.1714 -1.5686
18365TIP3   OH276509   0.314   5.674   4.723  0.0643  0.2605  0.2272
18365TIP3    H176510   0.221   5.688   4.740  0.1999 -0.0669  1.3298
18365TIP3    H276511   0.347   5.759   4.693 -0.5969  0.3536 -0.2579
18366TIP3   OH276512   0.491   3.478  10.395 -0.7420  0.1286 -0.5450
18366TIP3    H176513   0.493   3.392  10.437 -0.9903 -0.3262 -1.4565
18366TIP3    H276514   0.523   3.463  10.306  0.2642  1.1703 -0.3908
18367TIP3   OH276515   6.482   3.264   3.446 -0.2813 -0.5941  0.1233
18367TIP3    H176516   6.555   3.293   3.500  0.7328 -1.5892 -0.6650
18367TIP3    H276517   6.453   3.182   3.487  1.5781 -2.2729 -1.6658
18368TIP3   OH276518   1.620   5.855  17.308  0.2209 -0.4109 -0.5310
18368TIP3    H176519   1.583   5.943  17.311  0.3908 -0.3374 -0.5686
18368TIP3    H276520   1.715   5.869  17.313  0.2358 -0.6087 -0.1935
18369TIP3   OH276521   0.219   0.406  16.263 -0.3575  0.4213 -0.3845
18369TIP3    H176522   0.271   0.359  16.198 -1.7650 -1.5243 -0.2129
18369TIP3    H276523   0.240   0.363  16.346 -2.9004 -1.1998 -0.4488
18370TIP3   OH276524   0.171   4.770  14.307  0.8925  0.0965  0.2793
18370TIP3    H176525   0.131   4.715  14.239 -0.8466  0.3681  1.0442
18370TIP3    H276526   0.208   4.844  14.258  1.8045 -0.9028 -0.5930
18371TIP3   OH276527   6.486   0.521  14.479 -0.2190 -0.1331  0.4524
18371TIP3    H176528   6.457   0.549  14.393 -0.4127  0.4017  0.6851
18371TIP3    H276529   6.412   0.469  14.513 -0.2754 -0.0721  0.4235
18372TIP3   OH276530   5.617   5.017   4.928 -0.0649  0.5095 -0.3320
18372TIP3    H176531   5.702   5.057   4.945 -0.4095  0.8386  0.7189
18372TIP3    H276532   5.614   4.941   4.987 -0.6094  0.6675 -0.1506
18373TIP3   OH276533   0.168   0.439   0.786  0.0786  0.3002 -0.0338
18373TIP3    H176534   0.094   0.380   0.768  1.2589 -2.2796  2.7481
18373TIP3    H276535   0.153   0.469   0.875  1.6215  0.9421  0.0316
18374TIP3   OH276536   5.092   6.138   5.421  0.3339 -0.3660  0.6157
18374TIP3    H176537   5.074   6.046   5.402  1.6345 -0.7244  0.9519
18374TIP3    H276538   5.133   6.137   5.507  0.4625  0.5185  0.5782
18375TIP3   OH276539   0.454   0.844  11.392  0.4766 -0.2991  0.7433
18375TIP3    H176540   0.497   0.904  11.331  0.4687 -1.1466 -0.1120
18375TIP3    H276541   0.407   0.901  11.452  1.3085  0.5912  0.5855
18376TIP3   OH276542   4.768   2.079   6.627 -0.1357 -0.2634 -0.5552
18376TIP3    H176543   4.699   2.017   6.652 -0.6599  0.0304 -1.2678
18376TIP3    H276544   4.842   2.023   6.602 -0.9189 -0.6479 -2.1118
18377TIP3   OH276545   5.408   2.938   2.486  0.1935  0.7021  0.1891
18377TIP3    H176546   5.379   2.876   2.419  2.7366 -1.0717  0.5649
18377TIP3    H276547   5.328   2.981   2.516 -1.3516 -0.4792 -1.9780
18378TIP3   OH276548   4.812   4.871   0.066 -0.4812 -0.1040  0.2939
18378TIP3    H176549   4.828   4.965   0.057  0.7210 -0.4937 -2.5087
18378TIP3    H276550   4.737   4.866   0.126  0.9634  2.4556  2.5657
18379TIP3   OH276551   5.583   6.374  13.979 -0.5352 -0.6148 -0.7346
18379TIP3    H176552   5.489   6.382  13.997 -0.2489  0.3562  0.4245
18379TIP3    H276553   5.623   6.443  14.031  0.9585 -1.9129 -0.0805
18380TIP3   OH276554   3.859   6.004  12.040 -0.6497  0.3116 -0.0309
18380TIP3    H176555   3.946   6.010  12.002 -1.2128  1.4107 -1.2229
18380TIP3    H276556   3.869   6.034  12.130 -0.1392  2.5986 -0.7767
18381TIP3   OH276557   2.596   0.108  16.868  0.4567 -0.3171 -0.0445
18381TIP3    H176558   2.548   0.028  16.846  0.1041 -0.4268  1.0799
18381TIP3    H276559   2.659   0.081  16.935  0.0111  0.4293  0.6894
18382TIP3   OH276560   6.752   1.172  11.023 -0.3740  0.1664  0.6332
18382TIP3    H176561   6.686   1.124  10.974 -0.5320  2.5455 -1.7259
18382TIP3    H276562   6.830   1.117  11.018 -1.3563 -1.3080  0.8936
18383TIP3   OH276563   4.173   0.031  14.601 -1.1580 -0.1647 -0.5045
18383TIP3    H176564   4.200   0.110  14.555 -0.9678 -0.1665 -0.3982
18383TIP3    H276565   4.089   0.053  14.640 -1.6210 -0.3670 -1.3691
18384TIP3   OH276566   4.436   2.547  11.723 -0.7332 -0.5669 -0.5504
18384TIP3    H176567   4.468   2.616  11.781 -2.1120  0.4052 -0.9131
18384TIP3    H276568   4.372   2.498  11.775  0.5576 -1.9098 -0.1421
18385TIP3   OH276569   3.557   4.531  13.291  0.4347  0.5529 -0.0328
18385TIP3    H176570   3.607   4.474  13.350  0.6791  0.5522 -0.2373
18385TIP3    H276571   3.535   4.607  13.345 -0.6899 -0.1295  0.5193
18386TIP3   OH276572   4.807   1.444  16.296  0.9201 -0.4313 -0.1439
18386TIP3    H176573   4.855   1.494  16.361  0.6892  0.6878 -0.7996
18386TIP3    H276574   4.727   1.496  16.281  0.3639 -1.3343 -0.3704
18387TIP3   OH276575   5.302   0.143   0.239  0.3093  0.0996  0.1048
18387TIP3    H176576   5.278   0.231   0.210 -1.7366 -0.3404  0.3137
18387TIP3    H276577   5.386   0.155   0.285  0.1710  1.8955 -0.0294
18388TIP3   OH276578   5.255   1.960   1.042  0.2159  0.2304  0.5221
18388TIP3    H176579   5.209   1.913   1.111  0.6773 -0.0631  0.6361
18388TIP3    H276580   5.216   2.047   1.042 -1.1430 -0.3455 -0.1631
18389TIP3   OH276581   6.647   2.903   1.341  0.2776 -0.1016 -0.2373
18389TIP3    H176582   6.733   2.942   1.358  0.3134 -0.3453  0.1401
18389TIP3    H276583   6.621   2.939   1.256 -0.5123  2.1973  0.8790
18390TIP3   OH276584   2.175   5.457   4.832 -0.0950 -0.0589  0.1201
18390TIP3    H176585   2.203   5.394   4.766 -0.2498 -1.9667  1.7905
18390TIP3    H276586   2.196   5.415   4.915 -1.4032  1.5509  1.3089
18391TIP3   OH276587   4.053   5.867   3.688 -0.4099 -0.5928 -0.1320
18391TIP3    H176588   4.092   5.844   3.604  0.6153 -0.0542  0.1759
18391TIP3    H276589   4.111   5.825   3.753 -1.8586 -2.0196  0.2986
18392TIP3   OH276590   4.862   3.270   4.114  0.3146 -0.2732  0.3350
18392TIP3    H176591   4.778   3.236   4.146  0.2321 -1.0533 -0.6567
18392TIP3    H276592   4.854   3.267   4.019  1.3218  0.0295  0.2295
18393TIP3   OH276593   0.061   2.196   5.840 -0.4144 -0.5648 -0.2120
18393TIP3    H176594   0.082   2.104   5.858 -0.0522 -1.2612 -3.5037
18393TIP3    H276595  -0.032   2.203   5.857 -0.3645 -1.4417  0.4944
18394TIP3   OH276596   5.684   5.959   6.545  1.3603  0.2973  0.2384
18394TIP3    H176597   5.671   5.954   6.640  3.0988 -1.1555  0.4470
18394TIP3    H276598   5.641   5.881   6.511 -0.2926  1.4125 -0.3534
18395TIP3   OH276599   2.680   0.315  11.221 -0.8066  0.3064 -0.3218
18395TIP3    H176600   2.586   0.304  11.235 -1.1570  1.5184 -1.5035
18395TIP3    H276601   2.697   0.407  11.241  0.2231  0.0006  0.2801
18396TIP3   OH276602   3.926   2.671  12.602 -0.9357  0.3648  0.0366
18396TIP3    H176603   3.938   2.664  12.697  2.7240  1.1965 -0.2005
18396TIP3    H276604   3.882   2.755  12.590 -0.5645  0.7108  0.9728
18397TIP3   OH276605   0.631   3.724  15.756 -0.6481  0.0307  0.1664
18397TIP3    H176606   0.542   3.738  15.787 -0.6222  1.3885 -0.2975
18397TIP3    H276607   0.625   3.730  15.661  0.1284  1.5849  0.1746
18398TIP3   OH276608   5.052   4.753   4.688 -0.1405 -0.0860 -0.1380
18398TIP3    H176609   5.020   4.769   4.599 -2.0371  0.1559  0.5504
18398TIP3    H276610   5.040   4.837   4.733 -0.6427 -0.6259  0.7592
18399TIP3   OH276611   1.621   2.764   4.065 -0.1053  0.0042 -0.2782
18399TIP3    H176612   1.596   2.854   4.049 -1.0955 -0.6506 -2.8662
18399TIP3    H276613   1.603   2.718   3.983 -0.1708 -2.6822  1.1039
18400TIP3   OH276614   0.740   1.352  13.687  0.7111  0.3002  0.2266
18400TIP3    H176615   0.700   1.277  13.643 -2.1690  1.7930  0.0531
18400TIP3    H276616   0.769   1.318  13.772 -0.7560 -0.9918  0.2444
18401TIP3   OH276617   0.493   4.725  12.015  0.7286 -0.3733 -0.3039
18401TIP3    H176618   0.483   4.641  11.970  0.4638 -0.5371  0.0605
18401TIP3    H276619   0.461   4.789  11.951 -1.7849 -0.7812  0.4082
18402TIP3   OH276620   6.662   6.606  14.565 -0.1612 -0.0102  0.2137
18402TIP3    H176621   6.747   6.604  14.521 -1.0295 -1.5729 -1.5276
18402TIP3    H276622   6.676   6.555  14.646  0.1471 -1.9687 -0.9953
18403TIP3   OH276623   2.438   5.125   5.093 -0.1222  0.0796  0.4993
18403TIP3    H176624   2.460   5.051   5.150 -1.4349 -0.2002  0.6556
18403TIP3    H276625   2.425   5.086   5.007  1.5822  0.4673  0.0224
18404TIP3   OH276626   1.872   3.487   4.963  0.1653 -0.2298 -0.6493
18404TIP3    H176627   1.859   3.393   4.951 -1.7635 -0.2764  1.2914
18404TIP3    H276628   1.952   3.494   5.015  1.1786 -0.6620 -2.0805
18405TIP3   OH276629   0.049   2.275  14.298  0.2346  0.2382 -0.0993
18405TIP3    H176630   0.057   2.311  14.210 -0.9434 -0.7275 -0.6385
18405TIP3    H276631   0.137   2.282  14.335  1.1507 -0.7804 -1.9322
18406TIP3   OH276632   4.512   3.650  15.275  0.0576 -0.3644  0.3192
18406TIP3    H176633   4.604   3.640  15.300  0.6553  0.6149 -1.3338
18406TIP3    H276634   4.475   3.705  15.345  1.7296  2.4632 -0.8125
18407TIP3   OH276635   6.743   4.163   5.297  0.3561 -0.1903 -0.2738
18407TIP3    H176636   6.693   4.084   5.320  1.4186 -0.7802  0.0584
18407TIP3    H276637   6.690   4.205   5.229 -0.6559 -0.7261  0.1598
18408TIP3   OH276638   5.004   1.354   0.205  0.2130  0.1606 -0.3864
18408TIP3    H176639   4.991   1.416   0.134  2.5762  0.0460 -1.0123
18408TIP3    H276640   5.067   1.397   0.263 -0.6033 -0.3313  0.9256
18409TIP3   OH276641   0.730   4.369   1.252  0.5978  0.7165  0.4553
18409TIP3    H176642   0.784   4.431   1.302 -0.2851  0.0434  2.3367
18409TIP3    H276643   0.767   4.283   1.272 -1.0905  0.2491  1.7396
18410TIP3   OH276644   1.672   2.988   0.294  0.2077 -0.7079  0.8736
18410TIP3    H176645   1.599   2.929   0.315 -1.5476  0.7682 -0.7851
18410TIP3    H276646   1.744   2.929   0.272 -0.9128 -2.2286  1.0782
18411TIP3   OH276647   5.353   5.302   4.334 -0.2605  0.2136  0.5707
18411TIP3    H176648   5.294   5.313   4.260 -0.6268 -0.2904  0.7820
18411TIP3    H276649   5.395   5.218   4.320  1.0358  0.9283 -0.0014
18412TIP3   OH276650   6.662   3.560  13.466  0.3146  0.3321 -0.3992
18412TIP3    H176651   6.587   3.545  13.408  0.2464  2.1712 -0.8595
18412TIP3    H276652   6.726   3.493  13.440 -1.3125 -1.6243  0.3669
18413TIP3   OH276653   5.553   5.772  16.041  0.1843 -0.1822  0.5399
18413TIP3    H176654   5.508   5.851  16.069 -1.0593 -0.7566  0.2605
18413TIP3    H276655   5.563   5.720  16.122  1.4028  0.4323  0.8019
18414TIP3   OH276656   0.122   2.423  12.730 -0.5567  0.2842 -0.6877
18414TIP3    H176657   0.194   2.486  12.737 -0.0682 -0.3210 -0.0488
18414TIP3    H276658   0.063   2.446  12.802 -0.3506 -0.0114 -0.4199
18415TIP3   OH276659   5.274   0.136   6.490 -0.8217  0.3191 -0.1491
18415TIP3    H176660   5.180   0.125   6.483 -0.7910 -0.4194  0.4733
18415TIP3    H276661   5.288   0.172   6.577 -0.5753  1.1037 -0.5044
18416TIP3   OH276662   1.497   6.579   5.201  0.2733  0.2897 -0.0556
18416TIP3    H176663   1.472   6.661   5.157 -0.4767  0.3292  0.4241
18416TIP3    H276664   1.426   6.519   5.182  0.4626 -0.0249  0.2207
18417TIP3   OH276665   5.691   3.452  15.594 -0.5799  0.1649 -0.3285
18417TIP3    H176666   5.671   3.421  15.506  1.8510 -1.6440 -0.3567
18417TIP3    H276667   5.640   3.396  15.652 -0.0498 -0.5334 -0.5301
18418TIP3   OH276668   0.519   4.246  12.353 -0.5713 -0.0284 -0.3007
18418TIP3    H176669   0.514   4.316  12.418 -1.9429  0.8492 -1.3067
18418TIP3    H276670   0.612   4.234  12.338 -0.2843  0.8275  0.6871
18419TIP3   OH276671   3.026   2.996   4.282 -0.0626 -0.5916 -0.0645
18419TIP3    H176672   3.072   2.953   4.355 -0.3440  0.0272  0.4881
18419TIP3    H276673   2.935   2.965   4.290 -0.1249 -0.4091 -0.0606
18420TIP3   OH276674   3.697   2.309  16.146 -0.2163  0.6847 -0.4126
18420TIP3    H176675   3.628   2.256  16.188  0.0848  0.3995 -0.2659
18420TIP3    H276676   3.767   2.246  16.128 -0.4000  0.7819 -1.4820
18421TIP3   OH276677   0.282   3.005   4.831  0.2255 -0.7173 -0.0447
18421TIP3    H176678   0.298   3.010   4.925 -0.9715 -0.5085  0.1683
18421TIP3    H276679   0.257   2.914   4.815 -3.7434  0.0495  0.6377
18422TIP3   OH276680   1.540   4.918  16.203  0.4593 -0.5279  0.1079
18422TIP3    H176681   1.455   4.879  16.226  0.1863  0.0164  0.0323
18422TIP3    H276682   1.590   4.915  16.285  0.9324 -2.2432 -0.2039
18423TIP3   OH276683   2.334   0.052  11.938  0.4611  0.1660 -0.4022
18423TIP3    H176684   2.273   0.125  11.930 -1.8958 -1.6613 -0.4014
18423TIP3    H276685   2.315   0.014  12.023  0.6759 -1.2180 -0.9376
18424TIP3   OH276686   4.753   1.703   4.556 -0.0239  0.0274  0.0616
18424TIP3    H176687   4.793   1.666   4.478 -1.6607  0.3605 -0.9654
18424TIP3    H276688   4.818   1.766   4.589  1.0406 -0.7571 -0.5034
18425TIP3   OH276689   5.554   1.265  14.678  0.5187 -0.0771 -0.0746
18425TIP3    H176690   5.527   1.354  14.658 -1.2159 -0.7491 -0.9370
18425TIP3    H276691   5.587   1.231  14.595 -1.8397 -1.2209 -0.6198
18426TIP3   OH276692   4.657   1.662  11.964  0.2561  0.5518  0.2609
18426TIP3    H176693   4.750   1.678  11.951  0.2245  0.1226 -0.5903
18426TIP3    H276694   4.640   1.581  11.915 -0.0598 -0.7796  2.4607
18427TIP3   OH276695   2.129   4.383  16.401  0.5563  0.3732  0.5732
18427TIP3    H176696   2.158   4.310  16.455 -1.3143 -1.8097 -1.1297
18427TIP3    H276697   2.206   4.408  16.350  0.8140 -1.8305 -0.2307
18428TIP3   OH276698   5.314   4.304  10.567 -0.2047 -0.2320 -0.0142
18428TIP3    H176699   5.353   4.373  10.513 -0.7140  0.5403  0.5931
18428TIP3    H276700   5.279   4.241  10.504 -1.1495  0.8548 -0.6023
18429TIP3   OH276701   2.343   0.707   4.607 -0.5693  0.0988  0.3381
18429TIP3    H176702   2.290   0.697   4.686 -1.5775  1.5254 -0.1254
18429TIP3    H276703   2.415   0.645   4.619 -0.5840  0.4156  2.4642
18430TIP3   OH276704   2.041   6.568   2.460  0.0058  0.0633  0.0286
18430TIP3    H176705   2.080   6.506   2.399  0.0178  1.0915 -1.0569
18430TIP3    H276706   2.113   6.592   2.519  0.3476  0.0179 -0.3655
18431TIP3   OH276707   1.110   3.435  12.583 -0.0321 -0.0918 -0.7877
18431TIP3    H176708   1.126   3.423  12.677 -0.7306  0.1322 -0.6332
18431TIP3    H276709   1.195   3.417  12.542 -0.0898 -1.8032 -0.2591
18432TIP3   OH276710   1.799   5.905  11.332  0.1769  0.1274  0.3319
18432TIP3    H176711   1.730   5.896  11.267  0.0119 -0.8612  0.6195
18432TIP3    H276712   1.777   5.840  11.399  0.8710  0.4564  0.8929
18433TIP3   OH276713   3.307   0.810   3.063 -1.0389 -0.1542 -0.3894
18433TIP3    H176714   3.364   0.776   2.994  0.9799  0.2109  1.0196
18433TIP3    H276715   3.221   0.814   3.022 -0.2255 -1.4153 -2.3953
18434TIP3   OH276716   2.879   5.224  17.098 -0.4403 -0.0619 -0.2113
18434TIP3    H176717   2.957   5.170  17.084 -0.0505  0.7753 -1.3971
18434TIP3    H276718   2.834   5.182  17.171  0.8187 -0.8985  0.1147
18435TIP3   OH276719   1.678   4.034   5.749 -0.4426 -0.1958  0.1788
18435TIP3    H176720   1.603   4.087   5.723 -0.4121  1.1446  2.5381
18435TIP3    H276721   1.744   4.097   5.777  1.1724 -1.3874 -0.7655
18436TIP3   OH276722   3.559   0.798  12.930 -0.2783 -0.0521 -0.0312
18436TIP3    H176723   3.624   0.732  12.909  0.7672  0.4977  1.2996
18436TIP3    H276724   3.562   0.861  12.858  2.6482  1.3997  1.1853
18437TIP3   OH276725   4.015   3.796   1.502 -0.1221 -0.6798 -0.2137
18437TIP3    H176726   3.996   3.834   1.416  0.0487  0.4864  0.2432
18437TIP3    H276727   4.090   3.846   1.534 -1.1482 -0.0267  1.2714
18438TIP3   OH276728   4.920   2.390  13.993 -0.0530  0.1530 -0.3316
18438TIP3    H176729   4.993   2.369  13.934  0.1368 -0.8480  0.2281
18438TIP3    H276730   4.845   2.345  13.954 -0.5559  1.7538 -1.2879
18439TIP3   OH276731   4.858   5.668  15.677 -0.1796  0.2209  0.7853
18439TIP3    H176732   4.819   5.632  15.757 -0.3670  1.1098  1.1061
18439TIP3    H276733   4.882   5.757  15.701  0.6329  0.1948  0.1247
18440TIP3   OH276734   3.223   3.000  11.517 -0.2463  0.1616  0.3011
18440TIP3    H176735   3.165   2.939  11.472 -1.9084  1.8003  0.1042
18440TIP3    H276736   3.165   3.058  11.566  1.1235  2.2922 -0.4229
18441TIP3   OH276737   6.234   5.141   6.212  0.1553 -0.5643  0.4710
18441TIP3    H176738   6.265   5.163   6.124 -0.8236 -1.2324 -0.0650
18441TIP3    H276739   6.290   5.192   6.270  0.7414 -0.0047 -0.5396
18442TIP3   OH276740   3.417   2.247  12.743 -0.3263 -0.2039 -0.6161
18442TIP3    H176741   3.492   2.268  12.689  1.4296  0.2648  1.8469
18442TIP3    H276742   3.445   2.173  12.797 -3.2377 -3.1028 -2.6583
18443TIP3   OH276743   2.390   4.658   4.507  0.5901  0.2750  0.3434
18443TIP3    H176744   2.350   4.637   4.591  0.6842 -1.9585 -0.1291
18443TIP3    H276745   2.480   4.627   4.514  0.1030 -1.6411 -1.1697
18444TIP3   OH276746   6.527   6.091   3.687  0.3808 -0.5586  0.3361
18444TIP3    H176747   6.475   6.107   3.766 -1.1305  0.7857 -0.8587
18444TIP3    H276748   6.555   6.000   3.695 -0.0122 -0.5516  2.2451
18445TIP3   OH276749   2.553   5.009  13.649 -0.4036  0.4732  0.2064
18445TIP3    H176750   2.502   4.940  13.692  0.5139  0.0560  0.6586
18445TIP3    H276751   2.579   5.067  13.720  0.5840  0.1316  0.1360
18446TIP3   OH276752   1.028   5.439   0.077 -0.2649  1.1594 -0.2992
18446TIP3    H176753   0.956   5.474   0.024 -0.7308  0.1611 -0.3477
18446TIP3    H276754   0.996   5.354   0.108  0.9176  0.6813 -0.3535
18447TIP3   OH276755   0.627   4.327   0.802  0.2703 -0.4151  0.3548
18447TIP3    H176756   0.658   4.352   0.715 -1.0975  0.0199 -0.0219
18447TIP3    H276757   0.655   4.236   0.812  0.5234 -0.4383 -0.5012
18448TIP3   OH276758   5.192   0.186   1.847  0.0353 -0.0860  0.5168
18448TIP3    H176759   5.146   0.224   1.923  0.9343  0.0154  1.0268
18448TIP3    H276760   5.275   0.155   1.883  0.1847 -0.6614 -0.3071
18449TIP3   OH276761   2.695   0.320  11.749  0.2195  0.8459 -0.1783
18449TIP3    H176762   2.611   0.276  11.739  0.4614 -1.3978  4.6854
18449TIP3    H276763   2.673   0.413  11.753 -2.5839  0.2554  3.0839
18450TIP3   OH276764   3.933   4.724   5.545 -0.2772 -0.3922 -0.3078
18450TIP3    H176765   3.911   4.748   5.635  1.5756 -1.2272  0.4249
18450TIP3    H276766   4.026   4.701   5.548  0.7080  2.4783 -3.0237
18451TIP3   OH276767   6.346   6.406   6.153  0.1562 -0.1136  0.1272
18451TIP3    H176768   6.370   6.333   6.211 -1.3703  0.7733  1.9763
18451TIP3    H276769   6.398   6.391   6.074  0.4164 -2.8046  0.6980
18452TIP3   OH276770   6.391   2.307  11.347 -0.1905  0.1857  0.9574
18452TIP3    H176771   6.462   2.289  11.286 -0.9846 -3.2125  0.8123
18452TIP3    H276772   6.317   2.332  11.292 -0.3506 -0.8879  0.6672
18453TIP3   OH276773   4.940   3.442   1.142  0.1680  0.1995  0.1176
18453TIP3    H176774   5.002   3.484   1.082 -0.0109 -0.4869 -0.5646
18453TIP3    H276775   4.937   3.350   1.113 -1.2892  0.2479  0.0299
18454TIP3   OH276776   0.970   1.952  15.157  0.3311  0.2673  0.0696
18454TIP3    H176777   1.054   1.953  15.110  0.0020 -1.0617 -0.6022
18454TIP3    H276778   0.938   2.041  15.150  1.4731  0.6846 -0.0702
18455TIP3   OH276779   4.599   2.024  11.573  0.0845 -0.1918 -0.0646
18455TIP3    H176780   4.518   2.021  11.624  0.9463  1.0786  1.5080
18455TIP3    H276781   4.644   1.943  11.595  0.2496  0.1467  0.8926
18456TIP3   OH276782   6.579   4.373  13.485 -0.4462  0.4266  0.0100
18456TIP3    H176783   6.666   4.374  13.524 -0.1101 -0.4716 -0.6800
18456TIP3    H276784   6.580   4.297  13.427 -2.1535 -0.4534  1.0560
18457TIP3   OH276785   4.713   1.054   0.050  0.5055 -0.2308  0.0370
18457TIP3    H176786   4.727   1.064  -0.044 -0.4606  0.6818 -0.0257
18457TIP3    H276787   4.705   1.143   0.083  0.2376 -0.5588  0.8938
18458TIP3   OH276788   0.539   4.922   0.927  0.7064 -0.3796 -0.3956
18458TIP3    H176789   0.487   4.944   1.004  0.3351 -0.4413 -0.6278
18458TIP3    H276790   0.569   4.832   0.942  1.8144  0.0875  0.3259
18459TIP3   OH276791   4.117   3.983  15.510 -0.1306 -0.2290  0.7257
18459TIP3    H176792   4.193   4.017  15.461 -0.6426  2.5894  1.6899
18459TIP3    H276793   4.155   3.931  15.580  0.7260 -1.5775 -0.6642
18460TIP3   OH276794   4.715   0.249  15.172 -0.1813 -0.2222  0.0165
18460TIP3    H176795   4.719   0.160  15.138  0.2873 -0.2458  0.1242
18460TIP3    H276796   4.636   0.251  15.227 -2.0531  0.3350 -2.4961
18461TIP3   OH276797   6.753   1.485  15.978  0.0245  0.3771  0.4599
18461TIP3    H176798   6.820   1.417  15.977 -0.5799 -0.2182  0.0743
18461TIP3    H276799   6.800   1.565  15.954  0.7694  0.1377  1.0762
18462TIP3   OH276800   1.788   3.296   3.310 -0.6173 -0.2325  0.0941
18462TIP3    H176801   1.812   3.311   3.401 -2.1701 -1.1084  0.6957
18462TIP3    H276802   1.827   3.212   3.288  0.8189  0.5630 -0.4789
18463TIP3   OH276803   3.148   4.031  13.001 -0.0028 -0.0209 -0.8574
18463TIP3    H176804   3.108   4.083  13.070  0.8779 -0.9549  0.3938
18463TIP3    H276805   3.225   4.083  12.974 -1.0888  1.0016 -2.1472
18464TIP3   OH276806   2.719   5.387  16.935 -0.2629  0.3167 -0.0361
18464TIP3    H176807   2.646   5.380  16.997  0.7931 -0.1227  1.2136
18464TIP3    H276808   2.788   5.334  16.974  0.1881 -0.6202 -2.0165
18465TIP3   OH276809   5.753   4.816  13.027  0.1121 -0.2850 -0.1532
18465TIP3    H176810   5.824   4.819  12.963 -0.8998  0.4198 -1.2913
18465TIP3    H276811   5.766   4.894  13.081 -0.7016  0.7453 -1.3984
18466TIP3   OH276812   1.776   4.823   5.304  0.0520  0.0241  0.1234
18466TIP3    H176813   1.842   4.760   5.331 -0.2647 -0.9137 -1.2156
18466TIP3    H276814   1.805   4.906   5.343  1.2211 -0.6498  0.7465
18467TIP3   OH276815   1.205   4.633   3.498  0.3605 -0.5257  0.2132
18467TIP3    H176816   1.252   4.580   3.562  0.4228  0.1582  0.7417
18467TIP3    H276817   1.114   4.631   3.527  0.0536 -1.6805 -0.6963
18468TIP3   OH276818   1.133   0.584   6.773  0.4506 -0.3149 -0.0942
18468TIP3    H176819   1.039   0.576   6.763  0.6422 -1.0886 -1.5207
18468TIP3    H276820   1.163   0.497   6.799  0.8379 -0.2476 -0.3002
18469TIP3   OH276821   6.131   4.262  15.452 -0.3339 -0.6691  0.1330
18469TIP3    H176822   6.211   4.272  15.401 -0.1438  0.5455  0.6320
18469TIP3    H276823   6.070   4.324  15.412 -0.4965 -0.4172  0.7616
18470TIP3   OH276824   5.381   4.994  17.237 -0.1572  0.0534  0.2011
18470TIP3    H176825   5.454   4.969  17.180  0.2313  0.5927  0.4455
18470TIP3    H276826   5.303   4.967  17.190  0.2262 -1.4267  0.3765
18471TIP3   OH276827   1.867   0.878   6.677 -0.3939 -0.1799  0.3043
18471TIP3    H176828   1.886   0.785   6.670 -1.2762 -0.3837  0.4867
18471TIP3    H276829   1.774   0.882   6.702 -0.9046  0.7734 -1.5709
18472TIP3   OH276830   1.397   4.865   4.288 -0.2968  0.3672 -0.3020
18472TIP3    H176831   1.475   4.812   4.306 -0.9534  0.2218  2.5760
18472TIP3    H276832   1.425   4.955   4.303 -0.1803  0.5161 -1.3411
18473TIP3   OH276833   1.151   2.894  12.054  0.2546 -0.2325 -0.3687
18473TIP3    H176834   1.135   2.838  12.130 -0.6279  1.0301  0.4167
18473TIP3    H276835   1.085   2.866  11.990  0.9977 -1.2963 -0.6997
18474TIP3   OH276836   4.031   5.286  11.146  0.3563 -0.3275 -0.1572
18474TIP3    H176837   4.000   5.196  11.134 -0.3252 -0.2480  0.9187
18474TIP3    H276838   4.080   5.305  11.066 -1.8115 -0.6979 -1.6488
18475TIP3   OH276839   6.149   2.332  14.619  0.4530 -0.0214 -0.1060
18475TIP3    H176840   6.129   2.400  14.683  0.2317 -2.0987  2.1931
18475TIP3    H276841   6.113   2.252  14.657  3.4509 -2.0174 -1.0779
18476TIP3   OH276842   3.249   3.806  12.782  0.0692 -0.2697 -0.1813
18476TIP3    H176843   3.237   3.732  12.723 -2.4736  1.1761 -1.6328
18476TIP3    H276844   3.168   3.811  12.833  0.1778  1.4484 -0.0937
18477TIP3   OH276845   2.712   5.595  11.983 -0.1585 -0.2298  0.6164
18477TIP3    H176846   2.766   5.674  11.985 -1.0102  0.3669  0.4578
18477TIP3    H276847   2.661   5.602  11.903  1.1273 -1.9147 -0.4382
18478TIP3   OH276848   5.693   2.010   6.017 -0.3942 -0.3779  0.2546
18478TIP3    H176849   5.681   1.953   5.941 -0.3895 -0.2228  0.1369
18478TIP3    H276850   5.612   1.999   6.067 -0.1813 -0.8858  0.5027
18479TIP3   OH276851   2.820   0.032  14.784  0.1740 -0.6131  0.0353
18479TIP3    H176852   2.777   0.107  14.826  0.6662 -0.8072  0.9297
18479TIP3    H276853   2.879   0.071  14.720 -1.4551 -0.3492 -1.3857
18480TIP3   OH276854   4.136   4.033   3.472 -0.2699 -0.1800 -0.1672
18480TIP3    H176855   4.063   4.073   3.519 -0.8410  0.3487 -1.4475
18480TIP3    H276856   4.127   3.939   3.489 -0.3095  0.0104  0.9497
18481TIP3   OH276857   5.334   6.477  16.729  0.4069 -0.0307 -0.7205
18481TIP3    H176858   5.258   6.484  16.787 -1.1428 -0.1603 -2.6319
18481TIP3    H276859   5.406   6.514  16.779 -1.1867  1.3192  0.6820
18482TIP3   OH276860   0.550   2.754   2.415 -0.0899  0.8713 -0.0008
18482TIP3    H176861   0.472   2.772   2.363  0.4442  0.6148 -0.9122
18482TIP3    H276862   0.621   2.798   2.367  0.5057  0.1408  0.1911
18483TIP3   OH276863   3.166   4.492   5.383 -0.2241 -0.5733  0.3414
18483TIP3    H176864   3.157   4.584   5.407  2.5020 -0.1332 -0.0424
18483TIP3    H276865   3.143   4.489   5.290  1.1167  0.0397 -0.0315
18484TIP3   OH276866   1.429   1.770  12.555 -0.1580 -0.2098  0.3558
18484TIP3    H176867   1.363   1.751  12.621 -1.8025  0.1126 -1.1454
18484TIP3    H276868   1.491   1.697  12.563 -0.5966 -0.4579  1.8701
18485TIP3   OH276869   4.542   0.477   0.341  0.2258 -0.0243 -0.3482
18485TIP3    H176870   4.549   0.382   0.332  1.0623 -0.1542  1.2688
18485TIP3    H276871   4.460   0.492   0.389  0.2744  0.0432 -0.2855
18486TIP3   OH276872   6.021   1.677   1.467  0.0501  0.3361 -0.4961
18486TIP3    H176873   6.114   1.681   1.487  0.1145  0.3233 -0.7778
18486TIP3    H276874   5.977   1.698   1.549  0.3156  1.9590 -0.7455
18487TIP3   OH276875   1.685   3.441   0.327  0.4825 -0.1757 -0.3443
18487TIP3    H176876   1.727   3.402   0.405  1.3747 -0.4313 -0.9339
18487TIP3    H276877   1.712   3.533   0.329  0.1168 -0.0750 -0.0939
18488TIP3   OH276878   0.629   5.261  10.649  0.3503  0.4681  0.6921
18488TIP3    H176879   0.540   5.243  10.619  0.3970  0.1711  0.7365
18488TIP3    H276880   0.672   5.176  10.653  0.6576  0.6157  0.6100
18489TIP3   OH276881   4.804   2.803   3.332 -0.0572 -0.1394  0.0394
18489TIP3    H176882   4.810   2.708   3.342 -0.3523 -0.1320  0.2781
18489TIP3    H276883   4.890   2.828   3.297  0.5114 -0.3314  1.2445
18490TIP3   OH276884   2.149   0.119  17.236  0.3790 -0.0272  0.8213
18490TIP3    H176885   2.135   0.180  17.308 -1.3543 -0.8882  1.2786
18490TIP3    H276886   2.146   0.033  17.277  4.0570 -0.5080  0.3929
18491TIP3   OH276887   2.033   1.118   4.663 -0.2488 -0.3935  0.0529
18491TIP3    H176888   2.045   1.038   4.715 -0.4210 -0.0311  0.6692
18491TIP3    H276889   1.941   1.141   4.677 -0.3038 -0.3079 -0.4499
18492TIP3   OH276890   6.606   0.051  13.445  0.0091  0.1735 -0.0036
18492TIP3    H176891   6.640   0.060  13.356 -1.4072 -3.6574 -1.1203
18492TIP3    H276892   6.516   0.083  13.440 -0.6221 -1.5804 -0.4642
18493TIP3   OH276893   4.210   1.981   3.945  0.3969  0.1203  0.2298
18493TIP3    H176894   4.118   1.988   3.970  0.7436  0.8209  1.4445
18493TIP3    H276895   4.253   1.946   4.023  1.0639 -0.8926 -0.5664
18494TIP3   OH276896   3.848   6.249   1.072 -0.0873  0.1270  0.1083
18494TIP3    H176897   3.855   6.183   1.141  1.6646 -0.0421 -0.1742
18494TIP3    H276898   3.837   6.332   1.119 -0.5049 -0.1663  0.5342
18495TIP3   OH276899   3.301   4.029   3.192  0.4101 -0.0294 -0.4582
18495TIP3    H176900   3.260   3.946   3.167 -0.1754  0.6491 -1.8454
18495TIP3    H276901   3.382   4.003   3.236  0.6635 -1.3464 -1.6159
18496TIP3   OH276902   3.595   2.875  14.464  0.5519 -0.3801 -0.2604
18496TIP3    H176903   3.613   2.956  14.512 -3.3596 -0.5744  1.9707
18496TIP3    H276904   3.572   2.904  14.375 -0.2526  0.9610  0.3503
18497TIP3   OH276905   4.808   1.186   5.657  0.1002 -0.2627  0.0325
18497TIP3    H176906   4.741   1.244   5.692 -0.5955 -0.5278 -0.8224
18497TIP3    H276907   4.888   1.239   5.657  0.0170 -0.0904  1.4798
18498TIP3   OH276908   0.114   3.724   4.698 -0.4921  0.4231  0.0970
18498TIP3    H176909   0.199   3.683   4.683 -0.0063  1.6142 -0.5521
18498TIP3    H276910   0.054   3.677   4.640 -0.5015 -1.0272  1.2177
18499TIP3   OH276911   5.945   0.605   3.352 -0.1026  0.0862 -0.2763
18499TIP3    H176912   5.898   0.645   3.279 -0.4421  1.7820  0.8183
18499TIP3    H276913   5.891   0.531   3.377  0.2893 -0.8658 -2.0372
18500TIP3   OH276914   3.825   1.240   3.117 -0.3765 -0.1727 -0.0299
18500TIP3    H176915   3.784   1.169   3.167  0.4079  0.4011  1.5171
18500TIP3    H276916   3.915   1.210   3.104 -0.3446  0.0605 -0.3479
18501TIP3   OH276917   0.093   1.077  14.358 -0.3409 -0.2051 -0.3680
18501TIP3    H176918   0.051   1.140  14.300 -0.3211  0.5657  0.4232
18501TIP3    H276919   0.115   1.128  14.436  0.9605 -0.8764 -0.2713
18502TIP3   OH276920   0.143   6.363  14.625 -0.4368  0.7684 -0.6886
18502TIP3    H176921   0.107   6.330  14.543 -4.4778 -1.3130  1.5926
18502TIP3    H276922   0.190   6.289  14.663 -0.9319  0.8229  0.0527
18503TIP3   OH276923   6.155   4.256  15.115 -0.3450 -0.5551  0.2038
18503TIP3    H176924   6.094   4.328  15.131 -1.9925 -2.0029  0.7721
18503TIP3    H276925   6.113   4.204  15.047  1.5597 -0.2103 -1.3285
18504TIP3   OH276926   3.267   3.490   5.850 -0.0174  0.8840 -0.2807
18504TIP3    H176927   3.205   3.543   5.801 -1.2073  0.6097  0.8686
18504TIP3    H276928   3.221   3.467   5.930  1.2579 -0.0818  0.2154
18505TIP3   OH276929   4.504   4.191   2.353  0.0314 -0.6696  0.0235
18505TIP3    H176930   4.458   4.111   2.327 -2.5615  0.8672 -0.5038
18505TIP3    H276931   4.507   4.244   2.273 -0.6934  0.8017  0.9194
18506TIP3   OH276932   4.433   6.008  15.429 -0.0526  0.5511 -0.5328
18506TIP3    H176933   4.423   6.059  15.509 -0.8797 -0.3704 -0.0238
18506TIP3    H276934   4.390   5.924  15.448  4.4593 -1.9683  0.1492
18507TIP3   OH276935   2.018   5.507   5.167  0.0738  0.1842  0.0589
18507TIP3    H176936   1.977   5.443   5.224  1.2250  0.3189  1.0685
18507TIP3    H276937   2.104   5.471   5.148 -1.1789 -1.3250 -4.0322
18508TIP3   OH276938   6.168   2.384  12.638 -0.1557 -0.8362  0.4869
18508TIP3    H176939   6.245   2.328  12.637 -0.5222 -1.3606 -0.4184
18508TIP3    H276940   6.183   2.446  12.709  1.0284 -1.0204  0.4145
18509TIP3   OH276941   5.476   4.429  14.861 -0.2935  0.8824  0.4551
18509TIP3    H176942   5.385   4.459  14.864 -0.3114  0.9641 -0.4709
18509TIP3    H276943   5.513   4.458  14.944 -1.0804  0.9457  0.7974
18510TIP3   OH276944   5.294   6.575   1.790  0.1672 -0.4236 -0.5203
18510TIP3    H176945   5.378   6.611   1.761 -0.1677 -1.7446 -3.4668
18510TIP3    H276946   5.314   6.531   1.872  1.7848  1.4133  0.1437
18511TIP3   OH276947   3.728   3.901   0.394 -0.0947  0.3308  0.4892
18511TIP3    H176948   3.778   3.932   0.470 -0.9771 -0.8203  1.5738
18511TIP3    H276949   3.638   3.928   0.413 -0.5799 -1.3032  0.6166
18512TIP3   OH276950   1.950   6.635  12.541  0.3882 -0.2596 -0.0001
18512TIP3    H176951   2.040   6.613  12.518  0.3149 -0.9382  0.3409
18512TIP3    H276952   1.955   6.724  12.576  1.1331 -0.7532  1.2131
18513TIP3   OH276953   1.822   6.478   1.478 -0.6727  0.5042 -0.2346
18513TIP3    H176954   1.860   6.565   1.488 -0.0126  0.1929  0.1098
18513TIP3    H276955   1.756   6.487   1.410 -1.6757  1.6072  0.8451
18514TIP3   OH276956   6.302   2.889   0.604  0.3089 -0.3016  0.0976
18514TIP3    H176957   6.338   2.804   0.581 -0.6513 -1.1764  1.6903
18514TIP3    H276958   6.232   2.903   0.540  1.3133 -0.0798 -0.9812
18515TIP3   OH276959   6.425   0.941   4.555 -0.6327  0.3422  0.4542
18515TIP3    H176960   6.515   0.910   4.565 -0.2379  0.9256 -0.9988
18515TIP3    H276961   6.370   0.867   4.580  0.2532 -0.3009  0.5238
18516TIP3   OH276962   2.680   3.587  11.298 -0.2665 -0.2577 -0.4127
18516TIP3    H176963   2.613   3.634  11.346  2.2340  1.6365  1.5117
18516TIP3    H276964   2.719   3.527  11.363 -0.1380 -1.3962 -1.4982
18517TIP3   OH276965   0.253   5.171   5.048 -0.1935  0.8355 -0.3357
18517TIP3    H176966   0.186   5.159   4.981 -0.3737  0.3366 -0.0687
18517TIP3    H276967   0.211   5.141   5.129  0.8353 -0.8759 -0.4025
18518TIP3   OH276968   1.761   1.449   4.169 -0.2205  0.0593  0.1875
18518TIP3    H176969   1.792   1.402   4.091 -0.9619 -0.2750  0.0856
18518TIP3    H276970   1.840   1.466   4.220  0.3297  0.6165 -0.8171
18519TIP3   OH276971   2.281   6.428   0.052 -0.1578  0.0567  0.2183
18519TIP3    H176972   2.335   6.434   0.131 -1.1815 -1.5614  1.1019
18519TIP3    H276973   2.197   6.392   0.083 -0.8283  0.0518 -1.5030
18520TIP3   OH276974   5.161   6.510   2.278 -0.2762 -0.0226  0.0585
18520TIP3    H176975   5.244   6.462   2.282 -1.0176 -1.5370 -1.4487
18520TIP3    H276976   5.120   6.494   2.363  0.2512 -0.6508  0.1981
18521TIP3   OH276977   6.448   1.313  15.285 -0.2101 -0.4958  0.2319
18521TIP3    H176978   6.515   1.372  15.322  1.6901 -2.2490 -0.2318
18521TIP3    H276979   6.498   1.254  15.228 -2.4242 -0.8072 -1.5040
18522TIP3   OH276980   0.878   0.241  13.107  0.1599  0.3965 -0.1186
18522TIP3    H176981   0.798   0.257  13.157 -2.0294  0.1953 -3.2563
18522TIP3    H276982   0.868   0.152  13.074  1.1164  0.7673 -1.5129
18523TIP3   OH276983   5.929   4.944   1.779 -0.4411 -0.1045 -0.4112
18523TIP3    H176984   5.937   4.987   1.864  0.3043  0.3511 -0.6962
18523TIP3    H276985   5.894   4.857   1.798 -1.4518  0.4270  0.2302
18524TIP3   OH276986   6.057   5.204  12.855  0.1301 -0.3080 -0.2959
18524TIP3    H176987   6.009   5.133  12.812  2.4063 -0.9549 -1.9740
18524TIP3    H276988   6.131   5.160  12.897  0.8554  0.9452 -0.2389
18525TIP3   OH276989   1.542   3.947  12.778 -0.2197 -0.6601 -0.0512
18525TIP3    H176990   1.457   3.937  12.821 -0.2011 -0.4592  0.0360
18525TIP3    H276991   1.604   3.955  12.850  0.0032 -1.7574 -0.1044
18526TIP3   OH276992   6.547   0.111  15.069 -0.0744 -0.2504  0.2802
18526TIP3    H176993   6.454   0.121  15.087 -0.3221 -2.6326  0.7461
18526TIP3    H276994   6.591   0.154  15.142 -0.7943  0.9821  0.0010
18527TIP3   OH276995   3.073   1.935   3.938 -0.4304 -0.1393  0.6515
18527TIP3    H176996   3.084   1.927   3.843 -0.3867 -0.0797  0.6522
18527TIP3    H276997   3.079   1.845   3.970 -0.4163 -0.1563  0.6013
18528TIP3   OH276998   3.384   2.740   3.971  0.6392  0.1162  0.3251
18528TIP3    H176999   3.343   2.793   4.039  1.2644 -1.2539  1.8399
18528TIP3    H277000   3.330   2.755   3.893  0.4709  2.4799  0.8222
18529TIP3   OH277001   0.648   3.146   0.018 -0.3321  0.4032 -0.5294
18529TIP3    H177002   0.612   3.171  -0.066  0.0026  1.3390 -0.4029
18529TIP3    H277003   0.587   3.182   0.082 -0.5947 -0.3164 -0.3557
18530TIP3   OH277004   4.542   1.675   5.204  0.5573  0.1891 -0.1746
18530TIP3    H177005   4.550   1.580   5.194 -0.8621  0.1510 -1.2858
18530TIP3    H277006   4.455   1.687   5.243  0.2633  1.0588 -1.0602
18531TIP3   OH277007   0.378   5.255  13.591  0.4119  0.7059 -0.2852
18531TIP3    H177008   0.373   5.350  13.588 -0.2219  0.6611 -0.8048
18531TIP3    H277009   0.319   5.230  13.662  1.4412  0.7465  0.6213
18532TIP3   OH277010   2.433   3.115  12.320 -0.2312 -0.3040 -0.3836
18532TIP3    H177011   2.380   3.038  12.297  0.2773 -1.5103  2.0822
18532TIP3    H277012   2.369   3.180  12.348 -0.5582 -1.1944  1.0578
18533TIP3   OH277013   3.555   0.134  13.263 -0.7955  0.2604  0.3697
18533TIP3    H177014   3.549   0.079  13.185  1.6705 -0.5142  0.6552
18533TIP3    H277015   3.515   0.217  13.237  0.6288  0.2980 -1.9977
18534TIP3   OH277016   6.173   6.636   1.059  0.7941  0.3541  0.0418
18534TIP3    H177017   6.092   6.686   1.073 -0.2848 -1.1247 -0.7097
18534TIP3    H277018   6.192   6.647   0.965  2.6385  2.3237  0.5537
18535TIP3   OH277019   3.131   3.455   2.190  0.1992  0.1154 -0.1185
18535TIP3    H177020   3.134   3.372   2.141 -1.2170 -0.6344  0.9748
18535TIP3    H277021   3.192   3.512   2.144  1.0108 -1.4415 -1.0820
18536TIP3   OH277022   3.713   5.068  11.092  0.3723  0.7771 -0.6398
18536TIP3    H177023   3.794   5.044  11.048  0.8251  0.1091  0.5037
18536TIP3    H277024   3.655   5.098  11.022  0.4887 -1.7406 -1.9347
18537TIP3   OH277025   3.280   5.097   0.627  0.5001 -0.1251 -0.0931
18537TIP3    H177026   3.213   5.028   0.631  0.8033 -0.3715  1.8675
18537TIP3    H277027   3.312   5.104   0.717  1.4762  1.6126 -0.5302
18538TIP3   OH277028   3.245   1.052   2.674  0.1404 -0.5915  0.6655
18538TIP3    H177029   3.258   1.097   2.757  0.9766 -0.2315  0.3496
18538TIP3    H277030   3.332   1.022   2.648  0.5181  1.9612 -1.5500
18539TIP3   OH277031   5.757   0.907  14.952  0.9926 -0.4271 -0.2675
18539TIP3    H177032   5.779   0.999  14.937 -0.4488  0.0324  0.2516
18539TIP3    H277033   5.777   0.892  15.045  0.3730 -0.3665 -0.1191
18540TIP3   OH277034   3.243   2.299   3.794  0.0851  0.0398 -0.2914
18540TIP3    H177035   3.310   2.365   3.774  0.4627  0.1295  1.1291
18540TIP3    H277036   3.166   2.350   3.820 -0.0827 -0.0704 -0.5738
18541TIP3   OH277037   6.453   0.838   5.310  0.1547 -0.3004 -0.1604
18541TIP3    H177038   6.474   0.824   5.402 -0.0716  0.3542  0.0024
18541TIP3    H277039   6.521   0.899   5.279 -0.2231  0.1039 -0.2077
18542TIP3   OH277040   5.475   4.978  16.126 -0.0289 -0.3178  0.2900
18542TIP3    H177041   5.456   4.927  16.204  0.1862 -0.7961  0.0365
18542TIP3    H277042   5.567   4.959  16.107  0.0001  0.0199  0.0909
18543TIP3   OH277043   0.078   4.254   6.237 -0.2250  0.0251 -0.1322
18543TIP3    H177044  -0.016   4.262   6.220 -0.1617 -1.2096 -1.3039
18543TIP3    H277045   0.101   4.168   6.200  1.3969  0.3841 -0.0240
18544TIP3   OH277046   5.964   0.500   5.237 -0.2229  0.2090  0.7782
18544TIP3    H177047   5.965   0.405   5.221 -2.3147  0.1497  0.7479
18544TIP3    H277048   5.909   0.510   5.315 -1.1675  1.4871 -0.0221
18545TIP3   OH277049   1.918   1.823   5.207  0.5742 -0.4521 -0.1610
18545TIP3    H177050   1.882   1.776   5.132 -0.5994 -0.0205  0.1008
18545TIP3    H277051   1.848   1.884   5.232  1.9732  1.3199 -0.3801
18546TIP3   OH277052   6.099   1.672  14.850  0.4126  0.3769  0.4019
18546TIP3    H177053   6.034   1.692  14.918  0.8883  2.2802  0.3592
18546TIP3    H277054   6.085   1.740  14.784  1.1201 -0.4106 -0.5805
18547TIP3   OH277055   2.586   3.032   3.195  0.9089  0.3491 -0.2285
18547TIP3    H177056   2.637   3.072   3.266 -1.8101  0.0149  2.0758
18547TIP3    H277057   2.527   3.102   3.166 -1.2272 -0.7530  1.1874
18548TIP3   OH277058   2.973   3.543   3.736  0.2336 -0.2966 -0.3940
18548TIP3    H177059   3.065   3.566   3.720  0.0059 -0.4506 -2.1245
18548TIP3    H277060   2.950   3.485   3.663 -0.4377 -2.6168  1.5415
18549TIP3   OH277061   0.156   4.999  13.330  0.0698 -0.1351  0.2377
18549TIP3    H177062   0.193   4.914  13.304  2.0861  0.5414  0.7167
18549TIP3    H277063   0.228   5.061  13.317 -1.9774  1.9449 -2.2212
18550TIP3   OH277064   1.532   2.572  14.814 -0.5033  0.1632 -0.0242
18550TIP3    H177065   1.590   2.633  14.859 -1.2215 -0.0092  1.1746
18550TIP3    H277066   1.451   2.621  14.799 -1.4021 -0.6840  1.7189
18551TIP3   OH277067   0.985   1.678   1.850 -0.1254 -0.2073  0.2497
18551TIP3    H177068   1.037   1.748   1.810 -1.7511  0.8133 -0.1803
18551TIP3    H277069   0.896   1.712   1.850 -0.7365 -1.7181  1.3790
18552TIP3   OH277070   2.587   1.485  16.211 -0.2992  0.2986 -0.6383
18552TIP3    H177071   2.615   1.528  16.130 -0.3872 -0.9226 -1.3291
18552TIP3    H277072   2.529   1.414  16.183  0.9559 -1.1926  0.3589
18553TIP3   OH277073   0.437   0.234   3.019  0.0069 -0.3489 -0.6891
18553TIP3    H177074   0.432   0.206   2.928  1.4344  1.1046 -1.2515
18553TIP3    H277075   0.482   0.318   3.016 -0.2425 -0.0989  1.3338
18554TIP3   OH277076   2.413   4.820   0.157 -0.3327  0.1695  0.2073
18554TIP3    H177077   2.396   4.777   0.073 -1.7129  1.3842 -0.1747
18554TIP3    H277078   2.423   4.747   0.219 -0.2244 -0.7329 -0.8325
18555TIP3   OH277079   0.644   0.769   3.115 -0.6009 -0.0857  0.4831
18555TIP3    H177080   0.558   0.776   3.158  0.4250  1.2677  2.4958
18555TIP3    H277081   0.674   0.681   3.137 -2.3204 -1.4491 -2.1285
18556TIP3   OH277082   5.135   4.217   2.853 -0.3968 -0.2945 -0.4390
18556TIP3    H177083   5.202   4.266   2.805 -0.3962 -1.4277 -1.6607
18556TIP3    H277084   5.183   4.162   2.914 -0.2980 -0.1629 -0.3978
18557TIP3   OH277085   0.502   0.016   5.268  0.3573 -0.0891 -0.3839
18557TIP3    H177086   0.443   0.041   5.198  0.1037  1.1907  0.2576
18557TIP3    H277087   0.587   0.053   5.244  0.3022  0.2354 -0.0853
18558TIP3   OH277088   3.861   5.072  17.265 -0.3057 -0.6089  0.3025
18558TIP3    H177089   3.925   5.005  17.288  1.3601  0.8469  0.0694
18558TIP3    H277090   3.889   5.150  17.312  0.4494  1.1428 -2.7475
18559TIP3   OH277091   6.445   3.824   2.533 -0.0694 -0.1989  0.3984
18559TIP3    H177092   6.365   3.771   2.528  0.4992 -0.9700 -0.8624
18559TIP3    H277093   6.516   3.761   2.531  0.6067  0.4737  1.7438
18560TIP3   OH277094   2.560   5.292  15.961 -0.4954  0.2452 -0.1491
18560TIP3    H177095   2.579   5.283  16.054  0.0569  1.4750 -0.1253
18560TIP3    H277096   2.496   5.362  15.956 -0.0874  0.5863 -0.7332
18561TIP3   OH277097   1.085   5.873   1.716 -0.4677 -0.3234  0.5646
18561TIP3    H177098   1.019   5.940   1.700  0.7431  0.4905 -1.5787
18561TIP3    H277099   1.152   5.917   1.768  0.7134  0.5182 -1.5112
18562TIP3   OH277100   1.620   5.068   0.234  0.0033  0.5590  0.2219
18562TIP3    H177101   1.711   5.093   0.219  0.2506  0.4822  1.4694
18562TIP3    H277102   1.571   5.111   0.164  1.2022 -1.0264 -1.7303
18563TIP3   OH277103   1.955   5.479  12.670 -0.1795 -0.8763  0.2531
18563TIP3    H177104   2.027   5.442  12.619 -1.2490 -0.3491 -1.7718
18563TIP3    H277105   1.981   5.570  12.684 -0.5826 -0.5828 -0.8089
18564TIP3   OH277106   6.002   3.825  16.218  0.3934 -0.6646  0.4092
18564TIP3    H177107   6.033   3.777  16.141  0.9964 -2.0188  1.4564
18564TIP3    H277108   5.920   3.781  16.242  0.7473 -0.9374  1.1472
18565TIP3   OH277109   5.103   4.258   3.278 -0.0246 -0.0465 -0.4510
18565TIP3    H177110   5.073   4.324   3.216  1.1291  0.7343 -0.2090
18565TIP3    H277111   5.023   4.215   3.309 -0.7850  1.1226 -0.7400
18566TIP3   OH277112   4.062   0.587   4.953 -0.7646  1.0109  0.0222
18566TIP3    H177113   4.106   0.649   4.895 -0.1211  0.5570  0.0106
18566TIP3    H277114   3.972   0.583   4.920 -0.3997  0.7350 -0.9788
18567TIP3   OH277115   3.853   3.186  13.040 -0.3810 -0.2124  0.4451
18567TIP3    H177116   3.944   3.178  13.009  0.1725  0.7314  1.7407
18567TIP3    H277117   3.856   3.154  13.130 -1.0715  0.9435  0.9003
18568TIP3   OH277118   1.272   2.761   0.862  0.1680  0.3090  0.1404
18568TIP3    H177119   1.227   2.818   0.924  0.1237  1.1947 -0.6847
18568TIP3    H277120   1.327   2.705   0.917 -2.6374 -1.5747  1.3122
18569TIP3   OH277121   0.495   3.145  12.547  0.8597 -0.6747  0.2243
18569TIP3    H177122   0.427   3.203  12.512  1.0813  1.2395  2.7236
18569TIP3    H277123   0.459   3.056  12.534 -0.6714  0.0960 -1.3230
18570TIP3   OH277124   2.154   6.760   0.457  0.2634  0.1376 -0.2623
18570TIP3    H177125   2.111   6.698   0.398  2.0634 -1.6793  0.2059
18570TIP3    H277126   2.160   6.713   0.541  0.4634  1.4911  0.5036
18571TIP3   OH277127   1.560   3.603   1.748  0.4725 -0.1715 -0.2874
18571TIP3    H177128   1.498   3.651   1.693  0.7119  0.3549 -0.1018
18571TIP3    H277129   1.599   3.670   1.804  2.0142 -0.2883 -1.1586
18572TIP3   OH277130   0.438   4.765   3.435  0.3003 -0.6713 -0.4278
18572TIP3    H177131   0.514   4.809   3.472  0.7649 -1.4689 -0.3999
18572TIP3    H277132   0.407   4.707   3.505 -1.5786  1.0857  0.2928
18573TIP3   OH277133   1.140   1.032   4.190  0.2082  0.4079 -0.0459
18573TIP3    H177134   1.164   1.056   4.280  0.0105  0.5172 -0.0221
18573TIP3    H277135   1.224   1.019   4.146  0.4192 -2.7361  0.9568
18574TIP3   OH277136   4.890   0.017   1.827 -0.1505 -0.1212  0.3206
18574TIP3    H177137   4.799   0.034   1.851  0.0213 -1.0789  1.7248
18574TIP3    H277138   4.932   0.103   1.830 -1.1315  0.4582 -1.0779
18575TIP3   OH277139   6.335   3.265   2.039 -0.6102 -0.6151  0.5384
18575TIP3    H177140   6.269   3.311   1.987 -0.6055  0.0258  1.0739
18575TIP3    H277141   6.407   3.328   2.046 -0.9279 -0.3781  1.9622
18576TIP3   OH277142   6.272   3.814   3.765  0.3231  0.1133 -0.4231
18576TIP3    H177143   6.266   3.838   3.857  1.9184  1.7901 -0.6817
18576TIP3    H277144   6.192   3.765   3.747 -0.6930  0.9531  1.5126
18577TIP3   OH277145   1.523   2.895   4.357  0.0415  0.5768  0.7409
18577TIP3    H177146   1.593   2.945   4.314 -2.0973  1.8858 -1.4643
18577TIP3    H277147   1.458   2.961   4.380 -0.4366 -0.5808  2.9689
18578TIP3   OH277148   3.832   4.099   2.466 -0.6421 -0.3650  0.2042
18578TIP3    H177149   3.800   4.185   2.439 -1.0313 -0.6108 -0.1363
18578TIP3    H277150   3.817   4.043   2.390  2.4733 -0.0554 -0.7526
18579TIP3   OH277151   6.633   2.997  14.150 -0.1088  0.1648  0.0619
18579TIP3    H177152   6.636   2.913  14.102  2.0727 -0.2088  0.7141
18579TIP3    H277153   6.580   3.054  14.095  1.1907 -0.6401 -2.1994
18580TIP3   OH277154   1.054   3.192  15.110  0.3040 -0.0555  0.2275
18580TIP3    H177155   1.070   3.254  15.181 -0.5558 -0.5734  0.8824
18580TIP3    H277156   1.142   3.161  15.085  0.9392  2.6667 -1.2912
18581TIP3   OH277157   0.763   3.493  14.251 -0.2429 -0.1478  0.1731
18581TIP3    H177158   0.740   3.401  14.239  0.7999 -0.3964 -0.0402
18581TIP3    H277159   0.679   3.537  14.264 -0.7781 -1.0860  0.0168
18582TIP3   OH277160   0.655   6.353  14.202 -0.1518 -0.2161  0.1634
18582TIP3    H177161   0.661   6.292  14.276 -0.1212 -0.1457  0.2188
18582TIP3    H277162   0.588   6.315  14.145 -1.2371  0.4860  0.9377
18583TIP3   OH277163   2.341   1.705   2.104 -0.5153 -0.0393  0.0950
18583TIP3    H177164   2.263   1.690   2.157 -0.9874 -0.5622 -0.7301
18583TIP3    H277165   2.317   1.676   2.016  0.8753 -0.9678 -0.0085
18584TIP3   OH277166   0.747   0.113  14.947  0.1967  0.1913 -0.1536
18584TIP3    H177167   0.790   0.198  14.944  2.1762 -0.7721 -0.6924
18584TIP3    H277168   0.766   0.079  15.035  1.0791 -0.4678 -0.5767
18585TIP3   OH277169   6.695   2.387  17.235  1.0434  0.2989 -0.6604
18585TIP3    H177170   6.647   2.305  17.232  0.7323  0.5216 -2.2016
18585TIP3    H277171   6.770   2.373  17.178  2.1278  0.4133  0.6718
18586TIP3   OH277172   1.266   2.194   4.329  0.8074 -0.3019 -0.3212
18586TIP3    H177173   1.308   2.280   4.328 -3.0521  1.7962 -0.2028
18586TIP3    H277174   1.215   2.193   4.410 -1.9777 -1.1354 -1.9513
18587TIP3   OH277175   5.820   1.352  15.186  0.1701  0.1190  0.3822
18587TIP3    H177176   5.900   1.312  15.219  0.0149  0.1098  0.7520
18587TIP3    H277177   5.750   1.317  15.242 -0.3931 -1.5178 -1.2403
18588TIP3   OH277178   1.812   0.066  16.058  0.1288 -0.0854  0.4705
18588TIP3    H177179   1.868   0.002  16.102  1.6977  1.3490  0.6419
18588TIP3    H277180   1.841   0.151  16.091 -1.8460  0.7601  0.1986
18589TIP3   OH277181   5.818   4.699   1.533 -0.0611  0.6598 -0.4204
18589TIP3    H177182   5.781   4.615   1.559 -0.4106  0.8596 -0.2605
18589TIP3    H277183   5.904   4.702   1.574 -0.8997  1.2968  1.3854
18590TIP3   OH277184   0.870   2.169   0.933  0.0830 -0.1915  0.0331
18590TIP3    H177185   0.852   2.111   0.859  0.2642 -0.1888 -0.0138
18590TIP3    H277186   0.964   2.159   0.949  0.1008  0.0305  0.0736
18591TIP3   OH277187   4.556   4.652  11.981 -0.2290 -0.0855 -0.1015
18591TIP3    H177188   4.641   4.610  11.987  0.6470  1.1503 -2.4869
18591TIP3    H277189   4.546   4.673  11.888 -2.6787  0.7441  0.2714
18592TIP3   OH277190   0.705   6.434   6.615 -0.2255  0.3941 -0.3105
18592TIP3    H177191   0.751   6.518   6.624 -2.1888  1.6272 -1.0288
18592TIP3    H277192   0.624   6.446   6.664 -0.0932 -1.4891  0.4358
18593TIP3   OH277193   6.107   2.675  11.289  0.1488  0.0548  0.4105
18593TIP3    H177194   6.151   2.711  11.366  1.2041  1.5324 -0.8181
18593TIP3    H277195   6.176   2.666  11.224 -0.6764 -1.4270 -0.3000
18594TIP3   OH277196   1.650   4.114   4.406  0.8535 -0.7691  0.2652
18594TIP3    H177197   1.635   4.121   4.312  0.5577  3.0267  0.4208
18594TIP3    H277198   1.743   4.137   4.416  0.5477  0.2330  0.9394
18595TIP3   OH277199   0.317   5.437  12.527 -0.2204  0.5241  0.4068
18595TIP3    H177200   0.305   5.378  12.602 -0.4141 -0.6315 -0.5172
18595TIP3    H277201   0.409   5.463  12.532  0.3660 -1.2920 -0.1785
18596TIP3   OH277202   4.846   5.894   0.554 -0.6559 -0.0394 -0.0678
18596TIP3    H177203   4.782   5.884   0.483 -1.1714 -2.6794  0.6260
18596TIP3    H277204   4.903   5.818   0.545 -0.1977  0.0352  1.7924
18597TIP3   OH277205   1.092   5.177  14.970  0.5045 -0.1821 -0.4759
18597TIP3    H177206   1.074   5.236  14.897  0.2242 -0.2299 -0.4429
18597TIP3    H277207   1.023   5.111  14.967  1.4640 -1.2031 -1.2263
18598TIP3   OH277208   5.846   5.705   5.147 -0.2220  0.5145  0.1991
18598TIP3    H177209   5.904   5.638   5.113 -0.4919  0.9342 -1.1578
18598TIP3    H277210   5.785   5.658   5.203  0.0308 -0.2673 -0.1703
18599TIP3   OH277211   1.191   4.349  12.824  0.4812  0.1379  0.3467
18599TIP3    H177212   1.191   4.371  12.730  1.2503 -1.8623 -0.1802
18599TIP3    H277213   1.101   4.321  12.842  0.3410  0.4851  0.1964
18600TIP3   OH277214   1.181   5.621  13.654 -0.5195 -0.0401  0.5618
18600TIP3    H177215   1.168   5.652  13.744 -1.6447  0.6978  0.1623
18600TIP3    H277216   1.159   5.696  13.599 -0.3592 -0.6483 -0.3583
18601TIP3   OH277217   5.388   1.077   5.586 -0.1278  0.1065 -0.4039
18601TIP3    H177218   5.397   1.164   5.623  1.2208  1.3849 -3.4168
18601TIP3    H277219   5.421   1.018   5.654  0.1801  2.0362  1.2061
18602TIP3   OH277220   4.212   3.573  11.427 -0.1064  0.2970 -0.1560
18602TIP3    H177221   4.202   3.609  11.339 -0.9814 -0.4991 -0.3943
18602TIP3    H277222   4.300   3.598  11.453  0.6885 -0.6339 -1.8052
18603TIP3   OH277223   3.452   2.542   2.919 -0.1086 -0.1189  0.1697
18603TIP3    H177224   3.375   2.492   2.892  0.2661 -0.0978 -0.9926
18603TIP3    H277225   3.518   2.524   2.852  1.3308 -1.0969  1.7618
18604TIP3   OH277226   2.066   5.794  13.253  0.3167  0.5490  0.6863
18604TIP3    H177227   2.145   5.784  13.199  0.2456 -0.9767  0.8305
18604TIP3    H277228   2.004   5.731  13.217 -1.1303  2.2218  0.1201
18605TIP3   OH277229   3.213   0.376  15.596 -0.5998 -0.5324  0.1115
18605TIP3    H177230   3.153   0.432  15.645 -0.3723  2.3209 -2.5093
18605TIP3    H277231   3.194   0.396  15.504  3.0322 -0.9088 -0.8878
18606TIP3   OH277232   4.252   5.650  10.771 -0.0301  0.4194 -0.2804
18606TIP3    H177233   4.169   5.608  10.748  0.5227 -2.2815  2.1656
18606TIP3    H277234   4.319   5.584  10.750  1.3518  1.8170 -0.4568
18607TIP3   OH277235   5.738   4.206  14.211  0.5960 -0.4736 -0.1955
18607TIP3    H177236   5.762   4.191  14.119  2.9001  1.8850 -0.0967
18607TIP3    H277237   5.821   4.226  14.254 -0.8263  1.8784  1.6563
18608TIP3   OH277238   3.365   0.844  14.682 -0.1416 -0.0133 -0.4896
18608TIP3    H177239   3.393   0.912  14.743  1.9752 -1.0855 -0.1737
18608TIP3    H277240   3.271   0.832  14.700  0.0242  1.0172  1.2101
18609TIP3   OH277241   4.023   0.069  13.988  1.3299  0.2952 -0.0116
18609TIP3    H177242   4.032   0.014  14.065  2.5869 -0.3604 -0.5943
18609TIP3    H277243   4.024   0.158  14.022  1.6708  0.0117  0.7461
18610TIP3   OH277244   3.549   5.957  13.598  0.4790 -0.0189  0.3033
18610TIP3    H177245   3.459   5.969  13.629  0.5507  0.0326  0.4942
18610TIP3    H277246   3.540   5.921  13.510  0.2613  0.6729  0.0349
18611TIP3   OH277247   4.631   4.135   2.935 -0.4909 -0.1216 -0.4366
18611TIP3    H177248   4.652   4.219   2.976  2.0646 -0.6827 -0.4209
18611TIP3    H277249   4.536   4.135   2.927 -0.7549  1.7258  1.7925
18612TIP3   OH277250   3.187   5.780   3.657  0.1044  0.6595  0.5747
18612TIP3    H177251   3.188   5.698   3.608 -0.8844  1.5297 -0.9885
18612TIP3    H277252   3.098   5.785   3.693 -0.1771  1.5154 -0.2067
18613TIP3   OH277253   3.390   4.259   2.364  0.1192  0.1680  0.6395
18613TIP3    H177254   3.316   4.219   2.409 -0.8871  0.5226 -0.6378
18613TIP3    H277255   3.426   4.321   2.428 -3.2658  3.1026  0.0688
18614TIP3   OH277256   2.753   2.557   2.011  0.5267 -0.2035  0.3234
18614TIP3    H177257   2.665   2.520   2.002  0.7870 -0.8403  0.3523
18614TIP3    H277258   2.758   2.584   2.103 -0.0676  0.9748  0.0323
18615TIP3   OH277259   4.958   0.283   1.351  0.5891 -0.1445  0.4223
18615TIP3    H177260   5.013   0.307   1.425  0.5587  1.8256 -0.1465
18615TIP3    H277261   4.933   0.192   1.368  0.7142  0.2023  2.7405
18616TIP3   OH277262   4.111   2.444   4.109 -0.2394 -0.4498  0.7701
18616TIP3    H177263   4.125   2.510   4.178  0.7709 -0.0288  0.1916
18616TIP3    H277264   4.112   2.360   4.155  0.0586 -0.1508  1.3173
18617TIP3   OH277265   4.397   2.283   5.805  0.4120  0.2604 -0.4809
18617TIP3    H177266   4.490   2.266   5.820 -0.0079 -0.6248  1.3385
18617TIP3    H277267   4.378   2.362   5.855  0.3905  1.1018 -1.7588
18618TIP3   OH277268   1.033   1.343  10.560 -0.1925  0.0587  0.3686
18618TIP3    H177269   1.078   1.373  10.639  0.1361  0.6602 -0.0412
18618TIP3    H277270   0.954   1.301  10.593  0.3070 -0.3766  1.0607
18619TIP3   OH277271   4.680   6.622  13.141  0.3191  0.4574  0.0107
18619TIP3    H177272   4.650   6.618  13.232  0.3600 -1.1038 -0.0291
18619TIP3    H277273   4.617   6.570  13.092  0.9514  0.3230 -0.6741
18620TIP3   OH277274   2.091   0.088  11.681 -0.1851  0.4662  0.0231
18620TIP3    H177275   2.113   0.180  11.694  0.8384  0.1853  0.3965
18620TIP3    H277276   2.153   0.058  11.614  0.4878 -0.3108  0.9684
18621TIP3   OH277277   4.523   1.441   5.480  0.0225 -0.4343  0.0648
18621TIP3    H177278   4.599   1.495   5.501 -1.5067  1.5908  0.7733
18621TIP3    H277279   4.528   1.428   5.385  0.9572  0.1589  0.0252
18622TIP3   OH277280   2.475   1.119   1.925  0.1669 -0.0211 -0.2370
18622TIP3    H177281   2.502   1.133   2.016 -1.3215  1.2140  0.0430
18622TIP3    H277282   2.392   1.073   1.932  0.0049  0.1586 -0.9707
18623TIP3   OH277283   5.573   5.585   3.668 -0.1067  0.1821 -0.2993
18623TIP3    H177284   5.543   5.612   3.755 -1.3236  0.6965 -0.8622
18623TIP3    H277285   5.585   5.490   3.675 -1.1116  0.0793  0.1812
18624TIP3   OH277286   0.754   2.143  15.149  0.2124  0.0722  0.1479
18624TIP3    H177287   0.704   2.062  15.156  1.2792 -0.5470  1.1775
18624TIP3    H277288   0.734   2.177  15.062 -3.6513  1.0341  1.2327
18625TIP3   OH277289   2.463   2.305   5.823 -0.1892 -0.1180  0.5211
18625TIP3    H177290   2.384   2.253   5.811 -0.9239  0.7477  1.4532
18625TIP3    H277291   2.479   2.305   5.917  0.2727  0.6366  0.4560
18626TIP3   OH277292   2.669   6.224  12.373  0.1683  0.0627  0.0250
18626TIP3    H177293   2.625   6.241  12.291  0.5716 -0.4813 -0.3130
18626TIP3    H277294   2.626   6.146  12.408  0.5657 -0.2152 -0.0957
18627TIP3   OH277295   4.608   6.031  11.957  0.1828 -0.7914  0.0061
18627TIP3    H177296   4.681   6.000  12.010 -0.0208  1.3216  1.6611
18627TIP3    H277297   4.626   6.124  11.945 -1.2374 -0.6507 -1.2721
18628TIP3   OH277298   0.931   1.045  16.436  0.0158  0.4595 -0.4890
18628TIP3    H177299   0.882   1.123  16.412  1.6731  1.3486 -1.0884
18628TIP3    H277300   0.901   1.024  16.525 -1.5495  0.8503 -0.8988
18629TIP3   OH277301   3.533   0.951   0.839  0.4146 -0.0877 -0.0408
18629TIP3    H177302   3.533   0.965   0.744  1.2177  1.4060  0.1422
18629TIP3    H277303   3.501   1.034   0.875 -0.9719 -1.0092  0.9811
18630TIP3   OH277304   4.073   6.046   2.946 -0.1948 -0.2990  0.0625
18630TIP3    H177305   4.083   6.117   3.008 -0.0508  0.5107 -0.8649
18630TIP3    H277306   4.014   6.081   2.879 -0.8437 -1.3623  0.0456
18631TIP3   OH277307   1.979   3.184   2.525 -0.3202  0.2344  0.1047
18631TIP3    H177308   2.008   3.276   2.530 -0.5182  0.4473 -1.9470
18631TIP3    H277309   1.888   3.186   2.556 -0.4013  0.7711 -0.1592
18632TIP3   OH277310   0.687   3.854  15.172 -0.1840  0.6925 -0.8892
18632TIP3    H177311   0.674   3.801  15.092 -0.1639  1.1010 -1.1646
18632TIP3    H277312   0.633   3.810  15.238  0.9019 -0.4837 -0.7464
18633TIP3   OH277313   6.339   1.756   2.092  0.0833 -0.5771 -0.2145
18633TIP3    H177314   6.391   1.802   2.158 -1.8218  1.4046  0.0433
18633TIP3    H277315   6.386   1.675   2.076  3.2203  1.0371  0.0024
18634TIP3   OH277316   2.957   4.285  15.798 -0.0423 -0.0125  0.0173
18634TIP3    H177317   2.920   4.251  15.880 -0.2734 -0.6962 -0.3635
18634TIP3    H277318   2.946   4.379  15.805 -0.9845 -0.1319  0.3366
18635TIP3   OH277319   5.860   1.795  14.463 -0.4093 -0.1838  0.0039
18635TIP3    H177320   5.850   1.890  14.457 -0.5946 -0.1064  1.2155
18635TIP3    H277321   5.785   1.766  14.514  0.9368 -0.6519  1.8374
18636TIP3   OH277322   6.255   5.177  15.300 -0.3791 -0.0313  0.3049
18636TIP3    H177323   6.278   5.145  15.388 -0.6853 -1.6677 -0.1663
18636TIP3    H277324   6.338   5.199  15.260  0.0074 -1.5604  0.1978
18637TIP3   OH277325   6.715   4.182  14.574 -0.0928 -0.0291  0.1318
18637TIP3    H177326   6.624   4.212  14.581 -0.9022 -1.9318 -1.2240
18637TIP3    H277327   6.733   4.184  14.480  0.3992 -1.9975  0.1559
18638TIP3   OH277328   0.907   0.629   4.367  0.3545  0.0580 -0.1730
18638TIP3    H177329   0.916   0.665   4.278 -0.1439  0.0413 -0.2348
18638TIP3    H277330   0.817   0.651   4.392  0.8559  1.0848  0.7879
18639TIP3   OH277331   0.799   2.789   3.024  0.0647 -0.0914  0.0441
18639TIP3    H177332   0.776   2.708   3.070 -1.7516  0.0713 -0.4972
18639TIP3    H277333   0.876   2.821   3.069 -0.8437 -0.6561  2.1217
18640TIP3   OH277334   5.657   0.229   2.599  0.2930  0.5537  0.2125
18640TIP3    H177335   5.720   0.293   2.635  0.9234  2.0649 -3.1130
18640TIP3    H277336   5.618   0.275   2.524 -1.7605 -1.8557 -0.3059
18641TIP3   OH277337   2.656   5.189  16.214 -0.3829  0.4912 -0.1898
18641TIP3    H177338   2.652   5.170  16.308 -3.1888  1.0705 -0.1055
18641TIP3    H277339   2.638   5.105  16.172  1.2635  0.1482 -0.2624
18642TIP3   OH277340   0.310   4.366  13.540  0.0739  0.1399  0.5419
18642TIP3    H177341   0.324   4.287  13.591  0.0306 -0.0723  0.2293
18642TIP3    H277342   0.366   4.355  13.463  0.5025  0.6695  0.7662
18643TIP3   OH277343   4.386   2.209  15.326  0.3094  0.1247  0.3489
18643TIP3    H177344   4.457   2.204  15.261 -0.7120  0.6220 -0.8464
18643TIP3    H277345   4.363   2.118  15.343  1.2746 -0.0466  0.8125
18644TIP3   OH277346   1.185   1.711  12.003 -0.4473 -0.0829 -0.3271
18644TIP3    H177347   1.247   1.741  12.069 -1.5576  0.7268  0.3722
18644TIP3    H277348   1.240   1.687  11.928  0.7873 -0.5192  0.6920
18645TIP3   OH277349   1.202   2.564  11.557 -0.0277  0.1523  0.0910
18645TIP3    H177350   1.219   2.518  11.475 -0.4269 -0.4451  0.3297
18645TIP3    H277351   1.188   2.493  11.621 -0.3610  0.6119  0.5316
18646TIP3   OH277352   0.473   0.176  13.625  0.1116 -0.3822 -0.0520
18646TIP3    H177353   0.485   0.084  13.604 -0.8588 -0.8880  1.4487
18646TIP3    H277354   0.393   0.201  13.580 -0.4303 -0.6994  0.7077
18647TIP3   OH277355   0.915   4.160  11.343  0.1990 -0.2588 -0.2555
18647TIP3    H177356   0.980   4.229  11.333 -0.6794  0.6020 -0.2040
18647TIP3    H277357   0.832   4.206  11.352 -0.3012 -1.2921  0.7512
18648TIP3   OH277358   0.071   2.593  16.287 -0.5064 -0.1783  0.3830
18648TIP3    H177359   0.108   2.655  16.225 -0.7374  0.1737  0.5901
18648TIP3    H277360  -0.023   2.610  16.285 -0.6081 -0.7258  0.2272
18649TIP3   OH277361   6.624   1.683  13.375  0.1093 -0.2708 -0.3341
18649TIP3    H177362   6.703   1.631  13.361 -0.4996 -1.0266 -1.0641
18649TIP3    H277363   6.559   1.644  13.316 -0.5439  0.9166 -0.4330
18650TIP3   OH277364   2.162   5.214   2.491  0.2944  0.0484  0.2620
18650TIP3    H177365   2.068   5.223   2.501  0.4364  0.2907  1.5773
18650TIP3    H277366   2.178   5.224   2.397 -0.9524  0.3011  0.0702
18651TIP3   OH277367   5.568   5.602  13.145 -0.4826 -0.3107 -0.2650
18651TIP3    H177368   5.482   5.562  13.131 -0.7370  0.7724 -2.2598
18651TIP3    H277369   5.624   5.561  13.080 -0.0252  0.4585 -0.3679
18652TIP3   OH277370   5.943   2.196  12.737 -0.1411 -0.2601 -0.1900
18652TIP3    H177371   6.007   2.136  12.776  0.3475 -0.4582 -1.2496
18652TIP3    H277372   5.989   2.280  12.732 -0.4866 -0.0318  0.4026
18653TIP3   OH277373   6.537   2.474   4.330 -0.4438  0.5299  0.4031
18653TIP3    H177374   6.482   2.531   4.275 -0.6566 -1.5526 -1.7094
18653TIP3    H277375   6.504   2.487   4.419 -2.6573  1.2705 -0.4568
18654TIP3   OH277376   3.760   6.224  11.526  0.0851 -0.2106  0.4238
18654TIP3    H177377   3.849   6.207  11.556  0.8428  0.3433 -1.4022
18654TIP3    H277378   3.761   6.315  11.497 -1.2223 -0.0521  0.7999
18655TIP3   OH277379   3.267   4.025   3.901 -0.0335 -0.2788  0.0518
18655TIP3    H177380   3.186   4.067   3.930 -0.6956 -1.1051 -0.5559
18655TIP3    H277381   3.251   4.004   3.809  0.3702 -1.6342  0.2787
18656TIP3   OH277382   2.356   5.256   0.762 -0.1024  0.2696  0.0376
18656TIP3    H177383   2.376   5.344   0.728 -1.4509  0.9381  0.8812
18656TIP3    H277384   2.442   5.214   0.770  0.8133  2.2398  1.5600
18657TIP3   OH277385   0.007   6.428  11.115  0.0258  0.3558  1.0305
18657TIP3    H177386  -0.060   6.359  11.109 -0.8340  1.2868 -1.2195
18657TIP3    H277387   0.083   6.384  11.152 -0.5572 -1.7929 -0.1444
18658TIP3   OH277388   1.679   6.716  11.553  0.4954 -0.4406 -0.4091
18658TIP3    H177389   1.730   6.749  11.479  0.1259  2.2630  0.4189
18658TIP3    H277390   1.652   6.795  11.600 -0.2770 -2.0011  1.9541
18659TIP3   OH277391   5.342   5.684  15.589  0.5006  0.4668  0.2467
18659TIP3    H177392   5.324   5.595  15.620 -1.1506  0.0310 -1.7316
18659TIP3    H277393   5.438   5.692  15.595  0.6906 -1.4278  0.4830
18660TIP3   OH277394   4.707   3.354  15.945 -0.1373 -0.5517  0.3181
18660TIP3    H177395   4.639   3.375  16.008 -0.7594  1.0680 -0.8314
18660TIP3    H277396   4.745   3.438  15.921  1.1443 -1.2768 -0.3117
18661TIP3   OH277397   2.778   5.200  15.774  0.2328 -0.1296 -0.2721
18661TIP3    H177398   2.861   5.187  15.821 -0.6728 -0.8481  1.2118
18661TIP3    H277399   2.720   5.238  15.840 -0.2850  1.5188 -1.6356
18662TIP3   OH277400   4.670   1.126   2.951 -0.9219  0.2690 -0.2839
18662TIP3    H177401   4.608   1.187   2.912 -0.8483 -0.0285 -0.8740
18662TIP3    H277402   4.693   1.066   2.880 -0.9209 -0.3861  0.2580
18663TIP3   OH277403   6.541   3.302   1.484  0.1552 -0.1275  0.1499
18663TIP3    H177404   6.524   3.208   1.479 -1.2958 -0.0158  1.8341
18663TIP3    H277405   6.635   3.310   1.470  0.0856 -1.6500 -1.6107
18664TIP3   OH277406   3.477   5.170   2.391  0.2284 -0.1483 -0.4631
18664TIP3    H177407   3.482   5.240   2.327  4.1766 -1.2459 -1.6076
18664TIP3    H277408   3.469   5.215   2.475  3.5487  1.8811 -1.0636
18665TIP3   OH277409   5.191   3.035   2.183 -0.1802  0.0241  1.0478
18665TIP3    H177410   5.207   3.125   2.213  2.4173 -0.6482  1.9235
18665TIP3    H277411   5.163   3.045   2.092  2.7131  1.6629  0.2220
18666TIP3   OH277412   4.368   3.791   5.596 -0.3719  0.1932  0.3062
18666TIP3    H177413   4.283   3.780   5.638 -0.2957 -2.8749 -0.1053
18666TIP3    H277414   4.357   3.752   5.509  1.6381 -1.1562  0.5865
18667TIP3   OH277415   1.487   4.913  10.669 -0.1382 -0.3767  0.2957
18667TIP3    H177416   1.455   4.836  10.622  0.2344  0.9211 -2.2824
18667TIP3    H277417   1.581   4.898  10.678  0.0410 -0.0106 -0.7645
18668TIP3   OH277418   6.225   5.600   6.584 -0.2810  0.7235  0.5534
18668TIP3    H177419   6.270   5.543   6.646 -2.6016 -0.9212  0.8223
18668TIP3    H277420   6.285   5.606   6.509  0.7539 -0.6409  1.2331
18669TIP3   OH277421   0.411   3.493   5.240 -0.3320  0.0597  0.1123
18669TIP3    H177422   0.317   3.479   5.248 -0.2765 -0.2552  0.2270
18669TIP3    H277423   0.446   3.480   5.328  0.1677 -2.5605 -0.3984
18670TIP3   OH277424   2.536   0.033  15.951  0.4480 -0.2385  0.5533
18670TIP3    H177425   2.510   0.125  15.951 -0.7039 -0.4740 -1.7933
18670TIP3    H277426   2.625   0.032  15.918  1.1526  0.1133  2.3356
18671TIP3   OH277427   0.144   3.423  15.328  0.0133  0.0131 -0.3083
18671TIP3    H177428   0.059   3.426  15.285  1.5605  1.6909 -3.5844
18671TIP3    H277429   0.181   3.511  15.316  1.9277 -0.4314  1.6716
18672TIP3   OH277430   0.964   4.713  11.800  0.0629  0.3174 -0.0248
18672TIP3    H177431   1.039   4.762  11.834  0.3109  0.4473 -0.7479
18672TIP3    H277432   0.892   4.734  11.861  0.4371  0.7301  0.2811
18673TIP3   OH277433   5.510   4.664   1.236 -0.0995 -1.2411  0.0809
18673TIP3    H177434   5.476   4.753   1.237 -0.6902 -1.4136  2.4947
18673TIP3    H277435   5.586   4.667   1.295 -1.7293 -2.7959  2.4490
18674TIP3   OH277436   5.301   0.898   0.465  0.1469  0.1009 -0.0865
18674TIP3    H177437   5.369   0.832   0.454 -0.8782 -0.9982 -0.0714
18674TIP3    H277438   5.223   0.859   0.424 -0.4334  1.3962 -0.2712
18675TIP3   OH277439   3.167   6.153   1.795 -0.1277 -0.1007 -0.8099
18675TIP3    H177440   3.245   6.099   1.781  0.1538 -0.6981  2.2124
18675TIP3    H277441   3.200   6.236   1.830 -0.7668 -0.6592  1.3056
18676TIP3   OH277442   2.336   1.362  16.192  0.0245 -0.5848 -0.0770
18676TIP3    H177443   2.302   1.446  16.222 -0.4107 -0.9392  0.4144
18676TIP3    H277444   2.313   1.359  16.099  2.1954  0.9307 -0.7545
18677TIP3   OH277445   3.082   0.013  12.734  0.9860 -0.2117  0.5185
18677TIP3    H177446   3.112   0.104  12.731 -0.3074  0.2270  0.2559
18677TIP3    H277447   3.083  -0.016  12.643 -2.3433  0.8607  0.0225
18678TIP3   OH277448   0.933   5.982  14.566 -0.4287 -0.5327  0.2710
18678TIP3    H177449   0.889   5.931  14.633 -0.2285 -1.8202 -0.5378
18678TIP3    H277450   1.018   6.004  14.603 -0.5467 -0.7260  0.6545
18679TIP3   OH277451   0.790   0.000   3.045  0.3228 -0.1691  0.3397
18679TIP3    H177452   0.699   0.012   3.070 -0.3820  0.0839 -2.1104
18679TIP3    H277453   0.820   0.088   3.019  1.0249 -0.3886  0.3732
18680TIP3   OH277454   6.124   4.655   5.321  0.1146 -0.0539  0.2202
18680TIP3    H177455   6.048   4.680   5.268  0.2824 -1.4592 -0.7312
18680TIP3    H277456   6.171   4.737   5.334  0.3998  0.2987 -2.3846
18681TIP3   OH277457   5.203   4.009   5.569 -0.2486 -0.0313  0.0266
18681TIP3    H177458   5.251   4.090   5.583  0.5999 -0.4622 -0.3168
18681TIP3    H277459   5.254   3.942   5.616 -0.8740 -0.3851  0.2152
18682TIP3   OH277460   3.967   0.096  14.748 -0.1289  0.1166  0.5030
18682TIP3    H177461   3.991   0.059  14.832 -1.6661 -0.6774  0.6193
18682TIP3    H277462   3.875   0.075  14.737 -0.0585  0.5159 -1.2241
18683TIP3   OH277463   6.613   3.560  14.534  0.7260  0.2128 -0.8501
18683TIP3    H177464   6.537   3.618  14.534 -1.2218 -2.1825 -0.5290
18683TIP3    H277465   6.589   3.489  14.474  2.3392 -1.0500 -0.0839
18684TIP3   OH277466   5.035   0.896   2.052  0.1882 -0.9159 -0.0689
18684TIP3    H177467   4.985   0.826   2.010 -2.0691  0.8510 -0.5332
18684TIP3    H277468   5.023   0.880   2.146 -1.0288 -0.7212 -0.1709
18685TIP3   OH277469   5.779   0.180  16.652 -0.7013  0.1610 -1.4608
18685TIP3    H177470   5.823   0.115  16.707  0.2993  1.8049 -0.1949
18685TIP3    H277471   5.708   0.132  16.610 -1.9268 -1.1566  1.7289
18686TIP3   OH277472   0.256   3.863  10.656  0.2769  0.1916  0.5735
18686TIP3    H177473   0.349   3.883  10.670  0.3923 -0.1131  0.2198
18686TIP3    H277474   0.215   3.949  10.649  0.9848  0.3931 -2.3842
18687TIP3   OH277475   5.791   5.874  15.952 -0.5547 -0.3477  0.1541
18687TIP3    H177476   5.709   5.836  15.983 -0.9181 -0.3818 -0.8215
18687TIP3    H277477   5.805   5.833  15.866 -0.3885  0.9001 -0.4348
18688TIP3   OH277478   2.090   0.867  13.497  0.3298 -0.2415  0.7650
18688TIP3    H177479   2.148   0.802  13.457  0.2739  1.0195 -1.5927
18688TIP3    H277480   2.019   0.816  13.536 -1.0869 -1.6865 -3.1533
18689TIP3   OH277481   4.786   0.999   0.391  0.3742 -0.3098 -0.5366
18689TIP3    H177482   4.743   0.933   0.337 -2.0148  0.1038  0.7237
18689TIP3    H277483   4.774   1.081   0.343 -1.4534  0.0043  0.3826
18690TIP3   OH277484   0.088   1.499  12.639  0.1656 -0.4808 -0.0745
18690TIP3    H177485   0.037   1.419  12.625 -1.8105  0.9816 -1.6392
18690TIP3    H277486   0.169   1.468  12.681 -0.1107 -3.4148 -1.4464
18691TIP3   OH277487   6.418   1.702  14.786 -0.2152  0.0611  0.4552
18691TIP3    H177488   6.392   1.744  14.704  0.3749 -1.5029 -0.5753
18691TIP3    H277489   6.386   1.761  14.855  0.8201  2.3339 -0.9009
18692TIP3   OH277490   0.075   0.214   2.454 -0.0936  0.3473 -0.9640
18692TIP3    H177491   0.064   0.285   2.390 -0.1439  0.5866 -0.6895
18692TIP3    H277492   0.157   0.235   2.499 -1.8878  2.2917  1.6931
18693TIP3   OH277493   1.048   6.316   1.041  0.0903  0.0729  0.4491
18693TIP3    H177494   1.054   6.272   1.126  0.7623 -0.8469 -0.0663
18693TIP3    H277495   1.122   6.283   0.991  0.3008  1.3896 -0.1534
18694TIP3   OH277496   2.910   0.684   1.942 -0.0020  0.2206 -0.0925
18694TIP3    H177497   2.915   0.779   1.939 -0.1709  0.2226 -0.2655
18694TIP3    H277498   2.909   0.663   2.035  1.8584  0.3045 -0.0158
18695TIP3   OH277499   1.638   1.052   3.999 -0.1141  0.1519  0.2630
18695TIP3    H177500   1.701   1.066   3.929  0.0791  1.7902  0.7194
18695TIP3    H277501   1.692   1.038   4.077 -0.2925  1.2123  0.5908
18696TIP3   OH277502   2.336   5.232  16.141  0.1733 -0.2076 -0.2421
18696TIP3    H177503   2.365   5.170  16.074  1.9664  0.5839 -0.2489
18696TIP3    H277504   2.392   5.214  16.217 -0.0831  0.6236  0.1624
18697TIP3   OH277505   4.440   2.320  14.443 -0.2958  0.3269 -0.2789
18697TIP3    H177506   4.349   2.328  14.473 -0.3055 -1.5639  0.3532
18697TIP3    H277507   4.491   2.367  14.508 -0.6235 -0.8210  0.8380
18698TIP3   OH277508   3.554   5.949   1.164 -0.2727  0.0699  0.1324
18698TIP3    H177509   3.630   5.892   1.158 -1.0571 -1.1305  1.0713
18698TIP3    H277510   3.555   5.999   1.082  1.4223 -0.0182  0.0657
18699TIP3   OH277511   3.776   1.586  15.960 -0.4076  0.0545 -0.0903
18699TIP3    H177512   3.731   1.552  15.882 -2.3856 -0.0283  1.0217
18699TIP3    H277513   3.867   1.559  15.948 -1.2082 -2.5723 -0.9689
18700TIP3   OH277514   2.915   3.615  16.382 -0.0069 -0.8665  0.2890
18700TIP3    H177515   2.929   3.709  16.369 -1.4253 -0.6679  0.0475
18700TIP3    H277516   2.900   3.606  16.477 -2.9735 -0.3488 -0.0428
18701TIP3   OH277517   2.922   5.375   1.438 -0.2126  0.1479  0.1875
18701TIP3    H177518   2.943   5.409   1.526  2.4549 -0.3198 -0.1666
18701TIP3    H277519   2.929   5.280   1.447  1.1500  0.1283 -0.6936
18702TIP3   OH277520   3.110   1.678   4.012  0.0600 -0.6427 -0.2061
18702TIP3    H177521   3.200   1.666   4.042 -0.3068 -0.4612  1.0079
18702TIP3    H277522   3.058   1.623   4.070 -0.7296  0.1470 -0.1447
18703TIP3   OH277523   0.716   2.116  14.616  0.5704  0.3723 -0.1588
18703TIP3    H177524   0.633   2.076  14.591 -0.0149 -0.1837  2.3908
18703TIP3    H277525   0.763   2.047  14.664  1.1790  1.5655  1.0438
18704TIP3   OH277526   3.990   5.265  11.426  0.7879 -0.2268  0.0726
18704TIP3    H177527   3.904   5.306  11.421 -0.8916 -2.9627  2.8989
18704TIP3    H277528   4.007   5.233  11.337 -0.6576  1.1698 -0.7512
18705TIP3   OH277529   0.057   0.077   1.378 -0.2588  0.6812  0.2173
18705TIP3    H177530   0.045   0.118   1.292  0.3709 -0.6126 -0.5208
18705TIP3    H277531  -0.021   0.023   1.390  0.0036  0.2721  0.1048
18706TIP3   OH277532   0.504   5.999   3.712 -0.0228  0.3456 -0.1900
18706TIP3    H177533   0.458   5.926   3.753 -0.4941  0.5336 -0.3806
18706TIP3    H277534   0.528   6.056   3.786 -2.1598  1.4314 -0.2456
18707TIP3   OH277535   0.618   5.838  13.007 -1.0719  0.1359 -0.0463
18707TIP3    H177536   0.580   5.913  13.053  0.5978  0.8287  0.2570
18707TIP3    H277537   0.670   5.793  13.073 -0.6725 -0.3165 -0.6590
18708TIP3   OH277538   3.732   5.327  11.326  0.3116  0.3445 -0.1930
18708TIP3    H177539   3.699   5.326  11.415  2.5229 -0.5898  0.6787
18708TIP3    H277540   3.719   5.237  11.295 -0.4522  0.6644 -0.8422
18709TIP3   OH277541   1.830   4.435  17.369 -0.4470  0.0675  0.4751
18709TIP3    H177542   1.786   4.424  17.453 -0.0354  0.8824  0.8108
18709TIP3    H277543   1.762   4.417  17.304 -0.5381 -1.4425  0.9620
18710TIP3   OH277544   1.711   2.615   5.186 -0.0817  0.3036 -0.1473
18710TIP3    H177545   1.665   2.592   5.105  0.0701  0.5451 -0.3028
18710TIP3    H277546   1.645   2.656   5.241  0.0240  0.9774 -0.5104
18711TIP3   OH277547   1.127   3.154  12.200 -0.0501  0.0362 -0.0660
18711TIP3    H177548   1.117   3.065  12.165  1.3268  0.1108 -0.7009
18711TIP3    H277549   1.045   3.197  12.176 -0.2536 -0.7168 -0.8155
18712TIP3   OH277550   0.812   0.962   4.743 -0.5267 -0.1021  0.0183
18712TIP3    H177551   0.810   0.933   4.652  0.9531  0.7500 -0.3259
18712TIP3    H277552   0.827   1.057   4.737 -3.1949  0.4769  1.1310
18713TIP3   OH277553   5.681   0.504   2.147 -0.1504 -0.4319  0.4852
18713TIP3    H177554   5.624   0.577   2.123 -2.4181 -1.6722  1.7483
18713TIP3    H277555   5.622   0.429   2.153  1.7069 -1.8864  1.5227
18714TIP3   OH277556   2.766   3.199   1.285 -0.5443 -0.4848 -0.3676
18714TIP3    H177557   2.752   3.109   1.315 -0.6677 -0.3042  0.1341
18714TIP3    H277558   2.851   3.223   1.322 -0.4051 -0.4763 -0.6961
18715TIP3   OH277559   0.083   5.398   2.612  0.6651  0.1031  0.7181
18715TIP3    H177560   0.037   5.332   2.561  0.5663 -0.9068  2.0555
18715TIP3    H277561   0.041   5.481   2.589 -0.1995 -0.4948  0.1192
18716TIP3   OH277562   1.306   4.080  13.192  0.3601  0.4358  0.4196
18716TIP3    H177563   1.251   4.017  13.239  0.6892 -1.9727 -2.1835
18716TIP3    H277564   1.394   4.064  13.226  0.4922 -0.7959 -0.4509
18717TIP3   OH277565   5.093   6.579   4.622 -0.0199  0.0544 -0.4693
18717TIP3    H177566   5.145   6.572   4.702 -0.1746 -3.9203 -0.5592
18717TIP3    H277567   5.004   6.557   4.649 -0.6269  1.3077 -1.3261
18718TIP3   OH277568   3.938   4.225   3.553  0.0136 -0.6254 -0.1832
18718TIP3    H177569   3.937   4.302   3.610 -1.2142 -1.2263  0.6571
18718TIP3    H277570   3.930   4.261   3.464  0.3338  0.2468  0.1298
18719TIP3   OH277571   2.775   5.991  14.511 -0.3692  0.3199 -0.3406
18719TIP3    H177572   2.737   5.918  14.462 -1.1154  0.4186  0.0684
18719TIP3    H277573   2.736   6.069  14.471  0.8044  0.5421 -1.1066
18720TIP3   OH277574   4.027   5.241  14.941  0.3262  0.1385 -0.5495
18720TIP3    H177575   3.944   5.201  14.967 -0.4787  0.0074 -3.0696
18720TIP3    H277576   4.094   5.190  14.987 -0.9056 -0.7996  0.2657
18721TIP3   OH277577   2.962   5.346   2.042  0.0795  0.4451 -0.0310
18721TIP3    H177578   2.940   5.347   2.135 -0.2907 -0.4420 -0.0894
18721TIP3    H277579   2.915   5.421   2.005 -0.4683  0.3038  0.3590
18722TIP3   OH277580   2.429   4.716   3.676 -0.4239 -0.1513  0.0784
18722TIP3    H177581   2.401   4.802   3.646  2.3870  1.2256  1.0608
18722TIP3    H277582   2.428   4.723   3.772  1.6546 -0.4801  0.1716
18723TIP3   OH277583   0.526   2.009  15.349  0.0160  0.0943 -0.0301
18723TIP3    H177584   0.545   2.089  15.399 -0.6085 -0.0001  0.3686
18723TIP3    H277585   0.609   1.961  15.349  1.2689  1.9894 -2.6690
18724TIP3   OH277586   6.054   5.959  13.450 -0.3807 -0.1265 -0.3042
18724TIP3    H177587   6.072   6.003  13.533 -1.2065 -1.2272  0.4728
18724TIP3    H277588   6.102   6.011  13.385  0.8038  0.3896  0.9276
18725TIP3   OH277589   2.970   5.026   2.741  0.3356 -0.5371 -0.3274
18725TIP3    H177590   2.883   4.987   2.741 -0.0138  0.2138 -1.0010
18725TIP3    H277591   3.023   4.967   2.795 -0.2038 -1.8248 -1.1610
18726TIP3   OH277592   2.739   6.464  12.530 -0.6030 -0.5952  0.4806
18726TIP3    H177593   2.669   6.452  12.594  0.1207 -2.3048  1.0039
18726TIP3    H277594   2.750   6.378  12.490  1.1658 -0.3627  0.3870
18727TIP3   OH277595   4.802   0.348   5.030 -0.1923  0.7378 -0.3377
18727TIP3    H177596   4.768   0.403   5.101  0.7983  2.3178 -1.0153
18727TIP3    H277597   4.731   0.288   5.009 -0.1382 -0.5754  2.7176
18728TIP3   OH277598   6.715   1.494   2.413  0.4556  0.0440 -0.4651
18728TIP3    H177599   6.727   1.431   2.484  1.3514 -0.6543 -1.2083
18728TIP3    H277600   6.685   1.573   2.456 -1.1028 -0.9881  0.4676
18729TIP3   OH277601   0.882   1.555  16.423  0.4782  0.3371  0.1962
18729TIP3    H177602   0.893   1.464  16.450  0.7962  0.3593  0.1441
18729TIP3    H277603   0.954   1.601  16.465  0.2545  0.5850  0.3108
18730TIP3   OH277604   6.468   6.353  14.622  0.0527 -0.4494  0.1503
18730TIP3    H177605   6.530   6.381  14.689  0.5934  0.2092 -0.6128
18730TIP3    H277606   6.504   6.386  14.540 -1.9456  1.0876 -0.1831
18731TIP3   OH277607   4.461   4.844  13.883  0.0163 -0.3834  0.2426
18731TIP3    H177608   4.478   4.931  13.848 -1.9617  0.3600  0.9583
18731TIP3    H277609   4.530   4.789  13.846  1.2560  1.4485 -0.3012
18732TIP3   OH277610   6.025   0.321   1.746  0.2849  0.0691 -0.6202
18732TIP3    H177611   5.930   0.331   1.756  0.1989 -0.7488 -0.5830
18732TIP3    H277612   6.057   0.298   1.833  0.5497  0.5249 -0.5919
18733TIP3   OH277613   1.649   3.641  16.177  0.2764  0.1286 -1.4813
18733TIP3    H177614   1.641   3.598  16.092  1.3549 -0.1564 -1.4493
18733TIP3    H277615   1.670   3.732  16.156  0.2414  0.1278 -1.5196
18734TIP3   OH277616   6.384   6.381  13.798 -0.3861 -0.0360  0.2396
18734TIP3    H177617   6.303   6.365  13.748 -1.0866 -1.2960  1.6951
18734TIP3    H277618   6.410   6.470  13.773 -0.9260 -0.4431 -2.0083
18735TIP3   OH277619   5.158   5.816  13.486 -0.0111  0.0052 -0.2651
18735TIP3    H177620   5.091   5.884  13.495 -0.3190 -0.2126 -0.8293
18735TIP3    H277621   5.220   5.853  13.423 -0.4555 -0.4394 -0.9771
18736TIP3   OH277622   1.090   3.024   0.182  0.4864 -0.5786  0.2930
18736TIP3    H177623   0.995   3.029   0.186  0.4903  1.6014 -0.7503
18736TIP3    H277624   1.110   2.930   0.183 -1.6514 -1.0670  0.5116
18737TIP3   OH277625   2.668   6.080  17.090 -0.1171 -0.4516  0.4465
18737TIP3    H177626   2.587   6.131  17.095  0.4945  0.7934 -1.2646
18737TIP3    H277627   2.710   6.111  17.010  0.7400 -3.0440 -0.1781
18738TIP3   OH277628   6.314   1.279   3.205  0.4417 -0.6437 -0.1609
18738TIP3    H177629   6.274   1.199   3.173 -1.4208  0.0730  0.2501
18738TIP3    H277630   6.369   1.251   3.278 -0.2808 -1.5332  0.0532
18739TIP3   OH277631   6.066   0.140   4.639  0.6161 -0.2571 -0.2827
18739TIP3    H177632   6.129   0.069   4.626  1.0415  0.2041 -0.7721
18739TIP3    H277633   6.119   0.215   4.664  0.1938 -0.0280 -0.0593
18740TIP3   OH277634   1.540   6.184  13.361  0.8397 -0.0319 -0.2851
18740TIP3    H177635   1.461   6.237  13.366  1.5222  1.2207 -1.7437
18740TIP3    H277636   1.528   6.115  13.426 -0.9364  0.7883  0.3024
18741TIP3   OH277637   2.230   3.254   2.750 -0.0847  0.0991 -0.7229
18741TIP3    H177638   2.289   3.237   2.823 -2.6258 -0.5056  1.3484
18741TIP3    H277639   2.211   3.348   2.755 -1.9102 -0.2851  0.8775
18742TIP3   OH277640   6.482   2.296   1.023  0.5759 -0.7669 -0.3283
18742TIP3    H177641   6.428   2.362   1.066  0.4987 -1.6012  0.9067
18742TIP3    H277642   6.545   2.269   1.090  1.5218 -0.9370 -1.2585
18743TIP3   OH277643   5.033   5.654  16.173 -0.6812  0.1097  0.1379
18743TIP3    H177644   4.974   5.694  16.236 -0.2760  0.6160  0.2031
18743TIP3    H277645   4.997   5.567  16.157 -2.7119  1.1691 -1.4935
18744TIP3   OH277646   1.739   0.066   1.243  0.1998 -0.0394 -0.1646
18744TIP3    H177647   1.660   0.024   1.276  1.5100 -0.8048  2.2737
18744TIP3    H277648   1.810   0.006   1.266  1.3223 -1.5754 -6.1000
18745TIP3   OH277649   0.892   4.305   4.548 -0.2520  0.5001  0.0651
18745TIP3    H177650   0.925   4.233   4.494  0.1014  1.9155 -1.7122
18745TIP3    H277651   0.802   4.318   4.518 -0.7825 -0.0463  1.3415
18746TIP3   OH277652   0.159   0.099   4.735 -0.2830  0.4358  0.1987
18746TIP3    H177653   0.091   0.083   4.670 -3.1043  0.7257  2.8498
18746TIP3    H277654   0.158   0.194   4.748  0.6358  0.4456  0.2789
18747TIP3   OH277655   1.908   3.559   4.242 -0.6770  0.1216  0.2707
18747TIP3    H177656   1.924   3.582   4.151 -1.5609 -0.2104  0.0298
18747TIP3    H277657   1.817   3.582   4.258 -0.2783  1.0755  1.3552
18748TIP3   OH277658   4.183   0.674   2.253  0.0734 -0.5043  0.4310
18748TIP3    H177659   4.203   0.652   2.162 -0.2392  1.1269 -0.0649
18748TIP3    H277660   4.213   0.764   2.263 -1.0246 -0.2440  1.5936
18749TIP3   OH277661   1.279   5.495   0.224  0.3018  0.0444  0.0117
18749TIP3    H177662   1.203   5.473   0.169 -0.8844  0.2217  1.4978
18749TIP3    H277663   1.264   5.448   0.306  1.3206  0.8252  0.6797
18750TIP3   OH277664   3.855   4.431   3.889 -0.7401  0.6700 -0.1905
18750TIP3    H177665   3.930   4.482   3.857  1.0314 -0.9504  1.1230
18750TIP3    H277666   3.847   4.457   3.981 -0.9565 -0.1116  0.0164
18751TIP3   OH277667   4.411   1.308   1.535  0.2764  0.5054  0.2791
18751TIP3    H177668   4.316   1.317   1.546  0.2929  1.9264 -0.4299
18751TIP3    H277669   4.426   1.325   1.442  1.2517  0.4906  0.4207
18752TIP3   OH277670   4.601   1.545   6.102  0.2036  0.1741 -0.2607
18752TIP3    H177671   4.530   1.558   6.165 -0.3853  0.9176 -1.0708
18752TIP3    H277672   4.655   1.476   6.142 -0.3204  0.4179  0.9139
18753TIP3   OH277673   4.768   2.237   0.666  0.3249  0.1927 -0.4369
18753TIP3    H177674   4.727   2.210   0.749 -1.4542  1.0996 -0.9775
18753TIP3    H277675   4.851   2.276   0.693  0.4166 -0.7992  0.8023
18754TIP3   OH277676   1.554   6.111  17.259  0.9492  0.4041  0.2856
18754TIP3    H177677   1.501   6.185  17.286 -1.5170 -1.0016 -0.3658
18754TIP3    H277678   1.598   6.140  17.179  1.9416  1.8894  1.3187
18755TIP3   OH277679   1.423   2.045  15.230 -0.6122 -0.1753 -0.6013
18755TIP3    H177680   1.413   1.951  15.213 -1.9979 -0.8346  2.9136
18755TIP3    H277681   1.503   2.051  15.282 -1.8437  0.1439  1.3534
18756TIP3   OH277682   1.692   6.232   0.189 -0.1026 -0.1033 -0.0580
18756TIP3    H177683   1.674   6.234   0.283 -1.5630  1.2701 -0.3258
18756TIP3    H277684   1.629   6.168   0.154 -1.8724  1.7846 -0.4816
18757TIP3   OH277685   6.602   3.778  11.378 -0.1110  0.3928  0.1309
18757TIP3    H177686   6.584   3.750  11.468  1.6949  2.1954  1.1334
18757TIP3    H277687   6.564   3.866  11.373 -2.1297 -0.4856 -1.6367
18758TIP3   OH277688   6.099   2.291  17.125  0.6287 -0.2635 -0.2110
18758TIP3    H177689   6.100   2.368  17.069  0.0617 -0.1043 -0.0091
18758TIP3    H277690   6.148   2.317  17.203  3.2043 -1.1214 -1.4165
18759TIP3   OH277691   0.574   3.686  11.708  0.1923 -0.1255 -0.7386
18759TIP3    H177692   0.511   3.614  11.721  0.0318  0.1316 -0.0216
18759TIP3    H277693   0.642   3.648  11.653 -0.7490 -0.3147 -1.8130
18760TIP3   OH277694   4.676   6.699  16.323  0.3898 -0.0943  0.4960
18760TIP3    H177695   4.759   6.703  16.370 -0.8101 -0.4311  2.7625
18760TIP3    H277696   4.664   6.605  16.306 -1.1642 -0.5309  3.4314
18761TIP3   OH277697   4.440   0.736  14.213 -0.0876 -0.4328  0.1396
18761TIP3    H177698   4.419   0.648  14.183  0.2307 -0.2231 -0.7346
18761TIP3    H277699   4.471   0.725  14.302 -0.5698 -1.1404  0.2213
18762TIP3   OH277700   6.365   5.958   1.330  0.4117 -0.2193 -0.2274
18762TIP3    H177701   6.397   5.993   1.246  3.6132 -0.7347  0.6404
18762TIP3    H277702   6.317   5.879   1.307 -0.1272  0.4924 -1.6598
18763TIP3   OH277703   2.325   5.264  10.546  0.3785  0.1134  0.2635
18763TIP3    H177704   2.353   5.347  10.508 -0.7058  0.4343  0.1582
18763TIP3    H277705   2.238   5.281  10.581 -0.4756 -1.3422 -1.0244
18764TIP3   OH277706   5.118   5.142  15.401 -0.0753  0.2997  0.4284
18764TIP3    H177707   5.147   5.232  15.384 -1.2779  0.2837 -2.1761
18764TIP3    H277708   5.190   5.103  15.451  1.4404  2.0724 -0.2266
18765TIP3   OH277709   1.110   0.516  15.040 -0.4337  0.7675  0.3440
18765TIP3    H177710   1.094   0.610  15.047 -0.3178  0.7627  0.7392
18765TIP3    H277711   1.206   0.508  15.043 -0.3698  0.7319 -1.0550
18766TIP3   OH277712   3.709   2.058   6.694  0.2536 -0.2934  0.0290
18766TIP3    H177713   3.775   2.077   6.760  0.2283  2.1763 -0.5393
18766TIP3    H277714   3.625   2.063   6.741  0.1895  2.1360 -0.2210
18767TIP3   OH277715   2.246   1.724   0.658 -0.5277 -0.0911 -0.2826
18767TIP3    H177716   2.214   1.794   0.716 -1.1059 -0.5209 -0.0714
18767TIP3    H277717   2.339   1.716   0.681 -0.6991 -0.1186  0.4544
18768TIP3   OH277718   4.173   4.903   3.951 -0.3620 -0.4591  0.3518
18768TIP3    H177719   4.101   4.964   3.935 -0.4143  0.4026  3.3534
18768TIP3    H277720   4.131   4.817   3.960 -0.7455 -0.3174 -0.0561
18769TIP3   OH277721   5.120   1.659  13.943  0.3684 -0.1991  0.1452
18769TIP3    H177722   5.174   1.671  14.021  0.4577  1.3062 -0.1274
18769TIP3    H277723   5.150   1.576  13.907  2.0397  0.2563  0.3853
18770TIP3   OH277724   2.842   2.579   4.551 -0.2397  0.4010  0.4082
18770TIP3    H177725   2.799   2.664   4.542 -0.3489  0.2855 -0.2212
18770TIP3    H277726   2.771   2.519   4.572 -0.5132  0.0948 -1.2750
18771TIP3   OH277727   6.480   4.720   0.444 -0.1296  0.1992 -0.0782
18771TIP3    H177728   6.535   4.671   0.382 -0.1839  0.3561 -0.2506
18771TIP3    H277729   6.405   4.749   0.392 -0.5138 -0.2448  0.2205
18772TIP3   OH277730   6.458   3.138   1.727 -0.0549 -0.1076  0.3623
18772TIP3    H177731   6.528   3.082   1.761  0.5232  0.2974 -0.1486
18772TIP3    H277732   6.446   3.110   1.637 -1.1639 -0.7589  0.6847
18773TIP3   OH277733   1.593   0.734  13.919  0.1117  0.0981  0.0009
18773TIP3    H177734   1.565   0.779  13.839  2.4297  0.8308 -0.4916
18773TIP3    H277735   1.606   0.804  13.983  0.2470 -0.2486  0.3548
18774TIP3   OH277736   2.603   4.850   5.278 -0.1289 -0.1529 -0.4464
18774TIP3    H177737   2.530   4.797   5.247  0.5851 -1.7093  0.3933
18774TIP3    H277738   2.562   4.927   5.316 -1.2164 -0.1384 -1.5869
18775TIP3   OH277739   4.066   1.115   4.532 -0.5429  0.0594  0.0277
18775TIP3    H177740   4.060   1.195   4.480  1.9821  0.3337  0.0245
18775TIP3    H277741   4.080   1.146   4.622 -2.4144 -0.4222  0.5274
18776TIP3   OH277742   3.334   0.038  15.088  0.0130 -0.1102  0.6345
18776TIP3    H177743   3.306   0.052  15.178  0.0559 -0.0771  0.6431
18776TIP3    H277744   3.429   0.047  15.091  0.0341 -0.3081  0.6235
18777TIP3   OH277745   5.037   2.484   0.048 -0.1707 -0.1471  0.7596
18777TIP3    H177746   5.081   2.538   0.114 -0.8925 -0.6596  1.6795
18777TIP3    H277747   5.015   2.546  -0.022  1.8698  0.1477  0.3135
18778TIP3   OH277748   5.360   4.184  14.002 -0.5095 -0.6247 -0.0097
18778TIP3    H177749   5.346   4.097  13.965 -0.1351  0.0346 -1.8306
18778TIP3    H277750   5.278   4.230  13.987 -0.4293 -0.4145  0.1868
18779TIP3   OH277751   1.674   6.561  16.896  0.0252  0.0648 -0.4888
18779TIP3    H177752   1.734   6.533  16.827 -2.0939 -1.8005 -1.7349
18779TIP3    H277753   1.705   6.517  16.975 -0.4951 -2.1606 -1.4404
18780TIP3   OH277754   3.704   0.190   4.589 -0.3911 -0.2429 -0.0966
18780TIP3    H177755   3.614   0.196   4.619  0.2860 -0.7238  2.2575
18780TIP3    H277756   3.751   0.147   4.661  1.3237 -2.0243 -2.1295
18781TIP3   OH277757   3.328   6.243  14.754  0.2616 -0.0999 -0.6096
18781TIP3    H177758   3.242   6.263  14.716  0.1196 -1.1388 -0.8746
18781TIP3    H277759   3.310   6.232  14.847  0.1414 -0.1366 -0.6361
18782TIP3   OH277760   5.786   2.533   1.629 -0.7120  0.0854  0.2131
18782TIP3    H177761   5.846   2.546   1.555 -0.7422  0.0007  0.1742
18782TIP3    H277762   5.700   2.553   1.594 -0.4618  2.8904  0.9329
18783TIP3   OH277763   4.867   5.607  10.916 -0.5380  0.3735  0.2099
18783TIP3    H177764   4.870   5.666  10.991 -0.3113  0.0016  0.4951
18783TIP3    H277765   4.777   5.575  10.914 -0.6706  0.7447  0.0363
18784TIP3   OH277766   6.096   2.970  12.855 -0.1586 -0.1815 -0.2360
18784TIP3    H177767   6.090   3.061  12.884  0.2350 -0.5902  1.2153
18784TIP3    H277768   6.008   2.948  12.827 -0.9402 -0.1560  2.0101
18785TIP3   OH277769   4.087   6.481  15.518  0.1341  0.7247 -0.1420
18785TIP3    H177770   4.158   6.538  15.547  0.7914  0.2759 -0.8568
18785TIP3    H277771   4.129   6.396  15.501 -0.0289  1.1572 -3.1939
18786TIP3   OH277772   6.480   6.147   5.655 -0.1484  0.0117  0.0972
18786TIP3    H177773   6.505   6.055   5.646  1.7529  0.5290 -0.3325
18786TIP3    H277774   6.560   6.192   5.682 -0.6445  1.7665 -1.1406
18787TIP3   OH277775   5.879   5.046   0.753  0.1252 -0.0090  0.2310
18787TIP3    H177776   5.866   5.013   0.664  0.1094 -0.9652  0.5756
18787TIP3    H277777   5.904   4.969   0.803 -1.3692  0.2069  1.3838
18788TIP3   OH277778   5.680   2.887  15.692 -0.4239 -0.1290  0.0116
18788TIP3    H177779   5.702   2.970  15.649 -3.1115  0.4752 -0.3320
18788TIP3    H277780   5.726   2.891  15.776  1.7265  0.4068 -1.0968
18789TIP3   OH277781   6.453   4.664   5.327  0.2140 -0.2084 -0.7829
18789TIP3    H177782   6.546   4.649   5.343  0.2497 -0.5269 -1.2820
18789TIP3    H277783   6.418   4.686   5.413  0.1516 -3.1113  0.0341
18790TIP3   OH277784   3.453   6.488   5.281 -0.2293  0.3914 -0.0170
18790TIP3    H177785   3.416   6.444   5.204  0.6527  0.6105 -0.5693
18790TIP3    H277786   3.516   6.426   5.317  0.5574  0.9371 -0.4310
18791TIP3   OH277787   5.219   6.237   4.700 -0.2709 -0.6487 -0.0236
18791TIP3    H177788   5.182   6.298   4.637 -1.1956 -0.7366  0.4136
18791TIP3    H277789   5.164   6.247   4.778 -0.6964 -2.3105 -0.0793
18792TIP3   OH277790   2.824   6.659  11.578  0.1916 -0.1175 -0.5727
18792TIP3    H177791   2.736   6.689  11.599  0.8861  0.9806  0.9396
18792TIP3    H277792   2.877   6.740  11.576  1.3603 -0.8521 -0.4243
18793TIP3   OH277793   3.730   4.057   1.332  0.1053  0.0719  0.2010
18793TIP3    H177794   3.665   3.987   1.324 -0.0361  0.1696  0.4992
18793TIP3    H277795   3.685   4.125   1.381 -0.1072  0.8002 -0.9613
18794TIP3   OH277796   0.555   4.704  13.481  0.3534  0.0883  0.1599
18794TIP3    H177797   0.462   4.681  13.476  0.3507  0.3299 -1.3650
18794TIP3    H277798   0.565   4.742  13.568 -0.8774 -0.3409  0.5191
18795TIP3   OH277799   3.200   5.165   1.199  0.1767  0.3390 -0.3879
18795TIP3    H177800   3.255   5.215   1.259  0.3352  1.8193 -1.7014
18795TIP3    H277801   3.125   5.222   1.182  0.4983  0.2953 -2.1507
18796TIP3   OH277802   3.428   1.903   1.065  0.8370 -0.1255 -0.0108
18796TIP3    H177803   3.508   1.955   1.058  0.1881  1.1080  1.2133
18796TIP3    H277804   3.457   1.821   1.106  1.4164  0.5069  0.9014
18797TIP3   OH277805   0.697   3.967   3.143  0.3109  0.0344  0.0286
18797TIP3    H177806   0.636   3.949   3.072 -0.0514  0.6515  0.1744
18797TIP3    H277807   0.783   3.945   3.107  0.0795 -0.1396 -0.4276
18798TIP3   OH277808   5.102   2.004   1.285  0.1354 -0.9575  0.3284
18798TIP3    H177809   5.127   1.928   1.339 -0.6362 -0.2311  1.7767
18798TIP3    H277810   5.121   2.079   1.341  0.2244 -0.1096 -0.8165
18799TIP3   OH277811   1.291   3.714  14.104  0.0458  0.0400  0.3542
18799TIP3    H177812   1.277   3.631  14.150  1.3315 -0.9519 -0.9308
18799TIP3    H277813   1.226   3.714  14.034  0.6507 -0.3640 -0.2242
18800TIP3   OH277814   6.181   0.524   2.464  0.2344 -0.3170 -0.4805
18800TIP3    H177815   6.243   0.516   2.393  0.0764  1.0853 -0.8039
18800TIP3    H277816   6.135   0.606   2.447  1.2999  0.9014  2.0876
18801TIP3   OH277817   4.609   3.201   3.606  0.0847  0.3910 -0.5544
18801TIP3    H177818   4.624   3.128   3.545  1.1365  1.5102 -1.7080
18801TIP3    H277819   4.611   3.279   3.551 -2.4241  1.2559  0.4411
18802TIP3   OH277820   4.846   5.581   1.258 -0.3751  0.1287  0.1353
18802TIP3    H177821   4.814   5.602   1.345 -0.0864 -1.7766  0.7368
18802TIP3    H277822   4.939   5.605   1.260 -0.0852 -0.9488  0.7658
18803TIP3   OH277823   5.451   0.909   5.785  0.3476  0.2288 -0.2374
18803TIP3    H177824   5.510   0.957   5.843  1.1574 -2.4733  1.3458
18803TIP3    H277825   5.482   0.818   5.789 -1.1890 -0.5164 -2.9181
18804TIP3   OH277826   5.485   6.418  16.322  0.6423 -0.5519  0.0037
18804TIP3    H177827   5.406   6.457  16.360 -1.9379 -3.0526 -2.3711
18804TIP3    H277828   5.515   6.356  16.389 -1.0901 -1.5574 -0.0990
18805TIP3   OH277829   2.186   0.791   2.815 -0.3500 -0.0625 -0.4954
18805TIP3    H177830   2.133   0.796   2.735  0.9850  1.1602 -1.3756
18805TIP3    H277831   2.225   0.704   2.812  0.6571  0.3867 -1.9047
18806TIP3   OH277832   2.774   5.736   5.852  0.4270 -0.1561  0.1255
18806TIP3    H177833   2.692   5.687   5.857  1.0157 -1.0374  1.9984
18806TIP3    H277834   2.751   5.825   5.878  0.0360 -0.3697  0.5144
18807TIP3   OH277835   4.245   5.857   2.089 -0.3602  0.0154  0.1002
18807TIP3    H177836   4.266   5.804   2.166 -2.2700 -0.4063  0.3865
18807TIP3    H277837   4.208   5.938   2.124  2.8742  1.8124 -0.3259
18808TIP3   OH277838   6.451   4.206  10.885 -0.3948 -0.0542  0.6691
18808TIP3    H177839   6.503   4.286  10.896 -0.2121 -0.2772  1.5009
18808TIP3    H277840   6.431   4.178  10.974 -2.4183  0.3066  0.3742
18809TIP3   OH277841   2.001   6.760  13.347 -0.1414 -0.1705  0.0277
18809TIP3    H177842   2.033   6.674  13.320  1.1754 -0.0866  1.2297
18809TIP3    H277843   1.988   6.808  13.265 -0.2917 -1.2962 -0.6268
18810TIP3   OH277844   5.911   2.047  11.112 -0.5029 -0.6936  0.4648
18810TIP3    H177845   5.970   1.971  11.113 -0.8655 -0.9755  1.6409
18810TIP3    H277846   5.872   2.048  11.199 -1.6416 -0.0398 -0.0382
18811TIP3   OH277847   0.021   6.534   6.311 -0.1865  0.2706  0.3522
18811TIP3    H177848  -0.018   6.515   6.226  2.0168  0.2106 -0.7348
18811TIP3    H277849  -0.033   6.604   6.348 -1.6551 -0.2587 -0.7165
18812TIP3   OH277850   0.188   3.731   3.697  0.5040  0.1528 -0.5418
18812TIP3    H177851   0.104   3.709   3.738  0.0390  1.6130 -0.6780
18812TIP3    H277852   0.200   3.665   3.629 -1.0986  0.5958 -1.2800
18813TIP3   OH277853   3.850   1.244   1.287 -0.3138  0.5918  0.0561
18813TIP3    H177854   3.940   1.226   1.260 -0.1307  1.6473 -0.0614
18813TIP3    H277855   3.814   1.299   1.218 -1.5525 -1.0066 -0.6659
18814TIP3   OH277856   5.254   4.214   3.709  0.0869  0.1053  0.1454
18814TIP3    H177857   5.298   4.295   3.732  1.6147  0.2988 -2.9334
18814TIP3    H277858   5.289   4.149   3.770 -1.0847  1.6041  2.5884
18815TIP3   OH277859   6.147   2.099   4.366  1.1376  0.2365 -0.1444
18815TIP3    H177860   6.098   2.084   4.447  0.8243 -1.0655 -0.5568
18815TIP3    H277861   6.191   2.183   4.380 -0.0843  0.7539  0.7896
18816TIP3   OH277862   1.626   3.004  12.336  0.0315  0.4155  0.0132
18816TIP3    H177863   1.656   3.087  12.299 -0.4399  0.5833  0.0011
18816TIP3    H277864   1.586   3.029  12.419  2.0495 -0.0636  1.2165
18817TIP3   OH277865   3.604   0.759   3.163  0.7506 -0.1107 -0.1826
18817TIP3    H177866   3.519   0.715   3.153  0.4842  0.5357 -0.9133
18817TIP3    H277867   3.668   0.688   3.165  0.1010 -0.7018  1.8452
18818TIP3   OH277868   6.271   1.127  15.388  1.1525  0.1241  0.1544
18818TIP3    H177869   6.332   1.106  15.459  0.4649 -0.5742  0.5443
18818TIP3    H277870   6.315   1.197  15.340  1.7569  0.4197  1.0991
18819TIP3   OH277871   2.539   2.271  12.431  0.4506 -0.3549 -0.3632
18819TIP3    H177872   2.451   2.303  12.454 -0.2911 -1.7294 -1.1608
18819TIP3    H277873   2.586   2.270  12.515 -0.3038  0.3180  0.0926
18820TIP3   OH277874   2.026   6.697  13.801 -0.2589 -0.3446  0.4919
18820TIP3    H177875   1.965   6.682  13.729 -0.9895  1.0392  0.7797
18820TIP3    H277876   2.112   6.697  13.760 -0.6365  0.0539 -0.3409
18821TIP3   OH277877   0.284   0.838  14.523 -0.1939 -0.1482 -0.2773
18821TIP3    H177878   0.233   0.840  14.442  1.2778 -0.5069 -1.2426
18821TIP3    H277879   0.296   0.745  14.541 -2.2830 -0.1534  1.5662
18822TIP3   OH277880   2.341   3.331   5.681  0.2800 -0.5780 -0.8600
18822TIP3    H177881   2.431   3.348   5.653  0.1640  0.9572 -0.4079
18822TIP3    H277882   2.298   3.417   5.677 -0.6326 -0.9190  0.8073
18823TIP3   OH277883   2.680   3.132  11.015 -0.0011 -0.0877 -0.0370
18823TIP3    H177884   2.636   3.050  10.994 -0.3070  0.1483 -0.3266
18823TIP3    H277885   2.726   3.114  11.097 -1.2008 -0.1430  0.6621
18824TIP3   OH277886   2.943   5.080   1.327 -0.1697  0.9430 -0.6928
18824TIP3    H177887   3.012   5.014   1.330  0.5248  1.6023 -1.7453
18824TIP3    H277888   2.886   5.058   1.401  1.6887  1.0007  0.8122
18825TIP3   OH277889   6.592   3.314  13.613 -0.0659 -0.3584  0.0228
18825TIP3    H177890   6.642   3.288  13.690 -1.0131 -0.8695  0.4749
18825TIP3    H277891   6.626   3.400  13.591  1.3444 -0.8757  0.0345
18826TIP3   OH277892   4.759   2.791   2.889 -0.2980 -0.0463  0.3318
18826TIP3    H177893   4.833   2.848   2.908  1.4955 -2.3399  0.7741
18826TIP3    H277894   4.780   2.751   2.805 -0.5881 -1.3116  0.8237
18827TIP3   OH277895   0.432   0.246  15.282 -0.0078 -0.6471  0.0767
18827TIP3    H177896   0.429   0.248  15.187 -1.7028  0.6546  0.1070
18827TIP3    H277897   0.355   0.195  15.308 -0.0038 -0.3261  0.7567
18828TIP3   OH277898   2.575   1.892  16.109 -0.3548 -0.0054  0.0672
18828TIP3    H177899   2.539   1.816  16.063 -0.2808 -0.5147  0.8341
18828TIP3    H277900   2.652   1.859  16.154 -0.5327  0.4248  0.7172
18829TIP3   OH277901   5.833   5.318   1.762  0.0329  0.4401  0.4219
18829TIP3    H177902   5.841   5.282   1.850  0.3063  1.7317  0.9375
18829TIP3    H277903   5.740   5.335   1.751 -0.1103 -0.4478  0.1472
18830TIP3   OH277904   3.140   6.426   2.761 -0.5092 -0.0957  0.0401
18830TIP3    H177905   3.149   6.331   2.776 -2.8884 -0.6384 -1.3473
18830TIP3    H277906   3.065   6.451   2.815 -0.9408  0.6242 -0.8653
18831TIP3   OH277907   5.264   5.880   2.378  0.1220 -0.2694  0.0390
18831TIP3    H177908   5.183   5.931   2.366 -0.3627 -0.3464  2.5034
18831TIP3    H277909   5.306   5.919   2.455  2.6934  0.0087 -1.3795
18832TIP3   OH277910   5.251   4.442  16.107 -0.5450 -0.2174  0.4990
18832TIP3    H177911   5.328   4.401  16.068 -0.2415  0.7660  0.0365
18832TIP3    H277912   5.283   4.523  16.146 -1.6573  1.3866 -1.6895
18833TIP3   OH277913   3.475   0.015   6.649  0.2659  0.5386 -0.1517
18833TIP3    H177914   3.404  -0.029   6.698 -1.1770  1.7069 -1.1011
18833TIP3    H277915   3.489   0.097   6.696  0.4138  0.6880 -0.4587
18834TIP3   OH277916   5.041   3.352  14.841  0.0600  0.3964  0.2615
18834TIP3    H177917   5.114   3.290  14.835  0.5420  0.9614  0.1552
18834TIP3    H277918   5.066   3.423  14.781 -2.9647 -1.7158 -4.0686
18835TIP3   OH277919   6.717   5.513  13.693  0.5759 -0.3552 -0.2855
18835TIP3    H177920   6.810   5.492  13.684  0.2222 -2.6800  0.6179
18835TIP3    H277921   6.672   5.431  13.669 -1.0753 -0.3335  2.3823
18836TIP3   OH277922   1.513   2.155  16.027 -0.2967 -0.1019 -0.4468
18836TIP3    H177923   1.492   2.243  16.058 -0.4097  0.3221 -1.6718
18836TIP3    H277924   1.586   2.127  16.081 -1.2532  0.1136  1.0076
18837TIP3   OH277925   3.922   3.093  10.787 -0.2777  0.8115  0.9350
18837TIP3    H177926   3.966   3.037  10.723 -0.4426  1.0762  0.5870
18837TIP3    H277927   3.868   3.033  10.839  1.5659  0.2543  2.3252
18838TIP3   OH277928   4.044   1.428   4.464 -0.0425  0.0287  0.2166
18838TIP3    H177929   3.981   1.496   4.488  1.0096  1.6801 -1.4621
18838TIP3    H277930   4.108   1.428   4.536 -0.6369  0.0498  0.7508
18839TIP3   OH277931   3.176   0.900  11.048  0.1857 -0.2863  0.0086
18839TIP3    H177932   3.091   0.866  11.076 -0.2252  0.5920 -0.1455
18839TIP3    H277933   3.192   0.975  11.105  1.7512 -1.5365  1.3195
18840TIP3   OH277934   4.658   3.700   5.463  0.4669 -0.8409 -0.1786
18840TIP3    H177935   4.634   3.616   5.503  1.2187 -0.6037  0.8152
18840TIP3    H277936   4.751   3.692   5.443  0.8913  0.1949  1.1715
18841TIP3   OH277937   4.033   4.626  10.950 -0.1511 -0.4225 -0.3278
18841TIP3    H177938   3.967   4.592  11.010 -0.8097 -0.9674 -1.3394
18841TIP3    H277939   3.983   4.653  10.873  0.5240  1.4494 -0.1736
18842TIP3   OH277940   2.789   4.868  13.552  0.1396  0.4593 -0.0255
18842TIP3    H177941   2.866   4.924  13.561  0.3144  0.3077 -0.5318
18842TIP3    H277942   2.716   4.922  13.583  0.3741  0.7902 -0.0431
18843TIP3   OH277943   3.844   2.065  11.470  0.2352  0.4190  0.3525
18843TIP3    H177944   3.931   2.089  11.439  0.5029  0.3716  1.0591
18843TIP3    H277945   3.819   2.137  11.529 -0.6881  1.0147 -0.7338
18844TIP3   OH277946   3.181   5.874  15.818  0.4098 -0.1538 -0.0397
18844TIP3    H177947   3.131   5.800  15.784  1.5640 -0.4147 -1.2131
18844TIP3    H277948   3.148   5.885  15.907  0.4616 -2.3001  0.2955
18845TIP3   OH277949   2.312   5.077   6.607 -0.1147 -0.3849  0.2228
18845TIP3    H177950   2.331   5.011   6.540  2.8466 -0.1308  0.6856
18845TIP3    H277951   2.379   5.145   6.594 -1.4602  1.2674  1.4142
18846TIP3   OH277952   2.709   4.453   5.143 -0.0834 -0.5458 -0.1479
18846TIP3    H177953   2.745   4.541   5.134 -0.1480 -0.5346 -0.2915
18846TIP3    H277954   2.783   4.395   5.123  0.2161 -0.5405  0.8386
18847TIP3   OH277955   5.143   4.086   4.736 -0.0054  0.2726  0.0714
18847TIP3    H177956   5.192   4.029   4.676 -0.5557 -0.2955  0.1430
18847TIP3    H277957   5.206   4.152   4.764  0.5513 -0.0901 -0.3060
18848TIP3   OH277958   1.839   6.655  17.284  0.9671  0.2296 -0.3220
18848TIP3    H177959   1.813   6.570  17.318  2.1331 -1.6319 -3.6727
18848TIP3    H277960   1.935   6.654  17.289  0.9763  2.0567  0.9777
18849TIP3   OH277961   4.790   0.252  16.291  0.5290  0.2874  0.1128
18849TIP3    H177962   4.719   0.214  16.343  1.3242 -0.5146  0.6442
18849TIP3    H277963   4.864   0.193  16.305  1.0644  0.6479 -1.1041
18850TIP3   OH277964   6.688   0.615   3.697  0.4447 -0.1515  0.1352
18850TIP3    H177965   6.683   0.705   3.729  0.9079 -0.0057 -0.2004
18850TIP3    H277966   6.715   0.564   3.773 -0.1066 -0.0568  0.4042
18851TIP3   OH277967   6.634   6.569  17.213 -0.1478 -0.7131  0.1111
18851TIP3    H177968   6.704   6.557  17.278  0.1749 -0.6058 -0.2096
18851TIP3    H277969   6.563   6.609  17.261  0.5121  0.4516  0.1583
18852TIP3   OH277970   5.882   1.736   5.153 -0.4477  0.0108  0.1004
18852TIP3    H177971   5.964   1.757   5.109 -1.2782 -0.4345 -1.7392
18852TIP3    H277972   5.885   1.787   5.234  1.8385 -0.3770  0.3258
18853TIP3   OH277973   6.464   3.131  14.969 -0.3398 -0.0524 -0.6621
18853TIP3    H177974   6.468   3.181  14.888 -0.6932  1.2629  0.1088
18853TIP3    H277975   6.374   3.099  14.974 -0.3061 -0.1690 -0.8044
18854TIP3   OH277976   4.382   5.115   5.578 -0.1425 -0.1038  0.1806
18854TIP3    H177977   4.458   5.172   5.591 -1.8081  2.3252 -0.0483
18854TIP3    H277978   4.403   5.064   5.500  1.1584  0.6847 -0.0193
18855TIP3   OH277979   0.244   2.140  12.032 -0.0734  0.4710  0.1932
18855TIP3    H177980   0.169   2.129  11.974 -0.3026 -0.9843  0.7103
18855TIP3    H277981   0.225   2.220  12.081 -0.5123  0.9879 -0.7820
18856TIP3   OH277982   1.547   2.194  14.236 -0.3967  0.5035 -0.6908
18856TIP3    H177983   1.481   2.165  14.299 -1.1982  1.1171 -1.2274
18856TIP3    H277984   1.514   2.166  14.151  0.2029  0.5244 -0.9368
18857TIP3   OH277985   5.120   5.398  10.759  0.2605  0.3437 -0.4654
18857TIP3    H177986   5.177   5.462  10.716 -0.2238  0.6185 -0.7139
18857TIP3    H277987   5.080   5.350  10.687 -0.7456  0.9736 -0.3471
18858TIP3   OH277988   1.946   4.605  12.694 -0.2325  0.0648 -0.1068
18858TIP3    H177989   1.874   4.597  12.631  1.0942 -0.4985 -1.5967
18858TIP3    H277990   1.902   4.604  12.780 -1.9290 -1.1633 -0.9261
18859TIP3   OH277991   3.356   3.861  16.280  0.4875 -0.3174 -0.2126
18859TIP3    H177992   3.393   3.776  16.305  0.4648  0.0179  1.0265
18859TIP3    H277993   3.428   3.923  16.291 -0.2202  0.2440  1.6550
18860TIP3   OH277994   0.022   2.409  15.890 -1.1501  0.5430 -0.6246
18860TIP3    H177995  -0.008   2.371  15.972  0.0327 -1.4380 -1.0538
18860TIP3    H277996  -0.024   2.360  15.822 -0.8014  0.9650 -1.1769
18861TIP3   OH277997   6.406   6.581   2.768  0.5649 -0.4014  0.5151
18861TIP3    H177998   6.482   6.639   2.776  0.8392 -1.0197  4.9267
18861TIP3    H277999   6.444   6.494   2.754  0.3047 -0.1416 -2.3758
18862TIP3   OH278000   3.901   1.732   6.659  0.0917  0.1732 -0.3244
18862TIP3    H178001   3.901   1.763   6.568  0.3393  1.4069  0.0840
18862TIP3    H278002   3.988   1.693   6.670  0.5909  1.2782 -0.2177
18863TIP3   OH278003   2.338   3.374   6.213  0.2609  0.0548 -0.0276
18863TIP3    H178004   2.399   3.355   6.284  0.0515  0.0101  0.1418
18863TIP3    H278005   2.296   3.456   6.238  0.7929  0.4754 -0.5098
18864TIP3   OH278006   6.240   3.128  16.045 -0.4077  0.0289  0.5406
18864TIP3    H178007   6.148   3.140  16.022  0.0290  0.5367 -1.0635
18864TIP3    H278008   6.262   3.041  16.012 -1.1843 -1.7076  4.1196
18865TIP3   OH278009   4.091   3.412   6.718 -0.1235 -0.2447  0.1492
18865TIP3    H178010   4.095   3.452   6.631  0.4915 -0.2552  0.1673
18865TIP3    H278011   4.183   3.397   6.742 -0.3035 -0.6046  0.6329
18866TIP3   OH278012   4.371   2.844  16.038  0.4527 -0.1134  0.2144
18866TIP3    H178013   4.423   2.913  16.079  0.0364  1.6635 -2.0296
18866TIP3    H278014   4.288   2.886  16.016  0.8072 -0.7374 -2.7616
18867TIP3   OH278015   0.397   5.382  16.061 -0.3598  0.1911 -0.1192
18867TIP3    H178016   0.450   5.320  16.011 -1.4305 -1.1060  0.2954
18867TIP3    H278017   0.459   5.451  16.087  1.0843 -1.1719  0.2043
18868TIP3   OH278018   5.078   6.226   1.318  0.3634 -0.1588  0.0810
18868TIP3    H178019   5.145   6.227   1.386  0.3640  1.6860  0.0846
18868TIP3    H278020   5.052   6.133   1.311  0.3101 -0.3927  2.6117
18869TIP3   OH278021   1.845   2.852  14.192 -0.2468 -0.5366 -0.1422
18869TIP3    H178022   1.779   2.915  14.220  0.7644  0.6338 -0.2981
18869TIP3    H278023   1.889   2.894  14.118  2.1701 -0.2561  1.3398
18870TIP3   OH278024   3.629   4.943   5.858  0.1199  0.1229 -0.6853
18870TIP3    H178025   3.672   5.010   5.911  0.4189  0.6320 -1.5490
18870TIP3    H278026   3.556   4.913   5.912  2.0443 -1.4449  1.2365
18871TIP3   OH278027   1.375   2.575  16.623 -0.3191 -0.1059  0.6327
18871TIP3    H178028   1.464   2.541  16.626  0.0613  0.9327  1.4248
18871TIP3    H278029   1.369   2.618  16.538  0.2012  0.5223  0.9107
18872TIP3   OH278030   6.158   1.820  13.752 -0.0408 -0.4528 -0.3675
18872TIP3    H178031   6.215   1.776  13.689  0.8937 -0.2324  0.3007
18872TIP3    H278032   6.205   1.813  13.835 -0.7735  0.1445  0.1025
18873TIP3   OH278033   3.180   4.084  12.693  0.1879  0.7810 -0.1253
18873TIP3    H178034   3.230   4.130  12.759 -0.0003 -0.3375  0.8363
18873TIP3    H278035   3.213   3.994  12.696 -0.8459  0.3678 -0.4980
18874TIP3   OH278036   1.848   4.452   5.776  0.1000 -0.2491  0.0562
18874TIP3    H178037   1.916   4.499   5.728  0.5018  0.2846  1.1270
18874TIP3    H278038   1.837   4.370   5.727  2.6340 -1.0793  0.7220
18875TIP3   OH278039   5.115   6.279  15.018  0.3766  0.6679 -0.1787
18875TIP3    H178040   5.054   6.238  15.080  0.4144  2.2419  0.9730
18875TIP3    H278041   5.200   6.240  15.038  0.1069 -0.0002 -0.3380
18876TIP3   OH278042   1.293   6.143  12.020  0.4104  0.4342  0.3521
18876TIP3    H178043   1.285   6.119  11.928  1.6215 -0.1627  0.3781
18876TIP3    H278044   1.234   6.084  12.066  0.3252  0.2638  0.0241
18877TIP3   OH278045   5.178   4.997   0.690 -0.0092 -0.1114 -0.7561
18877TIP3    H178046   5.204   5.086   0.714  1.5487 -0.9256  0.7409
18877TIP3    H278047   5.083   5.002   0.680 -0.2545  1.2287  1.5490
18878TIP3   OH278048   6.360   5.418   2.303 -0.2207  0.2921  0.0624
18878TIP3    H178049   6.427   5.389   2.365 -0.9046  0.7711  1.0566
18878TIP3    H278050   6.354   5.512   2.317  1.8479  1.0214 -2.9936
18879TIP3   OH278051   0.931   4.277  12.893  0.0691  0.1010  0.5651
18879TIP3    H178052   0.924   4.191  12.934 -0.0717  0.5766  1.5764
18879TIP3    H278053   0.890   4.337  12.956  0.0202  0.8895 -0.1931
18880TIP3   OH278054   6.494   2.304  15.422  0.2648  0.3101 -0.2861
18880TIP3    H178055   6.436   2.338  15.355 -0.2532  0.5588  0.2807
18880TIP3    H278056   6.437   2.289  15.498  0.3252 -2.3487 -0.6632
18881TIP3   OH278057   6.404   1.294   0.796  0.5328 -0.4490 -0.0261
18881TIP3    H178058   6.331   1.356   0.803  1.0200  0.0349  1.1652
18881TIP3    H278059   6.368   1.211   0.828  0.5161 -0.1938  0.6343
18882TIP3   OH278060   5.276   1.182  13.630  0.5758  0.2213 -0.2601
18882TIP3    H178061   5.241   1.243  13.565 -2.7769 -1.2073 -0.0042
18882TIP3    H278062   5.300   1.104  13.580 -1.1291 -0.5322  0.0415
18883TIP3   OH278063   5.971   5.270   6.235  0.1789 -0.8483 -0.0567
18883TIP3    H178064   6.062   5.242   6.231 -0.1655 -1.9228 -1.0892
18883TIP3    H278065   5.921   5.194   6.205 -1.0171 -0.0550 -0.1663
18884TIP3   OH278066   3.244   1.394   5.591  0.1559  0.1788 -0.1731
18884TIP3    H178067   3.195   1.338   5.530  0.0166  0.8993 -0.7425
18884TIP3    H278068   3.336   1.372   5.575  0.3104  2.1120 -2.4991
18885TIP3   OH278069   1.096   0.839   4.556 -0.5546 -0.2933  0.2572
18885TIP3    H178070   1.181   0.814   4.520 -0.6531  0.1998 -0.3436
18885TIP3    H278071   1.049   0.757   4.567  1.0836 -0.9516  3.5469
18886TIP3   OH278072   3.418   3.215  15.915  0.1384 -0.6748  0.0719
18886TIP3    H178073   3.492   3.243  15.970 -0.2551 -2.6029  1.6846
18886TIP3    H278074   3.341   3.227  15.971 -0.5710 -0.4635 -0.9228
18887TIP3   OH278075   0.788   3.817  16.640  0.6813 -0.0266 -0.2813
18887TIP3    H178076   0.781   3.811  16.735  0.6852 -0.5307 -0.3079
18887TIP3    H278077   0.859   3.878  16.625 -0.8150  1.8991  0.0217
18888TIP3   OH278078   5.428   3.211   1.672 -0.1825  0.0261  0.4341
18888TIP3    H178079   5.454   3.126   1.707  0.7556 -0.0003 -0.2810
18888TIP3    H278080   5.338   3.223   1.702  0.1039 -0.6423  1.6046
18889TIP3   OH278081   2.335   5.649  16.726  0.5529  0.3579  0.6756
18889TIP3    H178082   2.288   5.723  16.766  0.9796  1.5188 -0.8556
18889TIP3    H278083   2.423   5.683  16.711  1.5603 -1.3855  2.3827
18890TIP3   OH278084   4.966   3.211  13.702 -0.2559 -0.3621 -0.5899
18890TIP3    H178085   4.982   3.218  13.796  4.5379 -2.1152 -0.9976
18890TIP3    H278086   4.945   3.119  13.687  0.3683 -0.4001 -1.3328
18891TIP3   OH278087   0.523   1.178   4.508  0.2172 -0.5152  0.0238
18891TIP3    H178088   0.606   1.195   4.554  1.1049 -1.1891 -1.2677
18891TIP3    H278089   0.488   1.264   4.489  1.2608 -0.1846 -0.4929
18892TIP3   OH278090   4.703   2.726  12.980 -0.2639  0.3271  0.7750
18892TIP3    H178091   4.766   2.657  13.000  0.0118  1.0515  2.5507
18892TIP3    H278092   4.724   2.796  13.041 -2.0661  1.0484  0.6260
18893TIP3   OH278093   0.376   3.037  14.246 -0.2193  0.8178 -0.8181
18893TIP3    H178094   0.467   3.030  14.217  0.1114 -2.2301  0.6504
18893TIP3    H278095   0.330   2.968  14.199 -1.6397  1.7396 -0.8475
18894TIP3   OH278096   5.745   1.998   1.039 -0.4773 -0.2339  0.1717
18894TIP3    H178097   5.828   2.046   1.046  0.9154 -2.5847  0.7359
18894TIP3    H278098   5.735   1.981   0.945 -0.9622  1.0347 -0.0299
18895TIP3   OH278099   0.825   5.263  16.353 -0.0687 -0.2284  0.6433
18895TIP3    H178100   0.777   5.265  16.436 -1.6683  2.0839 -0.2237
18895TIP3    H278101   0.783   5.330  16.300  2.3476 -0.0831 -1.2612
18896TIP3   OH278102   4.651   6.362   5.955  0.4290  0.2466  0.0261
18896TIP3    H178103   4.726   6.354   5.897 -0.5585  1.1821 -1.4480
18896TIP3    H278104   4.582   6.400   5.901 -0.1934  2.3229  2.1046
18897TIP3   OH278105   1.486   5.831  15.711 -0.0453  0.7537  0.3381
18897TIP3    H178106   1.551   5.832  15.641  0.4890 -0.7463  0.7996
18897TIP3    H278107   1.506   5.754  15.763 -2.2933  0.1394  0.3915
18898TIP3   OH278108   1.723   5.928   2.660  0.5078  0.0670  0.3999
18898TIP3    H178109   1.675   5.951   2.581  0.8442 -2.1264 -0.5112
18898TIP3    H278110   1.814   5.921   2.631  0.6123 -0.9004  0.9088
18899TIP3   OH278111   6.267   3.371   3.026 -0.0795 -0.0003 -0.5550
18899TIP3    H178112   6.216   3.451   3.010  0.6725  0.4946 -0.5242
18899TIP3    H278113   6.207   3.314   3.074 -0.5831  0.6022 -0.4496
18900TIP3   OH278114   3.433   3.101   0.393  1.0255 -0.1545  0.5281
18900TIP3    H178115   3.457   3.013   0.363  1.7084  0.4843 -0.9255
18900TIP3    H278116   3.364   3.129   0.333  1.8384  0.8408  0.0181
18901TIP3   OH278117   6.741   6.686   2.962  0.0833  0.1475  0.4522
18901TIP3    H178118   6.744   6.611   3.022 -0.8676 -0.8656 -0.7242
18901TIP3    H278119   6.769   6.651   2.878  0.5323  1.3501  0.0835
18902TIP3   OH278120   3.423   2.636   4.792  0.2113  0.0341 -0.2201
18902TIP3    H178121   3.436   2.680   4.876  2.3625 -0.8090 -0.0447
18902TIP3    H278122   3.371   2.559   4.813  1.7114 -0.8050  0.6048
18903TIP3   OH278123   3.103   0.564  12.799  0.3326 -0.4001 -0.3910
18903TIP3    H178124   3.178   0.606  12.757  0.8164 -0.6599  0.2061
18903TIP3    H278125   3.108   0.591  12.890  0.4732 -1.5159 -0.0617
18904TIP3   OH278126   4.259   4.235  16.650  0.2669  0.2767 -0.0648
18904TIP3    H178127   4.199   4.309  16.660 -1.8074 -1.4836  1.6016
18904TIP3    H278128   4.242   4.202  16.562  0.8840  1.4462 -0.6507
18905TIP3   OH278129   5.213   1.424  13.861  0.0949 -0.5695 -0.2409
18905TIP3    H178130   5.266   1.437  13.782 -0.5829 -0.2771 -0.6584
18905TIP3    H278131   5.241   1.339  13.895 -1.0177 -1.6749 -1.9322
18906TIP3   OH278132   5.189   1.819   1.466 -0.1331  0.1860 -0.6806
18906TIP3    H178133   5.240   1.741   1.442  0.7098 -0.1780  1.9475
18906TIP3    H278134   5.099   1.788   1.472 -0.1249 -0.0648 -1.6945
18907TIP3   OH278135   6.238   0.035  10.805  0.2684  0.5772  0.4958
18907TIP3    H178136   6.281  -0.051  10.801 -0.3722  0.2069  1.2456
18907TIP3    H278137   6.309   0.098  10.806  0.7598  0.0339  0.3582
18908TIP3   OH278138   2.803   3.429   6.236  0.2684  0.6224 -0.5706
18908TIP3    H178139   2.768   3.355   6.285  0.1332 -0.7134 -2.5368
18908TIP3    H278140   2.861   3.474   6.297  0.4894 -1.2107  0.6271
18909TIP3   OH278141   3.468   2.038  15.411  0.3415  0.1725 -0.5359
18909TIP3    H178142   3.471   2.000  15.499 -1.0974  0.7727 -0.2043
18909TIP3    H278143   3.417   1.975  15.360 -1.1641  1.1010 -0.2391
18910TIP3   OH278144   0.880   0.690  14.230  0.0916  0.1890  0.3831
18910TIP3    H178145   0.890   0.649  14.316 -1.5278 -0.6013  0.2227
18910TIP3    H278146   0.803   0.649  14.192  1.2466 -0.0734 -1.8300
18911TIP3   OH278147   2.015   0.157   1.824  0.5024  0.2540 -0.0701
18911TIP3    H178148   2.050   0.078   1.782  0.5189  1.1955 -1.8815
18911TIP3    H278149   2.086   0.188   1.879  0.5020 -0.9641  0.6657
18912TIP3   OH278150   4.989   5.457  13.395  0.5416  0.0860  0.3498
18912TIP3    H178151   4.915   5.397  13.404 -0.2152  1.1997  2.0651
18912TIP3    H278152   4.960   5.537  13.438  2.5340  0.7585  0.5281
18913TIP3   OH278153   4.510   3.064  16.136 -0.0304  0.0846 -0.8611
18913TIP3    H178154   4.439   3.128  16.142 -0.9160 -0.9229 -0.0660
18913TIP3    H278155   4.544   3.058  16.226 -0.6568 -1.2895 -0.6919
18914TIP3   OH278156   3.164   1.217  16.936 -0.0696 -0.0852  0.5688
18914TIP3    H178157   3.158   1.126  16.908 -2.0011  0.0421  0.4157
18914TIP3    H278158   3.202   1.263  16.861  0.2586 -0.6612  0.3820
18915TIP3   OH278159   2.285   4.979   5.874  0.4628  0.0736  0.0773
18915TIP3    H178160   2.312   5.064   5.839 -0.4325  0.1767 -0.4013
18915TIP3    H278161   2.274   4.994   5.968  0.8362  0.3426  0.0798
18916TIP3   OH278162   2.218   6.700   4.425 -0.6026  0.4110 -0.3352
18916TIP3    H178163   2.263   6.741   4.499 -0.5958  0.0283 -0.1257
18916TIP3    H278164   2.135   6.669   4.462 -0.6070  0.2369 -0.4913
18917TIP3   OH278165   3.149   1.482  11.920  0.5496  0.3766  0.1418
18917TIP3    H178166   3.197   1.406  11.953  0.0375  1.0054  2.5311
18917TIP3    H278167   3.065   1.478  11.965 -0.0125  1.6127 -0.7505
18918TIP3   OH278168   5.264   5.689   1.999  0.0160 -0.2204 -0.4649
18918TIP3    H178169   5.198   5.622   2.016  0.1975  0.0919  1.8981
18918TIP3    H278170   5.345   5.640   1.985  0.4335 -0.6278  2.5608
18919TIP3   OH278171   3.571   1.503  16.585 -0.2653  0.4091  0.2496
18919TIP3    H178172   3.551   1.543  16.670 -1.3292  1.9027 -0.6498
18919TIP3    H278173   3.648   1.551  16.554  1.2148 -1.3009  1.0680
18920TIP3   OH278174   2.931   1.258   3.961 -0.2759 -0.7231 -0.1190
18920TIP3    H178175   2.983   1.178   3.961  1.2748  0.0920  3.4111
18920TIP3    H278176   2.986   1.323   4.003 -2.9309  1.1496  0.7578
18921TIP3   OH278177   6.422   2.281  12.638 -0.7208  0.4593  0.3719
18921TIP3    H178178   6.442   2.187  12.636 -1.2119  0.3647 -0.1190
18921TIP3    H278179   6.493   2.321  12.588  0.3402  0.5218  1.8429
18922TIP3   OH278180   2.992   6.711   1.505 -0.4451 -0.0476 -0.0759
18922TIP3    H178181   2.998   6.770   1.579 -1.8356 -2.4217  2.0918
18922TIP3    H278182   3.081   6.677   1.493 -0.5976 -1.4119  2.1613
18923TIP3   OH278183   3.530   4.583   3.992 -0.4531  0.4160  0.2168
18923TIP3    H178184   3.549   4.541   4.076  0.7417 -0.4881 -0.4596
18923TIP3    H278185   3.581   4.664   3.993 -0.0605  0.1729  0.1882
18924TIP3   OH278186   5.783   5.395  17.346 -0.4469  0.0744  0.0022
18924TIP3    H178187   5.760   5.432  17.261  0.6610 -0.4152 -0.5274
18924TIP3    H278188   5.789   5.301  17.331  1.2474  0.1157  0.2400
18925TIP3   OH278189   6.570   5.090   4.333  0.2053 -0.2977  0.0583
18925TIP3    H178190   6.621   5.009   4.339  0.1087 -0.3789 -0.2129
18925TIP3    H278191   6.491   5.065   4.285  0.3474  0.0432 -0.3524
18926TIP3   OH278192   0.758   5.776   6.336 -0.2590  0.3516 -0.1119
18926TIP3    H178193   0.717   5.733   6.411 -0.5447  0.1409 -0.3921
18926TIP3    H278194   0.839   5.727   6.322  0.1726  0.8581  0.5313
18927TIP3   OH278195   3.713   5.490  14.492  0.6278 -0.5415 -0.1639
18927TIP3    H178196   3.767   5.427  14.443  0.1403 -0.4786 -0.8035
18927TIP3    H278197   3.748   5.575  14.467  0.2280 -0.4998 -0.5911
18928TIP3   OH278198   1.369   3.897   2.798 -0.3952  0.0747 -0.3000
18928TIP3    H178199   1.280   3.927   2.815  0.1629  1.6627  0.0362
18928TIP3    H278200   1.362   3.802   2.793 -1.9829  0.1168  0.4439
18929TIP3   OH278201   5.975   1.472  13.976 -0.4621 -0.9420 -0.4430
18929TIP3    H178202   5.981   1.515  13.891 -2.4175 -0.9804 -0.6400
18929TIP3    H278203   5.992   1.542  14.039  0.7248 -0.8564 -0.8385
18930TIP3   OH278204   1.955   3.523  11.668  0.0789 -0.4660  0.0429
18930TIP3    H178205   1.999   3.522  11.583  1.1574 -1.1018  0.5893
18930TIP3    H278206   1.907   3.440  11.671 -1.5420  0.3835 -0.7076
18931TIP3   OH278207   0.717   4.424  15.051 -0.3712  0.4058 -0.1439
18931TIP3    H178208   0.641   4.366  15.043 -1.2383  1.4223  0.4847
18931TIP3    H278209   0.771   4.383  15.119 -0.8214  0.1644  0.0769
18932TIP3   OH278210   2.813   3.789   2.882  0.0822 -0.1029 -0.0271
18932TIP3    H178211   2.738   3.730   2.879 -0.6817  0.7325  1.2439
18932TIP3    H278212   2.886   3.735   2.912  0.0951 -1.0002 -1.6019
18933TIP3   OH278213   1.208   4.944  15.136 -0.6339 -0.3542  0.4348
18933TIP3    H178214   1.185   5.026  15.093  0.1806 -0.7059 -0.7191
18933TIP3    H278215   1.130   4.919  15.185 -1.6458 -0.0187 -0.9729
18934TIP3   OH278216   2.467   0.918   3.964  0.1974  0.2802 -0.4625
18934TIP3    H178217   2.420   0.854   3.910  1.4897 -0.7841 -0.3782
18934TIP3    H278218   2.443   0.895   4.054  0.6393 -0.0960 -0.4338
18935TIP3   OH278219   3.389   2.490   4.046 -0.3670  0.2283  0.3715
18935TIP3    H178220   3.310   2.473   3.994  1.1118 -0.0140 -1.9818
18935TIP3    H278221   3.428   2.566   4.004  0.9131  0.0293  1.1706
18936TIP3   OH278222   0.926   3.719   5.779  0.5766 -0.3675 -0.3622
18936TIP3    H178223   0.974   3.644   5.744  0.8132 -0.6544  0.5628
18936TIP3    H278224   0.949   3.722   5.872 -0.6844 -0.1243 -0.0307
18937TIP3   OH278225   1.892   4.397  14.334  0.2611  0.4006 -0.6162
18937TIP3    H178226   1.987   4.389  14.324  0.2082 -0.7544 -0.3169
18937TIP3    H278227   1.862   4.308  14.348 -0.6289  0.9661  1.4185
18938TIP3   OH278228   2.409   0.739  15.895  0.0214 -0.1016  0.7358
18938TIP3    H178229   2.322   0.768  15.923  0.7724  0.6187  2.4533
18938TIP3    H278230   2.456   0.723  15.977  1.1915 -1.5009 -0.1653
18939TIP3   OH278231   4.274   5.998  12.503 -0.7660  0.0165 -0.9284
18939TIP3    H178232   4.214   5.956  12.564  1.1544 -1.3336  0.1128
18939TIP3    H278233   4.361   5.972  12.532  0.3917  2.1531 -2.1927
18940TIP3   OH278234   2.620   4.833  13.908  0.0089 -0.2290  0.3050
18940TIP3    H178235   2.709   4.867  13.896 -0.1245  0.1383  0.3727
18940TIP3    H278236   2.625   4.781  13.988 -0.4269  1.8015  1.7076
18941TIP3   OH278237   5.369   3.623  14.817 -0.1511 -0.3141 -0.1828
18941TIP3    H178238   5.364   3.582  14.903 -2.7194  0.6428  0.2094
18941TIP3    H278239   5.463   3.627  14.798  0.5280 -0.3046  2.6910
18942TIP3   OH278240   4.159   4.640  16.694 -0.0145  0.7594 -0.3348
18942TIP3    H178241   4.094   4.697  16.736  0.3789  0.6664  0.4090
18942TIP3    H278242   4.113   4.557  16.681  0.3529  0.2443  1.4534
18943TIP3   OH278243   6.579   0.227  14.062  0.2620 -0.5766  0.1075
18943TIP3    H178244   6.545   0.198  14.147  0.1735 -1.6354 -0.2698
18943TIP3    H278245   6.662   0.270  14.083 -1.5747  2.8388  1.1499
18944TIP3   OH278246   3.728   4.529   2.973 -0.4610  0.7253  0.3990
18944TIP3    H178247   3.775   4.537   3.056  1.2645  1.1994 -0.5649
18944TIP3    H278248   3.708   4.619   2.947 -1.3824  0.5592  0.4915
18945TIP3   OH278249   6.179   4.594  12.905  0.0024 -0.5219  0.1596
18945TIP3    H178250   6.137   4.523  12.954 -2.7503 -0.0378 -1.2994
18945TIP3    H278251   6.199   4.556  12.820  0.3065 -0.0678  0.0272
18946TIP3   OH278252   5.198   1.324  13.408 -0.0605 -0.1417 -0.4263
18946TIP3    H178253   5.223   1.415  13.423 -0.2697 -0.2402  0.5544
18946TIP3    H278254   5.158   1.324  13.321 -1.9574  1.0816  0.3995
18947TIP3   OH278255   1.078   0.545  14.102  0.4213 -0.2106 -0.0033
18947TIP3    H178256   1.010   0.599  14.143  0.0527  0.7204 -1.7455
18947TIP3    H278257   1.034   0.462  14.083  0.1842 -0.1293  0.1835
18948TIP3   OH278258   6.485   2.988   0.162  0.1992  0.2121 -0.0099
18948TIP3    H178259   6.432   3.068   0.164 -0.2591 -0.0364 -1.2576
18948TIP3    H278260   6.429   2.924   0.118 -0.2630 -1.4326  2.7515
18949TIP3   OH278261   4.091   2.923   0.739 -0.2334 -0.2394 -0.6176
18949TIP3    H178262   4.017   2.984   0.737 -0.1461 -0.1410 -1.5389
18949TIP3    H278263   4.164   2.974   0.705  0.0287 -0.6246 -0.6316
18950TIP3   OH278264   6.435   6.682   4.120  0.4945 -0.6618  0.0523
18950TIP3    H178265   6.355   6.657   4.165  0.0296  1.7122  0.6499
18950TIP3    H278266   6.408   6.698   4.030  0.0125  1.3228  0.5223
18951TIP3   OH278267   6.552   5.594   3.809 -0.3359  0.1524  0.4116
18951TIP3    H178268   6.568   5.536   3.735  0.8665  0.5642  0.3291
18951TIP3    H278269   6.457   5.591   3.822 -0.5198 -0.1956 -0.9127
18952TIP3   OH278270   5.570   4.371  11.923  0.5230 -0.2761  0.6736
18952TIP3    H178271   5.564   4.290  11.871 -1.5450  1.1511 -1.5446
18952TIP3    H278272   5.611   4.434  11.864 -0.4503  1.0027  1.3215
18953TIP3   OH278273   4.614   5.899  11.460 -0.3094 -0.1579 -0.0277
18953TIP3    H178274   4.671   5.959  11.410  0.5251 -0.6847  0.2658
18953TIP3    H278275   4.526   5.921  11.432  0.0861  0.1664 -1.0788
18954TIP3   OH278276   4.239   4.915  14.230  0.3868  0.1166  0.4143
18954TIP3    H178277   4.279   4.848  14.175  1.1493  0.5116  0.4745
18954TIP3    H278278   4.169   4.870  14.276  1.7273 -0.9665  1.4650
18955TIP3   OH278279   0.851   2.038   4.490 -0.2049 -0.1218 -0.8237
18955TIP3    H178280   0.864   2.126   4.454  1.3435 -0.1105 -0.3008
18955TIP3    H278281   0.902   2.038   4.571 -2.2246 -0.6967  0.5103
18956TIP3   OH278282   5.648   3.731  11.368  0.5679  0.2365  0.0852
18956TIP3    H178283   5.722   3.788  11.347  0.8121 -0.6729 -1.7382
18956TIP3    H278284   5.687   3.657  11.414  0.4891  0.7014  0.9169
18957TIP3   OH278285   2.052   3.503  14.330 -0.1447  0.2155 -0.1960
18957TIP3    H178286   2.110   3.513  14.406  0.9886 -0.4538 -0.9361
18957TIP3    H278287   1.988   3.437  14.358 -1.1457  1.6246  0.9496
18958TIP3   OH278288   5.426   5.918   6.119 -0.1627  0.1246 -0.0921
18958TIP3    H178289   5.362   5.983   6.090 -0.4639 -0.7833 -1.6042
18958TIP3    H278290   5.374   5.851   6.163 -0.0007  0.3541  0.4475
18959TIP3   OH278291   5.235   0.919   5.131 -0.3011  0.1504  0.1685
18959TIP3    H178292   5.327   0.941   5.148 -0.5652  1.7427 -0.3007
18959TIP3    H278293   5.191   0.933   5.215 -0.2625  0.2176  0.1771
18960TIP3   OH278294   2.379   1.749   5.002 -0.3200 -0.1155 -0.2125
18960TIP3    H178295   2.373   1.824   5.061 -0.9012 -0.0124 -0.3950
18960TIP3    H278296   2.443   1.775   4.936  0.5566 -0.3442  0.5234
18961TIP3   OH278297   6.180   5.974  14.540 -0.3201 -0.0322  0.2453
18961TIP3    H178298   6.160   6.039  14.473  0.8402  0.4641  0.3423
18961TIP3    H278299   6.239   6.020  14.600 -0.3380 -0.8524  0.9056
18962TIP3   OH278300   0.739   0.841   2.208 -0.2178 -0.0407 -0.0826
18962TIP3    H178301   0.813   0.795   2.248 -0.6082 -1.2547 -0.7135
18962TIP3    H278302   0.761   0.934   2.218  1.6417 -0.3665 -0.6819
18963TIP3   OH278303   3.694   5.373  13.918 -0.2291  0.6065  0.1195
18963TIP3    H178304   3.691   5.290  13.965 -1.0986  1.3149  1.3786
18963TIP3    H278305   3.786   5.401  13.924  0.1253 -0.3673 -0.5519
18964TIP3   OH278306   3.352   3.447   3.496  0.6149  0.1450 -0.1464
18964TIP3    H178307   3.396   3.446   3.411  2.1958  1.4209  0.6057
18964TIP3    H278308   3.267   3.405   3.479  1.9483 -2.1635 -1.7327
18965TIP3   OH278309   3.291   1.881  12.373  0.0037  0.1816  0.4742
18965TIP3    H178310   3.273   1.972  12.349  0.2726  0.3676  0.9818
18965TIP3    H278311   3.289   1.834  12.289  0.4758  0.7540  0.1331
18966TIP3   OH278312   2.770   4.356   4.104  0.2308  0.0324 -0.0300
18966TIP3    H178313   2.772   4.260   4.108  0.5194  0.0718  1.4228
18966TIP3    H278314   2.685   4.380   4.141  0.1339  0.3468 -0.4429
18967TIP3   OH278315   4.660   6.717  12.810  0.0748 -0.2437 -0.3218
18967TIP3    H178316   4.687   6.658  12.739 -2.3647 -0.9140 -0.7817
18967TIP3    H278317   4.582   6.676  12.847 -0.3460  1.5429  0.9024
18968TIP3   OH278318   0.874   2.772   2.749  0.0442  0.3927 -0.0686
18968TIP3    H178319   0.848   2.732   2.832  0.4719 -1.1407 -0.6496
18968TIP3    H278320   0.791   2.797   2.708 -0.3441 -1.1794 -0.3046
18969TIP3   OH278321   4.290   4.640  17.331 -0.3071  0.0293 -0.3876
18969TIP3    H178322   4.322   4.726  17.303  0.5931 -0.2847 -0.3483
18969TIP3    H278323   4.222   4.660  17.394  0.7478  0.7232  0.5737
18970TIP3   OH278324   2.050   1.519   1.569  0.7076  0.2555  0.1230
18970TIP3    H178325   2.101   1.579   1.514  1.5490 -1.5939 -1.2110
18970TIP3    H278326   1.970   1.503   1.520  0.4768  0.3077  0.4824
18971TIP3   OH278327   4.921   3.827   5.435 -0.0078 -0.1516  0.6995
18971TIP3    H178328   4.833   3.863   5.421 -0.1521 -0.4967  0.7158
18971TIP3    H278329   4.949   3.798   5.348  1.0218  2.0232  0.2387
18972TIP3   OH278330   0.790   6.229   1.271  0.2653  0.8249  0.0147
18972TIP3    H178331   0.815   6.137   1.279 -0.2114  0.8463  2.7854
18972TIP3    H278332   0.713   6.238   1.327 -0.9524  2.5296 -1.7727
18973TIP3   OH278333   6.338   4.495   4.620  0.5664 -0.4634 -0.0463
18973TIP3    H178334   6.329   4.408   4.661  1.5035  0.4770  2.3186
18973TIP3    H278335   6.380   4.549   4.687 -1.4242  2.2757 -0.8502
18974TIP3   OH278336   2.981   6.038  17.325 -0.1198 -0.2971 -0.3777
18974TIP3    H178337   2.903   5.983  17.314  0.7356 -2.0487  1.5755
18974TIP3    H278338   2.947   6.128  17.328 -1.9743 -0.9520 -0.3378
18975TIP3   OH278339   5.450   1.505   0.928  0.1833 -0.5053  0.1963
18975TIP3    H178340   5.464   1.590   0.970 -1.4851 -1.2746  2.5874
18975TIP3    H278341   5.475   1.442   0.995 -1.9279 -1.8452 -0.1828
18976TIP3   OH278342   4.018   4.316  12.634 -0.0597 -0.3973 -0.3474
18976TIP3    H178343   4.049   4.365  12.558  1.6517 -0.6750  0.1280
18976TIP3    H278344   4.028   4.377  12.708 -0.1756 -0.6567 -0.1160
18977TIP3   OH278345   2.525   1.428  12.461  0.5091 -0.2554 -0.3766
18977TIP3    H178346   2.495   1.467  12.379 -1.0324  0.7495  0.6071
18977TIP3    H278347   2.563   1.501  12.510  0.1174 -0.5337  0.3645
18978TIP3   OH278348   4.103   1.282   1.429 -0.1452  0.1724  0.5140
18978TIP3    H178349   4.059   1.202   1.457  0.5999 -1.0795 -1.6145
18978TIP3    H278350   4.089   1.344   1.500 -3.1415 -0.9424  1.0251
18979TIP3   OH278351   1.439   2.117  11.597  0.1904  0.5946  0.2815
18979TIP3    H178352   1.518   2.128  11.544 -0.0938 -0.7224 -0.4736
18979TIP3    H278353   1.368   2.112  11.533 -0.6055  2.3490  0.9755
18980TIP3   OH278354   3.883   6.037   1.338  0.7191 -0.4479 -0.0411
18980TIP3    H178355   3.975   6.024   1.312  0.6145  0.6608 -1.0486
18980TIP3    H278356   3.835   5.975   1.283  0.8109 -0.6035  0.0525
18981TIP3   OH278357   0.616   1.879  14.951 -0.1615  0.4239  0.0044
18981TIP3    H178358   0.711   1.882  14.935 -0.1255 -2.1431 -0.7778
18981TIP3    H278359   0.576   1.883  14.864 -0.7316  0.6763  0.2730
18982TIP3   OH278360   4.898   3.451   6.131 -0.2272  0.1277 -0.0715
18982TIP3    H178361   4.932   3.478   6.216  0.5716 -1.0096 -0.0007
18982TIP3    H278362   4.926   3.520   6.071 -0.1270  0.5523  0.4603
18983TIP3   OH278363   3.806   2.950  11.089  0.1848  0.5114  0.0751
18983TIP3    H178364   3.788   2.882  11.023  1.8664  0.3267 -0.2496
18983TIP3    H278365   3.902   2.958  11.089  0.0152  3.7888 -0.8091
18984TIP3   OH278366   6.554   4.113   5.617 -0.0435  0.4716  0.1922
18984TIP3    H178367   6.468   4.154   5.621 -0.4465 -0.1419 -1.3896
18984TIP3    H278368   6.546   4.047   5.549  1.9954  1.1493 -0.7987
18985TIP3   OH278369   1.563   2.374   5.060  0.2710  1.0358  0.0990
18985TIP3    H178370   1.581   2.448   5.001 -0.5329  1.6097  0.5497
18985TIP3    H278371   1.636   2.314   5.046 -0.6818  0.3645 -2.6816
18986TIP3   OH278372   6.752   1.426  14.735 -0.6245 -0.0615  0.1328
18986TIP3    H178373   6.788   1.371  14.665 -2.8466 -0.3286 -0.8704
18986TIP3    H278374   6.789   1.513  14.719  0.6698 -0.5986  0.0374
18987TIP3   OH278375   5.344   6.278   1.095  0.4598 -0.2698  0.2576
18987TIP3    H178376   5.299   6.358   1.121  0.7600  0.6002 -1.6567
18987TIP3    H278377   5.275   6.223   1.057  0.5836 -0.0081 -0.3582
18988TIP3   OH278378   3.235   0.703  15.875 -0.1790 -0.4117  0.5253
18988TIP3    H178379   3.220   0.780  15.821  1.2745  0.3490  1.1343
18988TIP3    H278380   3.165   0.642  15.851 -0.5651  0.5621 -0.9480
18989TIP3   OH278381   5.793   5.501  15.276  0.6636 -0.4282  0.1335
18989TIP3    H178382   5.880   5.509  15.315  0.1623 -0.2549  1.2564
18989TIP3    H278383   5.787   5.573  15.214  0.2899  1.3455  2.1112
18990TIP3   OH278384   4.279   5.073   3.001 -0.1677 -0.1326 -0.4960
18990TIP3    H178385   4.187   5.088   2.976 -0.1636 -0.9584 -1.0840
18990TIP3    H278386   4.281   4.981   3.029  0.5793 -0.2851 -1.0157
18991TIP3   OH278387   2.476   6.412  14.301  0.6153  0.0232 -0.2817
18991TIP3    H178388   2.391   6.406  14.343  1.3565 -1.3896  1.1299
18991TIP3    H278389   2.523   6.479  14.352  0.8547 -0.3021 -0.0673
18992TIP3   OH278390   6.037   4.439  11.432  0.5919 -0.2043 -0.4797
18992TIP3    H178391   6.027   4.401  11.345  0.7534 -0.0769 -0.5542
18992TIP3    H278392   5.982   4.385  11.488  0.9331 -0.6303 -0.5573
18993TIP3   OH278393   3.110   1.751   6.085  0.0773 -0.2823 -0.1789
18993TIP3    H178394   3.195   1.796   6.079  0.3760 -0.9474 -1.2218
18993TIP3    H278395   3.058   1.790   6.014 -0.2054 -0.4530 -0.0657
18994TIP3   OH278396   1.039   3.252   2.560 -0.2821  0.2927 -0.0459
18994TIP3    H178397   1.111   3.302   2.600 -0.9501  0.0012  1.6223
18994TIP3    H278398   1.016   3.186   2.625 -2.0856  0.4063 -0.4950
18995TIP3   OH278399   2.499   0.010  10.427 -0.5975  0.8104 -0.2971
18995TIP3    H178400   2.489  -0.081  10.457  0.0403  0.1420 -2.0064
18995TIP3    H278401   2.424   0.023  10.369 -1.4298  1.8618  0.9456
18996TIP3   OH278402   2.625   5.425  13.100  0.2269  0.0376 -0.4507
18996TIP3    H178403   2.627   5.521  13.104 -1.5921  0.0849  0.2124
18996TIP3    H278404   2.648   5.397  13.189  0.1921 -0.1103 -0.4886
18997TIP3   OH278405   1.184   4.506   3.899  0.3320  0.0011 -0.0336
18997TIP3    H178406   1.122   4.439   3.929  1.5802 -0.8779  0.7083
18997TIP3    H278407   1.164   4.583   3.952 -1.4332  0.4255 -1.2189
18998TIP3   OH278408   1.483   0.387  17.172  0.0128  0.4312  0.6549
18998TIP3    H178409   1.517   0.364  17.258  1.9054  1.9323  0.3810
18998TIP3    H278410   1.483   0.304  17.123  0.3334 -0.1613  1.6400
18999TIP3   OH278411   3.342   1.193  14.768 -0.2493 -0.4492 -0.0767
18999TIP3    H178412   3.429   1.215  14.801 -0.4079 -1.9205  1.4112
18999TIP3    H278413   3.355   1.180  14.674  0.7625  1.1007 -0.1879
19000TIP3   OH278414   0.300   2.168  15.658  0.3959  0.3236 -0.2181
19000TIP3    H178415   0.387   2.199  15.632  1.0031 -0.0866  1.2564
19000TIP3    H278416   0.240   2.235  15.624  1.0919 -0.1753 -2.6486
19001TIP3   OH278417   1.957   5.009   0.040  0.8981  0.8402  0.5059
19001TIP3    H178418   2.041   4.990   0.082 -0.2177  1.5024  3.2991
19001TIP3    H278419   1.938   5.099   0.066  0.8403  1.9725 -2.9678
19002TIP3   OH278420   0.445   3.814  14.764  0.0203 -0.1828 -0.0385
19002TIP3    H178421   0.370   3.791  14.818  0.1198  1.0729  0.6797
19002TIP3    H278422   0.490   3.731  14.748 -1.2553 -0.8879 -0.1090
19003TIP3   OH278423   0.331   5.878  15.854 -0.2800 -0.2846 -0.1842
19003TIP3    H178424   0.345   5.791  15.817 -3.9056 -0.8308 -0.6351
19003TIP3    H278425   0.378   5.937  15.795  1.5484 -1.7923 -0.3441
19004TIP3   OH278426   4.672   0.880  16.442  0.2806  0.4897 -0.0398
19004TIP3    H178427   4.765   0.877  16.463  0.2120  0.1309  0.2135
19004TIP3    H278428   4.644   0.789  16.441  0.0804  0.5497 -0.7916
19005TIP3   OH278429   4.115   2.204   4.933  0.0447  0.2180 -0.5724
19005TIP3    H178430   4.051   2.243   4.873 -1.6963 -0.4083  0.7808
19005TIP3    H278431   4.200   2.224   4.894 -0.9817 -0.0618 -3.1605
19006TIP3   OH278432   1.888   1.182  13.501 -0.0454 -0.4863 -0.4513
19006TIP3    H178433   1.825   1.111  13.512  0.1531 -0.5684  0.2621
19006TIP3    H278434   1.970   1.146  13.535 -0.1124  0.3180  0.6214
19007TIP3   OH278435   5.670   2.288  15.419 -0.4408  0.5517 -0.4346
19007TIP3    H178436   5.676   2.205  15.373  2.1756  0.0559  0.6050
19007TIP3    H278437   5.606   2.273  15.488  0.6557 -0.9502  0.3103
19008TIP3   OH278438   3.969   1.792   5.296 -0.0069 -0.5052 -0.0243
19008TIP3    H178439   4.001   1.837   5.219 -2.0960 -0.5605 -1.0098
19008TIP3    H278440   3.874   1.788   5.283 -0.1961 -2.4631  1.4969
19009TIP3   OH278441   6.027   0.150   4.340 -0.2107  0.3961 -0.2174
19009TIP3    H178442   5.966   0.078   4.326  0.1225  0.1765 -0.5692
19009TIP3    H278443   6.029   0.161   4.435  2.0433 -2.1281  0.1648
19010TIP3   OH278444   0.103   6.274   0.334 -0.3744 -0.0177  0.1032
19010TIP3    H178445   0.030   6.335   0.328 -0.2715  0.0367 -0.7351
19010TIP3    H278446   0.118   6.263   0.428 -1.9231 -0.5809  0.3192
19011TIP3   OH278447   3.848   6.454  15.925 -0.1550 -0.9029 -0.4051
19011TIP3    H178448   3.912   6.524  15.921 -0.2844 -0.7129  0.5401
19011TIP3    H278449   3.851   6.413  15.839  1.4690 -1.1185 -0.2684
19012TIP3   OH278450   2.236   2.813   6.123  0.8513  0.0337  0.0484
19012TIP3    H178451   2.273   2.889   6.166 -0.3525  0.2141  0.7972
19012TIP3    H278452   2.307   2.749   6.122  1.2970  0.5037  1.0916
19013TIP3   OH278453   2.637   2.704  13.008 -0.4395 -0.8370 -0.5438
19013TIP3    H178454   2.549   2.668  13.022 -0.8500  0.2545 -0.2469
19013TIP3    H278455   2.640   2.725  12.915 -0.6672 -0.4333 -0.4619
19014TIP3   OH278456   4.777   1.303   3.145  0.1618  0.3423 -0.2455
19014TIP3    H178457   4.729   1.300   3.228 -0.2584 -1.9294 -0.5040
19014TIP3    H278458   4.727   1.246   3.087  1.1700  0.8668 -1.6737
19015TIP3   OH278459   3.461   6.705   3.850 -0.5202  0.0616 -0.2590
19015TIP3    H178460   3.538   6.667   3.809  0.3889  1.1661  0.3474
19015TIP3    H278461   3.417   6.751   3.779 -1.2469 -1.4766 -0.8413
19016TIP3   OH278462   4.293   5.624  11.272 -0.2435 -0.1331  0.2974
19016TIP3    H178463   4.345   5.555  11.230  0.5566 -0.9970  2.5551
19016TIP3    H278464   4.228   5.648  11.206 -0.3548 -2.8204 -0.7090
19017TIP3   OH278465   2.941   2.246  12.476 -0.8916  0.1003 -0.2924
19017TIP3    H178466   2.996   2.313  12.516  0.3076 -1.2801  0.5099
19017TIP3    H278467   2.977   2.163  12.510 -2.4796 -0.9271 -1.0154
19018TIP3   OH278468   3.175   1.567  11.038 -0.2083 -0.4985  0.4720
19018TIP3    H178469   3.160   1.527  10.953 -0.2153  0.8470 -0.1869
19018TIP3    H278470   3.229   1.644  11.019  0.9222 -0.9062  1.8449
19019TIP3   OH278471   2.921   5.729  16.994  0.3373 -0.6969  0.0015
19019TIP3    H178472   2.896   5.719  16.903  0.2742 -0.6451  0.0139
19019TIP3    H278473   2.887   5.650  17.037  1.8013 -1.5624 -0.3296
19020TIP3   OH278474   6.517   3.314   5.718  0.1287  0.3707 -0.4902
19020TIP3    H178475   6.448   3.356   5.667 -1.2137  0.2650  1.1600
19020TIP3    H278476   6.505   3.346   5.807  0.0337 -2.2456  0.5447
19021TIP3   OH278477   1.578   3.791  17.232  0.0156 -0.9005  0.3290
19021TIP3    H178478   1.579   3.786  17.328  0.5000  2.5299  0.6362
19021TIP3    H278479   1.487   3.808  17.210  0.2725  0.7651  0.4502
19022TIP3   OH278480   0.016   4.477   5.011 -0.0341 -0.2240  0.4404
19022TIP3    H178481  -0.058   4.420   4.992 -0.6181  0.3822  0.8753
19022TIP3    H278482   0.080   4.456   4.942 -1.0058 -0.0240 -0.5482
19023TIP3   OH278483   4.223   4.726  16.956 -0.2098  0.2976  0.0887
19023TIP3    H178484   4.298   4.669  16.942 -1.0404 -0.6576 -0.6005
19023TIP3    H278485   4.158   4.697  16.892 -1.1313  1.1631  0.6034
19024TIP3   OH278486   6.353   6.647   0.501  0.2614 -0.4156 -0.3672
19024TIP3    H178487   6.363   6.710   0.430 -0.8519  1.3441  0.9497
19024TIP3    H278488   6.388   6.692   0.578 -4.3199  0.5156  1.5105
19025TIP3   OH278489   2.938   0.933   2.984  0.7451  0.5185 -0.9175
19025TIP3    H178490   2.863   0.925   2.926  0.8719 -2.5950 -0.8254
19025TIP3    H278491   2.980   0.847   2.981  2.3147  1.0812  1.6946
19026TIP3   OH278492   4.261   3.544  11.998  0.4895 -0.1195  0.4125
19026TIP3    H178493   4.246   3.532  11.904  0.2040 -0.4212  0.4938
19026TIP3    H278494   4.286   3.636  12.007 -1.5714  0.4937  0.2941
19027TIP3   OH278495   5.465   2.457  13.604 -0.5659  0.2618 -0.2324
19027TIP3    H178496   5.422   2.531  13.647 -1.6774 -0.1387 -0.6104
19027TIP3    H278497   5.398   2.422  13.545 -0.3904 -1.6439  0.6567
19028TIP3   OH278498   0.255   3.883   5.521 -0.1710  0.0998  0.3060
19028TIP3    H178499   0.299   3.803   5.491  1.5034  1.7164 -1.8427
19028TIP3    H278500   0.222   3.860   5.608  0.0358 -2.9747 -0.3015
19029TIP3   OH278501   5.995   6.339   5.104 -0.7740  0.0474  0.1450
19029TIP3    H178502   6.060   6.398   5.143 -0.0015 -1.2760  0.9173
19029TIP3    H278503   5.967   6.283   5.176 -0.8556 -1.0938 -0.7518
19030TIP3   OH278504   1.652   1.908   3.077 -0.5230  0.5384 -0.0643
19030TIP3    H178505   1.596   1.976   3.041 -0.7433  0.3947  0.0037
19030TIP3    H278506   1.630   1.829   3.027 -1.1168  0.2431  0.6377
19031TIP3   OH278507   0.510   3.437   3.672  0.6337 -0.3154  0.0774
19031TIP3    H178508   0.420   3.427   3.702  0.5510  0.8073  0.2491
19031TIP3    H278509   0.503   3.457   3.579  0.5169  2.1393  0.5297
19032TIP3   OH278510   6.593   6.014  16.844  0.1067 -0.3328 -0.3627
19032TIP3    H178511   6.597   5.999  16.938 -1.7882 -0.7476 -0.3032
19032TIP3    H278512   6.598   5.927  16.805  3.8201 -0.0265 -0.8878
19033TIP3   OH278513   6.506   5.198  14.919  0.1462  0.2637  0.2028
19033TIP3    H178514   6.495   5.214  15.012  0.6460  0.9681  0.1567
19033TIP3    H278515   6.541   5.281  14.885 -0.4752  0.1770 -0.6889
19034TIP3   OH278516   4.039   3.088  12.664  0.0916  0.1133 -0.0173
19034TIP3    H178517   4.125   3.051  12.682 -0.1443 -0.8753 -0.8032
19034TIP3    H278518   4.048   3.181  12.684  0.8590 -0.2591  1.5059
19035TIP3   OH278519   3.781   4.562   5.110  0.6342  0.2170 -0.3260
19035TIP3    H178520   3.845   4.624   5.075  1.5427 -1.7031 -2.3162
19035TIP3    H278521   3.831   4.509   5.171 -0.2817  1.6951  1.8410
19036TIP3   OH278522   5.066   3.994   5.885  0.2406 -0.2007 -0.0703
19036TIP3    H178523   5.130   3.980   5.955  0.4844  1.3222  0.0587
19036TIP3    H278524   5.120   4.017   5.808  0.0424 -2.9067 -1.0997
19037TIP3   OH278525   5.974   0.465  14.560  0.2715 -0.3261  0.5653
19037TIP3    H178526   6.038   0.400  14.588  0.6957 -0.3234 -0.3597
19037TIP3    H278527   5.889   0.422  14.570  0.5599 -1.0911 -0.1991
19038TIP3   OH278528   0.549   6.145  11.336  0.8098 -0.3853  0.5283
19038TIP3    H178529   0.473   6.096  11.304  0.5583 -0.8183  1.7617
19038TIP3    H278530   0.586   6.185  11.257 -1.9787  1.6830  0.1356
19039TIP3   OH278531   0.307   6.072   4.014  0.3456  0.0989  0.4453
19039TIP3    H178532   0.266   6.071   4.100  1.8069 -1.3920  1.1784
19039TIP3    H278533   0.262   6.002   3.966 -1.4377  1.8101 -0.5801
19040TIP3   OH278534   0.072   3.392  14.728  0.2122  0.0879  0.2955
19040TIP3    H178535   0.103   3.426  14.644  2.2184 -0.2332  0.8645
19040TIP3    H278536  -0.024   3.391  14.719  0.3703 -0.7349 -2.3093
19041TIP3   OH278537   0.312   4.108  10.992 -0.2137  0.1002 -0.3475
19041TIP3    H178538   0.217   4.106  10.992 -0.2193 -0.0034  0.5341
19041TIP3    H278539   0.336   4.137  10.904 -1.0491 -0.1619 -0.6632
19042TIP3   OH278540   1.272   1.918   6.418  0.0600 -0.0238 -0.1124
19042TIP3    H178541   1.252   1.960   6.502  0.1042  1.6287 -0.8785
19042TIP3    H278542   1.301   1.990   6.362  2.6972 -1.4705 -0.7610
19043TIP3   OH278543   0.567   0.203  17.162 -0.3138  0.6338  0.1605
19043TIP3    H178544   0.658   0.230  17.175 -0.8167  3.3272 -1.0562
19043TIP3    H278545   0.570   0.108  17.159  2.4775  0.6393  0.0433
19044TIP3   OH278546   5.256   1.805  16.771 -0.2531  0.1778  0.0069
19044TIP3    H178547   5.300   1.889  16.764  0.1646  0.0970  1.2836
19044TIP3    H278548   5.284   1.771  16.856 -0.0018 -1.4778 -0.6966
19045TIP3   OH278549   4.986   3.911  14.261  0.0108 -0.2207 -0.1619
19045TIP3    H178550   5.042   3.902  14.338  0.2126 -1.0995 -0.3967
19045TIP3    H278551   4.903   3.945  14.295  0.2709 -0.1039  0.3655
19046TIP3   OH278552   4.375   4.410  11.673 -0.2865 -0.3008 -0.1972
19046TIP3    H178553   4.364   4.504  11.659  1.9368  0.5107  2.4343
19046TIP3    H278554   4.290   4.380  11.706 -0.3387  1.4106  1.3885
19047TIP3   OH278555   6.032   1.100  17.137 -0.3148 -0.1567  0.3640
19047TIP3    H178556   6.054   1.190  17.112 -2.5814 -0.0264 -1.5003
19047TIP3    H278557   6.090   1.045  17.084 -0.4008  0.1886 -0.0896
19048TIP3   OH278558   0.395   0.374  15.706 -0.1609 -0.5418  0.7320
19048TIP3    H178559   0.322   0.394  15.647  2.2269  1.2879 -1.8597
19048TIP3    H278560   0.436   0.296  15.668  1.6418  0.8879 -0.4212
19049TIP3   OH278561   3.537   3.797  13.780 -0.4779  0.4774 -0.0737
19049TIP3    H178562   3.455   3.832  13.812 -1.1738 -0.7397 -0.4379
19049TIP3    H278563   3.529   3.702  13.793  0.3875  0.2305 -1.1573
19050TIP3   OH278564   3.028   3.872  16.341 -0.3762  0.2209  0.5445
19050TIP3    H178565   3.093   3.839  16.279 -1.2187  0.2510 -0.3742
19050TIP3    H278566   3.077   3.884  16.423 -0.1840 -4.5017  1.4103
19051TIP3   OH278567   4.385   4.645   3.117 -0.4264  0.2554  0.1425
19051TIP3    H178568   4.315   4.709   3.128  0.2854  1.0660  0.0988
19051TIP3    H278569   4.342   4.567   3.082 -0.9751  1.4749 -2.0212
19052TIP3   OH278570   3.555   1.935   6.443  0.5407 -0.4368  0.3215
19052TIP3    H178571   3.527   1.847   6.468  0.9152 -0.3878  0.9430
19052TIP3    H278572   3.634   1.950   6.495  3.0138 -1.3679 -2.8208
19053TIP3   OH278573   4.093   6.384  14.211  0.6073 -0.0660  0.1723
19053TIP3    H178574   4.121   6.364  14.300  1.7346  1.4735  0.2003
19053TIP3    H278575   3.998   6.388  14.215  0.5929 -1.0264  1.0653
19054TIP3   OH278576   2.370   3.323  17.090  0.3361  0.0951  0.2873
19054TIP3    H178577   2.366   3.279  17.005  1.4162  0.1178  0.2052
19054TIP3    H278578   2.464   3.337  17.105  0.1755 -0.0499  1.5529
19055TIP3   OH278579   6.591   6.210  11.133  0.7664  0.1474 -0.6256
19055TIP3    H178580   6.541   6.276  11.085  0.1337  0.3733  0.3119
19055TIP3    H278581   6.571   6.128  11.089  0.0496  0.3245 -0.6397
19056TIP3   OH278582   6.474   6.196  15.442  0.1081  0.5862  0.1799
19056TIP3    H178583   6.530   6.138  15.495 -0.2942 -1.5281 -1.5580
19056TIP3    H278584   6.385   6.170  15.465 -0.1289  1.8042  0.6825
19057TIP3   OH278585   4.606   3.263   4.196  0.1674 -0.2936  0.1593
19057TIP3    H178586   4.601   3.336   4.257 -0.0183 -0.6181  0.5411
19057TIP3    H278587   4.594   3.302   4.110  1.0797  0.2565  0.2719
19058TIP3   OH278588   3.307   1.240   5.867  0.5101  0.0307 -0.4318
19058TIP3    H178589   3.374   1.271   5.806 -0.4433 -0.0871 -1.5851
19058TIP3    H278590   3.228   1.289   5.842 -0.2702 -1.1253 -0.2953
19059TIP3   OH278591   4.383   5.765   2.299  0.0236  0.2565 -0.3278
19059TIP3    H178592   4.315   5.781   2.364 -0.3399  0.6565 -0.8042
19059TIP3    H278593   4.465   5.777   2.346 -0.2262 -0.3492  0.2822
19060TIP3   OH278594   3.817   2.706   1.300  0.2340  0.5550 -0.3837
19060TIP3    H178595   3.724   2.704   1.279  0.1326  0.0663  0.0915
19060TIP3    H278596   3.860   2.667   1.224  0.0108  0.3588 -0.4096
19061TIP3   OH278597   6.636   1.116   3.340  0.1841 -0.2186  0.0936
19061TIP3    H178598   6.650   1.104   3.246 -0.6875 -1.4451  0.1014
19061TIP3    H278599   6.592   1.036   3.369 -2.2013  1.2923  0.9896
19062TIP3   OH278600   0.261   0.325   1.996  0.1459 -0.0916  0.1646
19062TIP3    H178601   0.227   0.254   1.942  0.7224 -0.5874  0.4296
19062TIP3    H278602   0.343   0.289   2.033 -0.6790 -0.1273  2.0806
19063TIP3   OH278603   4.547   1.899  13.954  0.4206 -0.2009  0.4152
19063TIP3    H178604   4.608   1.916  14.026  0.3384 -1.2382  0.7494
19063TIP3    H278605   4.549   1.804  13.944 -1.7789 -0.3538  1.0100
19064TIP3   OH278606   6.421   4.834   0.860  0.3661  0.2885 -0.0774
19064TIP3    H178607   6.494   4.895   0.877  0.5447  0.7720 -2.2764
19064TIP3    H278608   6.425   4.772   0.933  1.8003  1.3974  0.8612
19065TIP3   OH278609   1.787   4.628   4.806  0.1852 -0.1576 -0.4403
19065TIP3    H178610   1.745   4.545   4.781  0.1467  0.2556 -1.8822
19065TIP3    H278611   1.765   4.687   4.734  1.6271  0.6325 -0.2541
19066TIP3   OH278612   3.753   1.342   4.604  1.0647 -0.5313 -0.0278
19066TIP3    H178613   3.679   1.362   4.661  1.7916  0.5792  0.5538
19066TIP3    H278614   3.792   1.263   4.642 -0.7401 -2.1390 -1.2902
19067TIP3   OH278615   5.040   6.450   1.124 -0.2930  0.2083 -0.3860
19067TIP3    H178616   5.009   6.369   1.163 -0.8659  0.3709 -0.4948
19067TIP3    H278617   4.962   6.488   1.083 -0.3943  1.6021  1.0209
19068TIP3   OH278618   3.902   1.141   0.922  0.3073 -0.0453  0.2762
19068TIP3    H178619   3.855   1.223   0.935  0.2862  0.2791 -1.5621
19068TIP3    H278620   3.852   1.095   0.855  1.6876 -0.4216 -0.5434
19069TIP3   OH278621   4.137   6.516   3.835  0.3421 -0.3978 -0.4786
19069TIP3    H178622   4.097   6.596   3.869  1.3552  0.4216 -1.1484
19069TIP3    H278623   4.143   6.530   3.741  0.1893 -1.4352 -0.6532
19070TIP3   OH278624   4.198   0.202  12.672  0.4633  0.2384  0.3453
19070TIP3    H178625   4.196   0.110  12.695  1.7834  0.3334  0.9566
19070TIP3    H278626   4.288   0.217  12.642  0.2239  1.2882  0.1089
19071TIP3   OH278627   0.365   4.954  14.112 -0.3112  0.2251  0.4459
19071TIP3    H178628   0.446   4.962  14.062  0.0459 -0.7194  0.8492
19071TIP3    H278629   0.310   4.897  14.058  0.2166 -1.1106  1.2647
19072TIP3   OH278630   1.274   0.475   4.093  0.5217  0.1410  0.1473
19072TIP3    H178631   1.229   0.450   4.013 -1.1589  0.0683  1.0866
19072TIP3    H278632   1.210   0.462   4.163  1.8460  0.4741  1.4853
19073TIP3   OH278633   0.648   1.392   1.139  0.1466  0.1146 -0.5227
19073TIP3    H178634   0.656   1.350   1.053 -0.7265  0.4129 -0.7578
19073TIP3    H278635   0.663   1.485   1.122 -0.7474  0.2733 -0.4845
19074TIP3   OH278636   4.111   4.484   3.310 -0.3857 -0.1456 -0.5987
19074TIP3    H178637   4.116   4.483   3.215 -3.1092  0.2211 -0.8201
19074TIP3    H278638   4.067   4.402   3.333 -0.5792  0.1876  0.2562
19075TIP3   OH278639   1.363   0.222   3.926 -0.2908  0.0356  0.6242
19075TIP3    H178640   1.284   0.180   3.891  0.4531  0.0940 -1.2129
19075TIP3    H278641   1.351   0.315   3.909  0.0684  0.0705  0.5461
19076TIP3   OH278642   3.410   1.359  16.389  0.8883  0.2500 -0.3531
19076TIP3    H178643   3.446   1.297  16.326  0.6784  0.1488 -0.3745
19076TIP3    H278644   3.485   1.384  16.443  1.1663  0.6763 -0.9185
19077TIP3   OH278645   4.206   2.350  15.664 -0.1122  0.0256  0.5405
19077TIP3    H178646   4.143   2.279  15.672  0.1962 -0.4181 -0.7648
19077TIP3    H278647   4.276   2.314  15.609  1.6791  0.2298  2.5186
19078TIP3   OH278648   2.542   5.647  12.181 -0.7240  0.1653 -0.0570
19078TIP3    H178649   2.601   5.655  12.106  0.4632  0.8900  0.9233
19078TIP3    H278650   2.598   5.620  12.253 -2.3659 -4.0835 -0.1056
19079TIP3   OH278651   2.035   5.657   2.087 -0.4177 -0.2115 -0.5449
19079TIP3    H178652   2.077   5.659   2.173 -1.9487  0.4368  0.2258
19079TIP3    H278653   1.996   5.570   2.081 -0.6111 -0.1321 -0.4348
19080TIP3   OH278654   2.068   2.855  17.273  0.0509 -0.1339  0.1572
19080TIP3    H178655   2.043   2.869  17.365 -0.4801  2.4437 -0.2807
19080TIP3    H278656   2.000   2.798  17.238 -1.0728  0.7224  0.8535
19081TIP3   OH278657   2.799   0.323  13.792  0.3475 -0.3870  0.6189
19081TIP3    H178658   2.765   0.412  13.800 -3.2820 -1.5656 -0.1412
19081TIP3    H278659   2.801   0.307  13.698  2.9936 -0.5184  0.6153
19082TIP3   OH278660   1.577   3.930  14.895 -0.4356 -0.3273  0.0288
19082TIP3    H178661   1.538   3.843  14.885 -1.3493  0.2144 -1.4115
19082TIP3    H278662   1.504   3.986  14.921  0.0566  0.0914  0.5195
19083TIP3   OH278663   5.279   0.173   4.932  0.1308 -0.1295  0.6169
19083TIP3    H178664   5.200   0.145   4.885  1.0629  0.9982 -1.8201
19083TIP3    H278665   5.254   0.253   4.976 -0.2996 -0.2177  0.5348
19084TIP3   OH278666   4.986   3.577   2.688 -0.1586 -0.0991 -0.1791
19084TIP3    H178667   4.920   3.508   2.700  0.9343 -1.1974 -0.3510
19084TIP3    H278668   5.069   3.534   2.706  0.4777  1.4611  0.7577
19085TIP3   OH278669   1.259   5.221  10.468  0.3895  0.2946 -0.1829
19085TIP3    H178670   1.188   5.245  10.408 -1.2156 -0.3375  1.3787
19085TIP3    H278671   1.295   5.304  10.497 -0.2913  0.6601 -0.3625
19086TIP3   OH278672   1.906   5.439  16.087  0.1541  0.2473  0.0957
19086TIP3    H178673   1.866   5.523  16.065 -1.2968 -0.3969  0.1987
19086TIP3    H278674   1.876   5.420  16.176  0.5947 -0.3071  0.1303
19087TIP3   OH278675   3.142   3.195   6.229 -0.3431 -0.1335  0.0674
19087TIP3    H178676   3.140   3.274   6.283  1.3014 -0.3623  0.5408
19087TIP3    H278677   3.154   3.227   6.140 -0.6295  0.1756  0.1398
19088TIP3   OH278678   4.790   3.863   1.974  0.1142  0.0039  0.2067
19088TIP3    H178679   4.787   3.931   1.907 -3.4624 -1.6228 -1.5695
19088TIP3    H278680   4.718   3.885   2.034  1.8416  0.1934  2.3678
19089TIP3   OH278681   6.655   5.325  16.179  0.1330  0.5222 -0.6315
19089TIP3    H178682   6.605   5.401  16.148 -0.5196  0.5899  0.5054
19089TIP3    H278683   6.682   5.350  16.268  1.7852  0.2805 -1.0323
19090TIP3   OH278684   0.331   3.796   5.211 -0.0335  0.2449  0.0790
19090TIP3    H178685   0.401   3.733   5.227  0.4996  0.4419 -1.3824
19090TIP3    H278686   0.251   3.743   5.210  0.2310 -0.1696  0.3847
19091TIP3   OH278687   3.516   4.919   0.289  0.0389 -0.3619  0.4276
19091TIP3    H178688   3.556   4.857   0.350 -1.9275 -0.9542  1.2005
19091TIP3    H278689   3.422   4.917   0.311 -0.5119  0.5530 -1.6111
19092TIP3   OH278690   0.088   5.794  16.869 -0.4318  0.1207  0.0284
19092TIP3    H178691   0.027   5.820  16.938 -0.1024  0.2193  0.2875
19092TIP3    H278692   0.104   5.875  16.819  1.6541  0.8153  1.6553
19093TIP3   OH278693   2.695   6.717   6.083  0.3385  0.0848  0.3075
19093TIP3    H178694   2.743   6.671   6.014 -3.2751 -2.0020 -1.1230
19093TIP3    H278695   2.739   6.691   6.164  1.1860 -2.3075 -0.8133
19094TIP3   OH278696   2.386   1.573  15.726 -0.6453  0.2314  0.2493
19094TIP3    H178697   2.461   1.517  15.706 -1.7684 -0.9420 -0.8433
19094TIP3    H278698   2.398   1.651  15.671 -1.0617 -0.6962 -1.1969
19095TIP3   OH278699   0.349   0.431  14.933  0.1369  0.3328  0.0126
19095TIP3    H178700   0.270   0.409  14.884  0.1328  0.1448  0.1045
19095TIP3    H278701   0.418   0.434  14.866  0.1265  0.1039 -0.0077
19096TIP3   OH278702   3.258   2.990  16.229 -0.0286 -0.0297 -0.5541
19096TIP3    H178703   3.325   3.057  16.240  1.1886 -1.2775  0.0133
19096TIP3    H278704   3.179   3.028  16.266  0.8377  0.7568  0.5503
19097TIP3   OH278705   3.281   1.970   6.010  0.0745  0.4044  0.0944
19097TIP3    H178706   3.210   2.030   5.988  1.1572  1.1412 -1.6266
19097TIP3    H278707   3.343   2.025   6.059  0.2858  0.2576 -0.0068
19098TIP3   OH278708   0.618   3.822   5.882 -0.0875  0.3671  0.3131
19098TIP3    H178709   0.677   3.884   5.925  2.9943 -2.3867  0.4468
19098TIP3    H278710   0.655   3.810   5.794 -1.2832 -0.3935 -0.1138
19099TIP3   OH278711   1.413   5.239  13.592  0.1400 -0.2325  0.4838
19099TIP3    H178712   1.474   5.169  13.617 -0.7383 -0.7628  1.2227
19099TIP3    H278713   1.439   5.262  13.503  2.3868  0.6458  1.3046
19100TIP3   OH278714   5.989   0.928   1.728 -0.0433 -0.1002  0.1038
19100TIP3    H178715   5.914   0.874   1.705  0.6134 -0.6701 -0.7628
19100TIP3    H278716   6.060   0.897   1.672  0.8822  0.3398  0.9816
19101TIP3   OH278717   2.045   5.062  15.536  0.5749  0.3232  0.3505
19101TIP3    H178718   2.104   5.104  15.473  0.7220  0.0511  0.3039
19101TIP3    H278719   2.027   5.130  15.601  0.9746  0.3951  0.3874
19102TIP3   OH278720   3.718   2.159   0.474  0.3399 -0.4214 -0.1741
19102TIP3    H178721   3.723   2.190   0.564 -0.1153  1.0742 -0.6327
19102TIP3    H278722   3.626   2.165   0.451  0.3574 -1.4097 -0.5481
19103TIP3   OH278723   4.321   1.756   5.766  0.1807 -0.4749 -1.0880
19103TIP3    H178724   4.370   1.817   5.822  0.6865 -0.5887 -1.4013
19103TIP3    H278725   4.304   1.807   5.686 -0.5142 -0.3219 -0.8491
19104TIP3   OH278726   3.886   1.889  16.998 -0.2241 -0.2397 -0.3451
19104TIP3    H178727   3.940   1.957  16.957  1.6332 -0.3866  1.7224
19104TIP3    H278728   3.808   1.936  17.027 -0.2592  0.4282 -1.4430
19105TIP3   OH278729   4.672   0.415  14.545 -0.0327  0.4823  0.3199
19105TIP3    H178730   4.629   0.441  14.626 -0.2021 -0.8426  0.6871
19105TIP3    H278731   4.601   0.379  14.491  0.2761  0.1990  0.0962
19106TIP3   OH278732   1.735   2.196   2.533  0.2396 -0.0402 -0.3968
19106TIP3    H178733   1.786   2.182   2.613 -0.9079 -2.4462  0.0117
19106TIP3    H278734   1.643   2.192   2.562 -0.1937 -0.3743 -1.7365
19107TIP3   OH278735   5.033   1.571   3.521  0.0632 -0.2224 -0.2040
19107TIP3    H178736   5.029   1.504   3.589  2.4645 -1.1967 -0.9158
19107TIP3    H278737   5.057   1.651   3.567  1.6516 -0.8679  0.1489
19108TIP3   OH278738   5.704   5.164  16.245 -0.3177 -0.2940  0.0744
19108TIP3    H178739   5.767   5.236  16.248  0.6867 -1.0658 -1.5433
19108TIP3    H278740   5.690   5.147  16.152 -1.4284 -1.4476  0.4158
19109TIP3   OH278741   6.372   4.299  16.960 -0.2839  0.5011  0.1155
19109TIP3    H178742   6.446   4.287  17.019 -1.1425 -2.9448  0.6873
19109TIP3    H278743   6.311   4.355  17.009  0.0256 -0.3769  1.5529
19110TIP3   OH278744   4.089   2.640   3.822 -0.0957  0.3561 -0.3242
19110TIP3    H178745   4.138   2.558   3.821  0.2659  0.5570  0.3478
19110TIP3    H278746   3.998   2.613   3.835  0.2019  0.1063  1.6791
19111TIP3   OH278747   5.427   3.452  15.449  0.0596  0.2885  0.3655
19111TIP3    H178748   5.348   3.423  15.404  0.0987  1.9343 -0.8757
19111TIP3    H278749   5.423   3.411  15.535 -2.1578  0.3598  0.3451
19112TIP3   OH278750   6.572   3.945   5.340 -0.0889 -0.1559 -0.5877
19112TIP3    H178751   6.628   3.874   5.372  0.2924  0.4987  0.2564
19112TIP3    H278752   6.525   3.908   5.266 -1.4822 -1.9473  1.1110
19113TIP3   OH278753   5.689   3.958  14.780 -0.5851 -0.6296  0.1025
19113TIP3    H178754   5.655   3.874  14.749 -0.5170 -0.0033 -1.7817
19113TIP3    H278755   5.784   3.949  14.776 -0.4700 -1.3490  2.5351
19114TIP3   OH278756   2.729   0.940   3.873 -0.4665 -0.4086 -0.6756
19114TIP3    H178757   2.735   0.998   3.797 -1.0475  1.4974  0.6574
19114TIP3    H278758   2.635   0.934   3.891 -0.2961 -0.1496  0.3757
19115TIP3   OH278759   3.098   4.924  11.327  0.0304  0.7494  0.1483
19115TIP3    H178760   3.106   5.007  11.281 -1.6089  0.5060 -0.6354
19115TIP3    H278761   3.039   4.942  11.400 -2.0347 -0.1260 -1.2128
19116TIP3   OH278762   2.853   4.171   5.674  0.3760  0.3128  0.4115
19116TIP3    H178763   2.802   4.220   5.738  0.7067 -0.3300  1.1858
19116TIP3    H278764   2.915   4.235   5.638  0.0424  0.7284  0.5725
19117TIP3   OH278765   3.783   4.544   1.186 -0.6299  0.4400 -0.3836
19117TIP3    H178766   3.690   4.564   1.179 -1.2437 -1.9349  0.1195
19117TIP3    H278767   3.792   4.458   1.145  1.1938  0.2677  0.2878
19118TIP3   OH278768   1.749   0.608   4.175  0.2529 -0.0268 -0.2936
19118TIP3    H178769   1.798   0.640   4.250  0.0484 -0.2645 -0.0562
19118TIP3    H278770   1.789   0.524   4.153  0.1970 -0.0428 -0.3366
19119TIP3   OH278771   2.757   6.761  15.775  0.0384  0.5715  0.3605
19119TIP3    H178772   2.819   6.690  15.757 -0.8469  0.0490 -0.7429
19119TIP3    H278773   2.768   6.822  15.703 -2.9062 -1.1075 -1.7389
19120TIP3   OH278774   0.633   4.680   2.744 -0.1174  0.2514 -0.0941
19120TIP3    H178775   0.639   4.726   2.661 -0.6762 -0.1674 -0.3686
19120TIP3    H278776   0.724   4.656   2.764 -0.2160 -1.8473 -1.8323
19121TIP3   OH278777   5.045   4.553   0.825 -0.2188  0.1895  0.0369
19121TIP3    H178778   5.054   4.586   0.914 -0.1421  0.3678 -0.0373
19121TIP3    H278779   5.135   4.544   0.794 -0.2525  0.4023 -0.1236
19122TIP3   OH278780   6.389   1.615   3.182 -0.3457 -0.2516 -0.1517
19122TIP3    H178781   6.468   1.572   3.214 -0.8986 -0.6397  0.7324
19122TIP3    H278782   6.368   1.570   3.100  0.1616 -0.3564 -0.2253
19123TIP3   OH278783   5.958   0.058  14.802  0.4934  0.0424  0.5440
19123TIP3    H178784   6.027   0.038  14.867  1.5049 -0.6385 -0.6949
19123TIP3    H278785   5.878   0.025  14.843  0.5218  2.4813  2.8355
19124TIP3   OH278786   0.896   5.351   6.144 -0.4661 -0.2501 -0.1814
19124TIP3    H178787   0.867   5.402   6.068 -1.3227  0.5998  0.6930
19124TIP3    H278788   0.842   5.383   6.217  0.1610 -1.2238  0.7380
19125TIP3   OH278789   6.135   6.125  15.729  0.6757 -0.4080  0.3192
19125TIP3    H178790   6.047   6.160  15.714  0.5918 -0.6233  0.3018
19125TIP3    H278791   6.177   6.129  15.644  0.1813 -1.6865 -0.0014
19126TIP3   OH278792   5.266   4.402   4.141 -0.3085 -0.3843  0.8944
19126TIP3    H178793   5.173   4.426   4.139 -0.0361  0.6801  0.1800
19126TIP3    H278794   5.278   4.360   4.226 -1.3478 -0.1387  1.1814
19127TIP3   OH278795   1.835   3.408  14.696  0.4143 -0.4460 -0.1780
19127TIP3    H178796   1.828   3.374  14.607  1.4254 -1.1330 -0.0083
19127TIP3    H278797   1.782   3.348  14.749 -2.3427  1.3844 -0.6058
19128TIP3   OH278798   0.534   3.415   4.613  0.1025  0.0784 -0.8153
19128TIP3    H178799   0.571   3.341   4.565 -2.0229 -0.9627 -0.9606
19128TIP3    H278800   0.502   3.377   4.695 -2.4163  0.4584 -1.5432
19129TIP3   OH278801   1.107   5.494   5.874 -0.6018 -0.0615 -0.2310
19129TIP3    H178802   1.128   5.420   5.930  0.1123  0.2948 -0.0225
19129TIP3    H278803   1.107   5.570   5.933 -0.2926  0.2532 -0.6288
19130TIP3   OH278804   4.454   0.639   6.015 -0.3834 -0.2642 -0.0774
19130TIP3    H178805   4.415   0.617   6.100 -1.3014  1.1359 -0.1067
19130TIP3    H278806   4.433   0.564   5.959 -0.8180 -0.6672  0.6100
19131TIP3   OH278807   3.917   4.337   2.828  0.4011 -0.5972  0.1077
19131TIP3    H178808   3.851   4.386   2.878 -2.4646 -2.3065 -1.7042
19131TIP3    H278809   3.927   4.254   2.875 -0.1143 -1.0451 -0.5540
19132TIP3   OH278810   6.521   3.767   1.876 -0.0583 -0.3786  0.1482
19132TIP3    H178811   6.549   3.855   1.854  0.0682 -0.4416  0.0558
19132TIP3    H278812   6.567   3.710   1.813 -2.8912 -0.2455 -2.2754
19133TIP3   OH278813   0.950   5.990   5.337  0.0138 -0.1878  0.2932
19133TIP3    H178814   0.983   6.065   5.385 -1.6796  0.0654  1.1296
19133TIP3    H278815   0.898   6.028   5.266 -0.1303 -0.5631  0.1942
19134TIP3   OH278816   3.976   2.762  13.568 -0.2077  0.5619 -0.4466
19134TIP3    H178817   3.949   2.698  13.503 -1.2820  1.1694 -0.6189
19134TIP3    H278818   4.034   2.821  13.521 -2.0056  1.7716 -1.2423
19135TIP3   OH278819   0.291   1.236  10.678 -0.1233 -0.5206 -0.4156
19135TIP3    H178820   0.230   1.187  10.624 -1.6465  1.2852 -0.4400
19135TIP3    H278821   0.297   1.322  10.636  0.7939  0.0290  0.7744
19136TIP3   OH278822   2.976   5.641  13.339  0.1832  0.0151  0.0693
19136TIP3    H178823   3.050   5.611  13.392 -0.2676  1.4668  1.6032
19136TIP3    H278824   2.971   5.577  13.267  2.9740 -0.0732 -0.1820
19137TIP3   OH278825   0.534   1.764   3.607 -0.3255  0.5896  0.0129
19137TIP3    H178826   0.588   1.843   3.602 -0.1188  0.4277 -0.4103
19137TIP3    H278827   0.535   1.741   3.700 -0.1157  0.8998  0.0922
19138TIP3   OH278828   4.183   5.059   2.249  0.1227 -0.1655  0.7131
19138TIP3    H178829   4.230   5.103   2.320  0.3193 -2.8531  2.4000
19138TIP3    H278830   4.251   5.013   2.200 -0.2565 -0.2849  0.2917
19139TIP3   OH278831   6.500   3.590   3.094 -0.2111  0.3435 -1.0305
19139TIP3    H178832   6.483   3.638   3.013 -0.0629  0.5943 -0.9123
19139TIP3    H278833   6.416   3.589   3.140  0.0647  1.5410 -0.4656
19140TIP3   OH278834   1.774   0.876   1.468  0.2105 -0.3379 -0.3624
19140TIP3    H178835   1.790   0.783   1.485 -3.2383 -0.8861  0.7058
19140TIP3    H278836   1.694   0.878   1.415 -1.6028  1.9938  2.1584
19141TIP3   OH278837   5.897   6.008   3.670  0.5388 -0.0569 -0.4556
19141TIP3    H178838   5.977   5.993   3.621  0.9140  2.2170 -0.6596
19141TIP3    H278839   5.926   6.030   3.758  0.1121  0.2527 -0.3899
19142TIP3   OH278840   4.102   5.718  13.586  0.1826 -0.1794  0.1863
19142TIP3    H178841   4.018   5.757  13.565  1.0432  1.7404  0.0230
19142TIP3    H278842   4.158   5.739  13.512  1.4165  0.6883  1.3038
19143TIP3   OH278843   0.167   4.098  13.381  0.3876  0.1880  0.4316
19143TIP3    H178844   0.190   4.191  13.380 -0.6894  0.6037  3.2631
19143TIP3    H278845   0.251   4.052  13.384  0.9163  1.0920 -0.1059
19144TIP3   OH278846   1.326   1.634   2.854 -0.1249 -0.3427  0.2318
19144TIP3    H178847   1.340   1.566   2.788  0.8739 -0.1162  0.1946
19144TIP3    H278848   1.414   1.658   2.882 -0.3859  1.9177 -0.7365
19145TIP3   OH278849   0.974   1.579  12.441 -0.1174 -0.0701 -0.2752
19145TIP3    H178850   0.947   1.665  12.409 -0.7740  0.1809  0.9078
19145TIP3    H278851   0.920   1.517  12.392  0.2423  0.1742 -1.0121
19146TIP3   OH278852   2.010   1.911  12.124  0.0739 -0.2594  0.0299
19146TIP3    H178853   2.073   1.966  12.171  0.2712  0.6354 -1.2151
19146TIP3    H278854   1.945   1.973  12.091  0.1542 -0.7878 -1.1934
19147TIP3   OH278855   2.021   6.536   0.321 -0.0122 -0.1569  0.0641
19147TIP3    H178856   1.928   6.523   0.302 -0.2131  1.3906 -0.1500
19147TIP3    H278857   2.060   6.449   0.312 -0.8444 -0.3102 -3.0655
19148TIP3   OH278858   6.624   5.535   3.194  0.0269 -0.3460 -0.2340
19148TIP3    H178859   6.650   5.443   3.201 -2.1794 -1.1168 -0.9734
19148TIP3    H278860   6.615   5.550   3.099  0.2131  0.5815 -0.1119
19149TIP3   OH278861   6.700   0.642  11.633  0.2698 -0.5995 -0.5530
19149TIP3    H178862   6.708   0.619  11.725  0.2626  0.1816 -0.3488
19149TIP3    H278863   6.612   0.614  11.609 -0.2601  0.4655  0.0693
19150TIP3   OH278864   0.969   5.194  14.716 -0.3996 -0.2061  0.3314
19150TIP3    H178865   1.019   5.222  14.639  1.0364  1.0570  1.6632
19150TIP3    H278866   0.930   5.111  14.689 -0.9608  0.7566 -2.1625
19151TIP3   OH278867   0.588   4.041  16.165 -0.3650  0.2360  0.3180
19151TIP3    H178868   0.573   4.033  16.259 -1.0321  0.8800  0.2790
19151TIP3    H278869   0.503   4.023  16.126 -0.6434  2.0318 -0.0293
19152TIP3   OH278870   6.473   2.109   0.270 -0.0571 -1.2878 -0.0019
19152TIP3    H178871   6.465   2.166   0.194 -0.5289 -1.7022 -0.2740
19152TIP3    H278872   6.394   2.127   0.321 -0.1616 -1.6245 -0.0417
19153TIP3   OH278873   5.066   3.586   3.989  0.1101  0.2578 -0.0210
19153TIP3    H178874   5.120   3.620   4.060 -1.0052  0.8277  0.5769
19153TIP3    H278875   5.118   3.515   3.951  1.6060  1.2838  0.0252
19154TIP3   OH278876   2.058   2.875   2.356  0.3993 -0.1681  0.0467
19154TIP3    H178877   1.963   2.877   2.367  0.3595  1.4069 -0.3516
19154TIP3    H278878   2.088   2.957   2.395  1.7237 -1.1082  1.0984
19155TIP3   OH278879   2.895   5.660   2.583 -0.1887  0.0830 -0.5404
19155TIP3    H178880   2.845   5.741   2.598  0.1680  0.4739 -1.3909
19155TIP3    H278881   2.978   5.690   2.547  0.1703 -0.6406 -0.3202
19156TIP3   OH278882   5.811   6.536   1.216 -0.3644  0.1507  0.1630
19156TIP3    H178883   5.726   6.511   1.252  1.3443 -2.0467  3.2183
19156TIP3    H278884   5.837   6.460   1.163  0.6769 -0.3048  1.2852
19157TIP3   OH278885   6.183   2.810   1.777  0.0415 -0.0436  0.0794
19157TIP3    H178886   6.267   2.793   1.735 -0.2100  0.0775 -0.4768
19157TIP3    H278887   6.197   2.889   1.829  0.8561 -1.1674  1.6647
19158TIP3   OH278888   3.081   5.089  16.145 -0.2626 -0.6594  0.8231
19158TIP3    H178889   3.011   5.050  16.198 -0.3656  0.6642  1.7052
19158TIP3    H278890   3.138   5.015  16.123 -0.6076 -1.3678  2.1899
19159TIP3   OH278891   4.740   0.974  15.442 -0.2850  0.1135 -0.6940
19159TIP3    H178892   4.772   0.985  15.352  1.2682  1.9541  0.0246
19159TIP3    H278893   4.819   0.954  15.493 -1.0104 -0.0213  0.4128
19160TIP3   OH278894   3.650   5.395   2.305  0.3197  0.4069 -0.0172
19160TIP3    H178895   3.712   5.421   2.373  0.4484  1.3082 -0.4708
19160TIP3    H278896   3.697   5.410   2.223  1.0034 -2.6840 -0.3407
19161TIP3   OH278897   2.465   4.908  11.212 -0.2725  0.1327 -0.5859
19161TIP3    H178898   2.408   4.980  11.187  0.2529  1.3399  1.4644
19161TIP3    H278899   2.427   4.831  11.169 -1.4874  1.4270 -1.9210
19162TIP3   OH278900   2.339   0.497  10.852 -0.0898  0.0825  0.1847
19162TIP3    H178901   2.324   0.532  10.940 -0.5754 -1.0151  0.5574
19162TIP3    H278902   2.286   0.418  10.848  0.4801 -0.2700 -0.8523
19163TIP3   OH278903   3.216   3.703   0.561 -0.0736 -0.6420  0.7004
19163TIP3    H178904   3.298   3.659   0.537  0.4281 -0.4377  1.9297
19163TIP3    H278905   3.193   3.665   0.646 -0.7309 -0.0068  0.8175
19164TIP3   OH278906   3.119   5.526  15.084  0.0409 -0.5705  0.2826
19164TIP3    H178907   3.214   5.530  15.071  0.1159  0.7602  1.0860
19164TIP3    H278908   3.104   5.438  15.118  0.5653 -1.9452 -2.6514
19165TIP3   OH278909   6.652   5.217  11.992  0.1909 -0.3631 -0.1541
19165TIP3    H178910   6.615   5.199  11.906 -1.6431 -1.1790  0.7411
19165TIP3    H278911   6.658   5.131  12.034  0.1585  0.1104  0.8571
19166TIP3   OH278912   6.303   2.259   5.977  1.1974  0.0283  0.3845
19166TIP3    H178913   6.287   2.354   5.978  0.2082 -0.0466 -1.7992
19166TIP3    H278914   6.244   2.224   6.043  0.6832  0.8375  0.3743
19167TIP3   OH278915   6.646   1.019   2.768  0.2157  0.2002 -0.2143
19167TIP3    H178916   6.709   1.001   2.697  0.3753 -1.2696  0.2695
19167TIP3    H278917   6.627   0.934   2.806 -0.2532  0.8994  1.2086
19168TIP3   OH278918   1.050   2.294  12.041 -0.2781 -0.2107 -0.6850
19168TIP3    H178919   1.001   2.218  12.007  0.6334 -0.6481 -1.0694
19168TIP3    H278920   1.139   2.261  12.053  0.3470  1.0201 -1.6818
19169TIP3   OH278921   0.314   6.094   5.376 -0.2020 -0.3540 -0.0206
19169TIP3    H178922   0.275   6.020   5.423  0.9390 -2.7938 -2.5944
19169TIP3    H278923   0.397   6.110   5.421 -1.1952  0.5990  1.5851
19170TIP3   OH278924   1.637   2.260   0.504  0.0919 -0.3821  0.2016
19170TIP3    H178925   1.543   2.248   0.496 -0.1869  1.3223  0.4291
19170TIP3    H278926   1.658   2.230   0.593  0.6548 -5.1681 -1.2534
19171TIP3   OH278927   2.193   0.604  13.702  0.2148  0.5519  0.5267
19171TIP3    H178928   2.246   0.537  13.660 -0.1725  1.6071 -1.8441
19171TIP3    H278929   2.232   0.687  13.674 -0.8067  1.3182  1.2821
19172TIP3   OH278930   1.320   4.603   2.220 -0.0216  0.2198  0.1542
19172TIP3    H178931   1.396   4.593   2.278 -1.1340  1.5057  1.9607
19172TIP3    H278932   1.257   4.652   2.273 -1.1400  1.4279 -2.1828
19173TIP3   OH278933   2.364   1.473  16.833 -0.9479 -0.1837 -0.0534
19173TIP3    H178934   2.341   1.425  16.754 -1.0224 -0.9304  0.4141
19173TIP3    H278935   2.359   1.565  16.808 -1.8380 -0.3920 -0.6848
19174TIP3   OH278936   6.751   6.393  10.836 -0.2409 -0.2788 -0.1009
19174TIP3    H178937   6.751   6.434  10.923  1.1355 -0.0625 -0.1887
19174TIP3    H278938   6.777   6.303  10.853 -2.0151 -0.8245 -0.0659
19175TIP3   OH278939   5.561   2.319   1.710  0.2614 -0.4424 -0.5747
19175TIP3    H178940   5.597   2.251   1.654  1.6017 -0.0019 -0.2898
19175TIP3    H278941   5.549   2.394   1.652  1.0252 -0.1909 -0.4102
19176TIP3   OH278942   3.057   2.493  12.602 -0.7685  0.6169  0.5573
19176TIP3    H178943   3.013   2.578  12.605 -2.4196 -0.1894  0.9790
19176TIP3    H278944   3.032   2.450  12.684 -2.6773 -1.4763 -0.9681
19177TIP3   OH278945   1.107   3.601   0.668 -0.1592  0.6905 -0.1077
19177TIP3    H178946   1.176   3.582   0.604  0.5865  0.9066  0.6172
19177TIP3    H278947   1.031   3.551   0.637  1.0557 -1.6533  0.4594
19178TIP3   OH278948   2.632   1.379  14.850 -0.3204  0.3856  0.8536
19178TIP3    H178949   2.619   1.295  14.894 -1.6793  0.6390  0.9777
19178TIP3    H278950   2.727   1.387  14.841 -0.1901 -1.9862 -0.7670
19179TIP3   OH278951   3.429   1.547   2.653 -0.7088  0.0549 -0.3955
19179TIP3    H178952   3.440   1.464   2.607  0.6391  0.2856 -0.5187
19179TIP3    H278953   3.334   1.561   2.655 -1.1801 -2.5753  1.5859
19180TIP3   OH278954   5.342   4.314   5.555  0.4438 -0.0407 -0.3662
19180TIP3    H178955   5.409   4.378   5.580  1.0367 -1.0354  0.7145
19180TIP3    H278956   5.389   4.231   5.549 -0.2750 -0.3616 -1.9378
19181TIP3   OH278957   2.111   3.809  11.287  0.2232  0.3619 -0.1974
19181TIP3    H178958   2.207   3.806  11.289  0.2548  1.4155  0.5644
19181TIP3    H278959   2.088   3.884  11.342 -1.0586 -0.1852  0.0533
19182TIP3   OH278960   1.658   1.473   5.117  0.2056  0.1885  0.2512
19182TIP3    H178961   1.678   1.387   5.153 -0.4500  0.2766  0.8429
19182TIP3    H278962   1.578   1.500   5.162 -0.1583  0.6747 -0.6540
19183TIP3   OH278963   4.053   5.640  14.656 -0.3153 -0.2546  0.0816
19183TIP3    H178964   4.110   5.568  14.628 -0.8285 -1.1283  1.1973
19183TIP3    H278965   3.974   5.597  14.689 -1.5171  0.9140 -1.1364
19184TIP3   OH278966   5.471   0.446   4.712 -0.2346  0.3005  0.5997
19184TIP3    H178967   5.493   0.467   4.621 -2.3855  1.8576  0.3728
19184TIP3    H278968   5.495   0.353   4.721 -1.0310 -0.2362 -1.9283
19185TIP3   OH278969   1.312   6.673   0.087  0.1246 -0.4726 -0.1941
19185TIP3    H178970   1.313   6.749   0.029  0.7471 -0.3921 -0.0920
19185TIP3    H278971   1.227   6.676   0.130  0.6391  0.9375  0.8069
19186TIP3   OH278972   3.819   3.820   0.656 -0.1429 -0.1805 -0.1200
19186TIP3    H178973   3.911   3.822   0.684 -0.2509  1.3522  0.2234
19186TIP3    H278974   3.779   3.895   0.701 -1.9891 -1.8270  1.1645
19187TIP3   OH278975   1.531   3.329  13.221 -0.5687 -0.0266 -0.1118
19187TIP3    H178976   1.569   3.264  13.280 -0.0838  0.9902  0.7113
19187TIP3    H278977   1.559   3.301  13.134  1.7892  0.4673  0.4261
19188TIP3   OH278978   0.750   0.736   0.003  0.2045  0.4398 -0.0606
19188TIP3    H178979   0.797   0.795   0.062 -1.0013 -0.7793  2.2642
19188TIP3    H278980   0.741   0.655   0.053 -3.7368  0.3953 -0.5573
19189TIP3   OH278981   0.443   0.661   1.297  0.2628  0.4195 -0.2755
19189TIP3    H178982   0.384   0.589   1.320  0.2827  0.2364 -0.8008
19189TIP3    H278983   0.496   0.674   1.376  0.6107 -0.4799 -0.3526
19190TIP3   OH278984   5.661   3.703  11.687 -0.3348  0.1858  0.0422
19190TIP3    H178985   5.598   3.747  11.629 -0.5946 -1.4909 -1.0084
19190TIP3    H278986   5.747   3.724  11.649 -0.4180  0.3055 -0.0799
19191TIP3   OH278987   3.877   5.324   5.234  0.4789  0.1357  0.3929
19191TIP3    H178988   3.820   5.312   5.158  2.9019  0.0801 -1.5410
19191TIP3    H278989   3.915   5.410   5.223  0.3315  0.4484  2.0111
19192TIP3   OH278990   0.723   6.315  12.085 -0.0294  0.5183  0.3890
19192TIP3    H178991   0.760   6.384  12.029 -1.6462  1.3186  0.2455
19192TIP3    H278992   0.726   6.236  12.031  3.0718  0.0879  1.0157
19193TIP3   OH278993   2.573   6.130   3.320 -0.3533 -0.4332  0.3187
19193TIP3    H178994   2.523   6.049   3.312  1.3711 -1.4191 -1.2361
19193TIP3    H278995   2.613   6.142   3.234 -0.3009  1.9350  0.6041
19194TIP3   OH278996   0.464   2.601  16.141  0.1256  0.6619 -0.2894
19194TIP3    H178997   0.433   2.556  16.219  0.7630  2.1557  0.8543
19194TIP3    H278998   0.485   2.530  16.080 -0.0352 -0.5450  1.0138
19195TIP3   OH278999   2.005   5.747  11.199  0.2806 -0.1220 -0.1477
19195TIP3    H179000   1.943   5.811  11.233  0.7991  0.7454 -0.7899
19195TIP3    H279001   1.962   5.709  11.123  0.2426 -0.0529 -0.1596
19196TIP3   OH279002   6.171   4.491   4.375 -0.6494 -0.2073  0.2350
19196TIP3    H179003   6.225   4.427   4.328 -0.4781 -0.2023  0.4234
19196TIP3    H279004   6.200   4.484   4.466 -1.1782 -0.4201  0.3893
19197TIP3   OH279005   6.204   6.671   4.653 -0.3317  1.2557  0.8950
19197TIP3    H179006   6.159   6.654   4.736 -0.5024  1.6656  0.8901
19197TIP3    H279007   6.278   6.611   4.653 -1.3316 -0.0069  0.5374
19198TIP3   OH279008   1.400   4.899  17.319  0.1793  0.0975 -0.1893
19198TIP3    H179009   1.444   4.980  17.345 -1.3015  0.7708  0.3462
19198TIP3    H279010   1.315   4.928  17.284 -0.8176 -1.2568  0.9761
19199TIP3   OH279011   1.323   0.412  11.181 -0.1618  0.2507 -0.3072
19199TIP3    H179012   1.271   0.340  11.217 -0.3452  0.9865  0.9646
19199TIP3    H279013   1.302   0.413  11.088 -3.7372  1.5085  0.3627
19200TIP3   OH279014   3.790   3.585   5.799  0.3230  0.0019 -0.9444
19200TIP3    H179015   3.794   3.490   5.807 -2.1760 -0.1034  0.0895
19200TIP3    H279016   3.697   3.606   5.808  0.8652  2.6012 -0.4341
19201TIP3   OH279017   4.976   3.623   5.227  0.0073 -0.1185 -0.0070
19201TIP3    H179018   5.065   3.624   5.192 -0.5566  0.0583 -1.5292
19201TIP3    H279019   4.926   3.677   5.166 -0.6439  2.1050  2.3097
19202TIP3   OH279020   3.183   1.589   2.755 -0.2579  0.1482  0.4490
19202TIP3    H179021   3.124   1.652   2.796  0.1138 -0.0821  1.3487
19202TIP3    H279022   3.189   1.517   2.818  1.2551  0.3189  0.5376
19203TIP3   OH279023   0.029   1.397  11.707 -0.0539 -0.5797  0.6213
19203TIP3    H179024   0.075   1.352  11.777  1.1721  0.3673  0.4658
19203TIP3    H279025   0.068   1.362  11.626  1.8282  1.5652  0.5088
19204TIP3   OH279026   2.904   0.649   2.238 -1.0236 -0.7133 -0.0352
19204TIP3    H179027   2.975   0.587   2.220 -1.1757 -0.4903 -1.6132
19204TIP3    H279028   2.880   0.632   2.329  1.8315  0.0429  0.9744
19205TIP3   OH279029   5.386   3.423  15.739  0.5569 -0.3547 -0.4201
19205TIP3    H179030   5.300   3.387  15.719  0.2742 -1.0388  1.7247
19205TIP3    H279031   5.386   3.510  15.700 -1.8984  0.4660  1.1580
19206TIP3   OH279032   6.740   3.497   0.970  0.0237 -0.1145 -0.0046
19206TIP3    H179033   6.787   3.457   0.896 -0.1386  0.1572 -0.2574
19206TIP3    H279034   6.730   3.426   1.033  0.5934 -0.2270 -0.0348
19207TIP3   OH279035   0.627   1.320   5.150 -0.1406  0.3777 -0.1977
19207TIP3    H179036   0.584   1.254   5.204  0.8464  0.2255  0.4257
19207TIP3    H279037   0.597   1.403   5.186 -0.6211  0.2826 -0.3629
19208TIP3   OH279038   5.768   3.387   6.215 -0.7164  0.1255 -0.2609
19208TIP3    H179039   5.733   3.441   6.145 -0.1059  0.5644 -0.2327
19208TIP3    H279040   5.706   3.314   6.223 -0.1850 -0.5634 -2.0528
19209TIP3   OH279041   3.684   1.239  13.080  0.3369  0.0549  0.4404
19209TIP3    H179042   3.624   1.208  13.148  0.3477 -2.4522 -0.5677
19209TIP3    H279043   3.771   1.225  13.117  0.3261  0.2314  0.5316
19210TIP3   OH279044   2.265   1.805  17.379  0.3223 -0.2264  0.3926
19210TIP3    H179045   2.181   1.759  17.376  0.7749 -1.0317 -0.2408
19210TIP3    H279046   2.246   1.891  17.342 -0.6974  0.4063  2.2667
19211TIP3   OH279047   0.765   2.887  11.679 -0.3221  0.1544  0.6817
19211TIP3    H179048   0.761   2.892  11.774  0.0792  0.5404  0.6842
19211TIP3    H279049   0.825   2.815  11.660 -1.0945 -0.5109  0.7069
19212TIP3   OH279050   6.046   5.392  11.987 -0.2017  0.3193  0.3661
19212TIP3    H179051   6.091   5.398  11.903 -0.7931 -1.3849 -0.1267
19212TIP3    H279052   5.954   5.377  11.963 -0.4045 -0.0217  1.3229
19213TIP3   OH279053   3.536   1.383  15.474 -0.3528  0.8323 -0.3324
19213TIP3    H179054   3.568   1.429  15.396 -1.6061  2.6421  0.1540
19213TIP3    H279055   3.442   1.398  15.473 -0.5147  0.0018  0.9922
19214TIP3   OH279056   2.688   3.740  12.594  0.0992 -0.4207 -0.2332
19214TIP3    H179057   2.647   3.826  12.582  0.1118 -0.4225 -0.2868
19214TIP3    H279058   2.617   3.678  12.582  0.0891 -0.4180 -0.1894
19215TIP3   OH279059   5.926   0.411   2.424 -0.4738  0.5995  0.1504
19215TIP3    H179060   6.017   0.432   2.445 -0.8615  2.3227  0.2772
19215TIP3    H279061   5.882   0.404   2.508 -0.4350 -0.4760  0.0983
19216TIP3   OH279062   3.085   5.769  13.908  0.2674  0.3585 -0.5848
19216TIP3    H179063   2.992   5.751  13.915  0.3726 -0.1076 -0.3189
19216TIP3    H279064   3.125   5.716  13.977  0.5147  2.4170  0.9505
19217TIP3   OH279065   4.056   2.356  16.134 -0.2268 -0.3406  0.6716
19217TIP3    H179066   4.138   2.388  16.098 -0.1473 -1.3076 -0.0407
19217TIP3    H279067   4.018   2.302  16.065 -1.4786  0.1053  0.9856
19218TIP3   OH279068   4.990   3.952  11.799 -0.0934 -0.3671  0.7850
19218TIP3    H179069   4.921   3.917  11.856 -2.0693 -1.1696 -1.9031
19218TIP3    H279070   4.970   4.045  11.792 -2.0443 -0.8403 -1.2285
19219TIP3   OH279071   0.364   6.517  11.754  0.5826 -0.0876 -0.6914
19219TIP3    H179072   0.341   6.495  11.844  2.0109  1.2695  0.0619
19219TIP3    H279073   0.284   6.555  11.718  0.5587  1.2706  0.6903
19220TIP3   OH279074   2.708   0.914   2.807  0.4696  0.4411 -0.2126
19220TIP3    H179075   2.631   0.959   2.772 -1.3567 -1.2755  1.3619
19220TIP3    H279076   2.729   0.848   2.741  0.7828  1.0515 -0.7438
19221TIP3   OH279077   3.755   5.829  15.538 -0.2088  0.0030  0.6774
19221TIP3    H179078   3.723   5.917  15.517 -1.4747 -0.5877 -0.0017
19221TIP3    H279079   3.850   5.835  15.528 -0.2047  1.4593  1.3182
19222TIP3   OH279080   3.389   5.388  14.561  0.2290 -0.0074  0.1479
19222TIP3    H179081   3.347   5.379  14.475 -0.0237  0.1840  0.2503
19222TIP3    H279082   3.330   5.444  14.611 -0.3278 -1.2126  0.8963
19223TIP3   OH279083   0.490   0.718  14.309 -0.1050  0.3293  0.0249
19223TIP3    H179084   0.502   0.653  14.378  3.1185 -0.2121 -0.8948
19223TIP3    H279085   0.475   0.667  14.230 -0.0379  0.7922 -0.2943
19224TIP3   OH279086   5.304   4.570   3.611 -0.1304 -0.0255  0.0330
19224TIP3    H179087   5.348   4.640   3.563  0.4526 -0.5546 -0.2306
19224TIP3    H279088   5.365   4.547   3.681  0.6589 -1.6554 -1.1148
19225TIP3   OH279089   0.415   6.564  12.024  0.3708 -0.0729  0.1121
19225TIP3    H179090   0.481   6.627  11.994 -1.2757  2.1732  0.9615
19225TIP3    H279091   0.423   6.565  12.120  0.9921 -1.9894  0.1150
19226TIP3   OH279092   2.510   2.087  15.548  0.1844  0.6008 -0.9749
19226TIP3    H179093   2.481   2.037  15.624  0.8778 -0.1615 -1.1938
19226TIP3    H279094   2.470   2.043  15.473  3.6263 -2.0211 -1.5441
19227TIP3   OH279095   3.582   5.830   3.775 -0.0897 -0.1435  0.3396
19227TIP3    H179096   3.593   5.925   3.764 -1.2333 -0.0948 -0.5881
19227TIP3    H279097   3.643   5.791   3.712 -0.4158  0.0073 -0.0778
19228TIP3   OH279098   4.453   2.969   1.561 -0.4467  0.1638 -0.4526
19228TIP3    H179099   4.545   2.987   1.542 -0.5647 -0.2164 -1.4029
19228TIP3    H279100   4.408   3.049   1.535 -0.4541  0.1311 -0.5409
19229TIP3   OH279101   1.806   3.676  15.637  0.6278  0.1142 -0.1888
19229TIP3    H179102   1.841   3.611  15.576  0.2133  1.7785 -2.3419
19229TIP3    H279103   1.717   3.693  15.605 -0.4756 -0.5811  2.3024
19230TIP3   OH279104   5.702   2.889   0.165  0.1845 -0.4665  0.0053
19230TIP3    H179105   5.693   2.866   0.258 -0.6915  1.9756  0.5990
19230TIP3    H279106   5.638   2.959   0.152  1.3837  0.3150 -2.0629
19231TIP3   OH279107   4.515   6.295   6.206  0.2805  1.1107  0.0183
19231TIP3    H179108   4.524   6.369   6.266 -0.6344  1.2291  0.0349
19231TIP3    H279109   4.563   6.321   6.127  0.2882  1.5620  0.1699
19232TIP3   OH279110   4.240   5.319   3.500 -0.2967  0.0259 -0.2605
19232TIP3    H179111   4.220   5.248   3.438 -3.2947 -0.6846  1.3252
19232TIP3    H279112   4.217   5.399   3.453 -2.1817 -0.4841 -0.3074
19233TIP3   OH279113   0.948   1.280  14.462  0.5061  0.2725 -0.0170
19233TIP3    H179114   1.006   1.278  14.387 -0.4286  0.2780 -0.7635
19233TIP3    H279115   0.876   1.221  14.439  0.7358 -0.5733  1.3262
19234TIP3   OH279116   4.299   3.032   0.238 -0.0932 -0.0930 -0.4270
19234TIP3    H179117   4.368   3.067   0.181  0.0410 -0.2247 -0.3468
19234TIP3    H279118   4.344   2.968   0.293 -0.0279  0.7348  0.4923
19235TIP3   OH279119   1.963   5.069  14.773  0.0096  0.0006  0.9662
19235TIP3    H179120   2.054   5.074  14.803 -0.2408  1.1818  1.6016
19235TIP3    H279121   1.965   5.099  14.682  0.6620 -2.8497 -0.0453
19236TIP3   OH279122   0.260   5.553  16.858  0.1755  0.2791  0.1781
19236TIP3    H179123   0.204   5.631  16.860  0.7007  0.6445  1.6436
19236TIP3    H279124   0.328   5.570  16.924  0.3271 -1.3935  0.4950
19237TIP3   OH279125   3.279   0.869  12.040  0.1568 -0.5408  0.0319
19237TIP3    H179126   3.325   0.911  12.113  2.0452 -0.0374 -1.3738
19237TIP3    H279127   3.303   0.777  12.046  0.2037 -0.5235  0.1046
19238TIP3   OH279128   0.126   4.703   0.448 -0.3611 -0.2910  0.6720
19238TIP3    H179129   0.205   4.674   0.494 -0.6808 -2.8437 -0.2704
19238TIP3    H279130   0.157   4.731   0.362 -0.1459  1.7686  1.3506
19239TIP3   OH279131   0.438   1.395  13.871  0.0369 -0.5736  0.6578
19239TIP3    H179132   0.530   1.368  13.875  1.3924  3.0779 -0.6538
19239TIP3    H279133   0.410   1.372  13.782 -0.1953 -1.3513  0.9312
19240TIP3   OH279134   2.654   2.904   5.111 -0.6731  0.5944  0.3601
19240TIP3    H179135   2.573   2.906   5.161 -0.2768 -0.2449  1.0759
19240TIP3    H279136   2.627   2.888   5.020 -1.2976  0.1594  0.6225
19241TIP3   OH279137   0.207   1.969   2.493 -0.3389 -0.3727 -0.5008
19241TIP3    H179138   0.202   1.875   2.477  2.9409 -0.7552  0.1449
19241TIP3    H279139   0.299   1.992   2.480 -0.8639  2.6014  0.1773
19242TIP3   OH279140   0.642   5.087   2.776 -0.9532  0.1474 -0.4156
19242TIP3    H179141   0.707   5.106   2.708 -0.6044 -1.1896 -0.4900
19242TIP3    H279142   0.694   5.062   2.852 -1.3689 -0.1931 -0.2425
19243TIP3   OH279143   5.675   0.377  16.404 -0.1537  0.3355  0.0042
19243TIP3    H179144   5.582   0.364  16.422 -0.5975  0.8828 -1.7215
19243TIP3    H279145   5.677   0.435  16.329  1.6056  0.6142  0.2255
19244TIP3   OH279146   0.086   4.815  10.945 -0.1901  0.3044  0.2803
19244TIP3    H179147  -0.002   4.810  10.982  0.1101 -2.3638  0.8011
19244TIP3    H279148   0.144   4.805  11.020  0.4797 -1.0003 -0.3805
19245TIP3   OH279149   0.289   4.460  17.330 -0.5090 -0.4081 -0.3441
19245TIP3    H179150   0.219   4.409  17.370  0.9481 -2.7776 -0.6117
19245TIP3    H279151   0.316   4.522  17.398 -2.0132 -0.2739  0.1714
19246TIP3   OH279152   1.056   3.340  10.921  0.0666 -0.2689 -0.4743
19246TIP3    H179153   1.050   3.435  10.911 -0.2426 -0.1604  0.6152
19246TIP3    H279154   1.149   3.323  10.936  0.3375 -0.3026 -2.0323
19247TIP3   OH279155   5.328   2.605  12.953 -0.1269  0.0474  0.4940
19247TIP3    H179156   5.378   2.579  12.875  4.0608  2.9804  1.8445
19247TIP3    H279157   5.315   2.524  13.001 -1.1024 -1.5508 -2.2291
19248TIP3   OH279158   4.008   0.044  16.997  0.3705 -0.2770  0.1790
19248TIP3    H179159   3.990   0.008  16.910 -1.9231  0.4488  0.2997
19248TIP3    H279160   3.982   0.136  16.991 -1.0399 -0.5092  1.9474
19249TIP3   OH279161   1.458   0.455   4.622  0.1327 -0.1321  0.2942
19249TIP3    H179162   1.478   0.433   4.531 -1.5098 -1.1138  0.1164
19249TIP3    H279163   1.514   0.397   4.673  1.4067  0.7551 -0.0664
19250TIP3   OH279164   6.617   6.330   1.798  0.3762  0.2164 -0.2754
19250TIP3    H179165   6.586   6.248   1.838 -0.1079 -0.1953 -1.4435
19250TIP3    H279166   6.537   6.382   1.789  0.3002 -0.1060 -1.6091
19251TIP3   OH279167   1.727   0.003  13.991  0.3159  0.1704  0.5973
19251TIP3    H179168   1.634  -0.017  14.002 -0.2811  2.1927 -0.2387
19251TIP3    H279169   1.751  -0.040  13.909 -0.2969  0.8448  0.0509
19252TIP3   OH279170   0.811   1.744  12.266  0.1074 -0.2294  0.0446
19252TIP3    H179171   0.748   1.811  12.292 -0.9817 -0.4381 -1.8563
19252TIP3    H279172   0.876   1.792  12.214  1.0691 -0.1597  1.2800
19253TIP3   OH279173   2.398   6.705  14.867  0.4125 -0.1369 -0.0417
19253TIP3    H179174   2.493   6.692  14.862  0.4110  0.2718 -1.5821
19253TIP3    H279175   2.370   6.714  14.776 -1.2637 -1.2581  0.3156
19254TIP3   OH279176   2.539   0.331   5.096 -0.3180 -0.4450  0.1389
19254TIP3    H179177   2.459   0.344   5.147  0.2916 -3.3072  2.0523
19254TIP3    H279178   2.610   0.343   5.159  0.7502  0.9799 -1.2781
19255TIP3   OH279179   3.214   6.117   2.792 -0.1303 -0.7002 -0.0720
19255TIP3    H179180   3.203   6.023   2.784  1.6136 -0.8335 -1.4414
19255TIP3    H279181   3.276   6.140   2.723 -0.3381  1.4216  0.3822
19256TIP3   OH279182   4.568   6.432   2.776  0.4965 -0.2585 -0.4832
19256TIP3    H179183   4.639   6.416   2.838 -0.8092 -0.3208  1.0592
19256TIP3    H279184   4.551   6.346   2.736  0.2449 -0.6019  0.3322
19257TIP3   OH279185   3.690   1.764   5.252 -0.0175 -0.0123 -0.1043
19257TIP3    H179186   3.671   1.753   5.346 -1.2175  0.2713 -0.2979
19257TIP3    H279187   3.639   1.695   5.209 -1.0569  1.0839 -0.6832
19258TIP3   OH279188   4.235   0.239   0.665 -0.2194 -0.1359 -0.2091
19258TIP3    H179189   4.317   0.198   0.693  0.3716  0.2885 -1.2461
19258TIP3    H279190   4.166   0.186   0.705  0.5490 -0.0885  1.2787
19259TIP3   OH279191   5.319   3.572   1.995  0.0076  0.2627 -0.0829
19259TIP3    H179192   5.389   3.633   2.021 -0.8034  1.5004 -0.6785
19259TIP3    H279193   5.313   3.583   1.900  0.6197 -1.6431 -0.3825
19260TIP3   OH279194   5.150   3.639   0.346  0.3584 -0.8764  0.4417
19260TIP3    H179195   5.125   3.662   0.257  0.5714  0.4637  0.7100
19260TIP3    H279196   5.108   3.555   0.362 -0.0531 -0.9135 -0.7597
19261TIP3   OH279197   2.969   4.910   3.781  0.7186  0.2228  0.9863
19261TIP3    H179198   3.001   4.821   3.796  0.0538 -0.2750 -0.4363
19261TIP3    H279199   2.874   4.902   3.783  0.4917  1.6034  4.6942
19262TIP3   OH279200   1.637   2.306   1.772  0.5556  0.6771 -0.0829
19262TIP3    H179201   1.732   2.297   1.763  0.7378  1.3244  1.0821
19262TIP3    H279202   1.607   2.220   1.802  0.9032  0.7785  0.5512
19263TIP3   OH279203   3.740   1.735  11.027 -0.3638  0.2212  0.1184
19263TIP3    H179204   3.746   1.644  10.998  0.3067  1.0088 -2.4120
19263TIP3    H279205   3.646   1.749  11.044 -0.6780 -0.5077 -0.9712
19264TIP3   OH279206   5.049   3.057  14.108 -0.4002 -0.4231 -0.5813
19264TIP3    H179207   4.977   3.022  14.161 -0.8164  3.8893  2.2459
19264TIP3    H279208   5.034   3.022  14.021 -4.3621 -1.8475  0.4645
19265TIP3   OH279209   6.404   0.171  12.373  0.1085  0.1591 -0.1972
19265TIP3    H179210   6.385   0.088  12.329  0.7037  0.8038 -1.7825
19265TIP3    H279211   6.379   0.237  12.308  1.4504  1.1554  0.2776
19266TIP3   OH279212   3.058   3.370   1.784  0.0018 -0.7638  0.0218
19266TIP3    H179213   3.121   3.441   1.783 -1.9306  1.0609 -0.5370
19266TIP3    H279214   3.020   3.371   1.872 -0.8976 -0.2484 -0.3572
19267TIP3   OH279215   6.010   5.158  16.223  0.0560  0.7631 -0.3196
19267TIP3    H179216   5.962   5.082  16.256 -0.1898  0.7633 -0.6703
19267TIP3    H279217   6.056   5.192  16.300 -1.5402  1.5467  0.3425
19268TIP3   OH279218   2.239   3.040   3.382  0.2390 -0.6352 -0.1976
19268TIP3    H179219   2.327   3.052   3.418  0.6450 -1.0167 -1.0222
19268TIP3    H279220   2.233   2.946   3.366 -0.0949 -0.5343 -0.6896
19269TIP3   OH279221   6.232   0.261  11.412 -0.5731  0.1389  0.4573
19269TIP3    H179222   6.290   0.249  11.337 -1.7897 -0.1051 -0.4763
19269TIP3    H279223   6.227   0.356  11.423  0.7705  0.1380  1.1768
19270TIP3   OH279224   4.266   5.007  13.148 -0.0680  0.5083 -0.2316
19270TIP3    H179225   4.236   5.068  13.080  1.8006 -0.6525 -2.2308
19270TIP3    H279226   4.230   4.922  13.122  2.5101 -0.3877 -1.1600
19271TIP3   OH279227   1.782   1.198  16.470  0.2515  0.2621 -0.2696
19271TIP3    H179228   1.687   1.188  16.470  0.3140 -0.3112 -0.3444
19271TIP3    H279229   1.795   1.293  16.460 -0.3023  0.3020 -0.7025
19272TIP3   OH279230   6.495   0.871  15.929 -0.2087  0.2800  0.0217
19272TIP3    H179231   6.525   0.962  15.932 -0.7842  0.4447  1.4872
19272TIP3    H279232   6.494   0.844  16.020 -1.0489 -0.8751 -0.3195
19273TIP3   OH279233   5.653   6.190  15.885  0.5518  0.0865  0.1794
19273TIP3    H179234   5.568   6.229  15.904 -0.1757 -1.2862 -0.1861
19273TIP3    H279235   5.679   6.147  15.967  0.0960 -0.9345 -0.2054
19274TIP3   OH279236   4.972   0.933   0.101 -0.2249 -0.3919  0.2958
19274TIP3    H179237   5.023   0.915   0.022 -0.1370 -1.8990  0.6584
19274TIP3    H279238   4.888   0.966   0.069  0.6017  1.1829 -0.3345
19275TIP3   OH279239   0.587   2.320  13.639  0.1554 -0.5272  0.0811
19275TIP3    H179240   0.587   2.416  13.643  0.1575 -0.4762 -0.8087
19275TIP3    H279241   0.643   2.293  13.712 -0.3444  0.1213  0.7174
19276TIP3   OH279242   2.450   0.572   4.214 -0.7845 -0.0881 -0.6818
19276TIP3    H179243   2.525   0.573   4.154 -2.1927  0.7178 -2.5437
19276TIP3    H279244   2.444   0.662   4.247 -1.0555 -0.0966 -0.7046
19277TIP3   OH279245   0.981   5.600   6.335 -0.0105  0.0633 -0.2761
19277TIP3    H179246   1.059   5.607   6.390  0.6335 -0.3985 -1.1087
19277TIP3    H279247   1.014   5.599   6.245 -1.1605  2.7274 -0.8255
19278TIP3   OH279248   3.704   1.224   2.817  0.4457  0.8458 -0.6224
19278TIP3    H179249   3.661   1.258   2.738 -0.8494  0.8756  0.0532
19278TIP3    H279250   3.656   1.144   2.837  0.2945  1.2054  0.5122
19279TIP3   OH279251   1.143   0.226  11.226 -0.6754  0.0122  0.6602
19279TIP3    H179252   1.136   0.132  11.245 -2.6754  0.0017  0.0905
19279TIP3    H279253   1.070   0.244  11.166 -1.4278  2.2676  2.1338
19280TIP3   OH279254   0.876   6.005   0.430 -0.4316  0.4192  0.2368
19280TIP3    H179255   0.808   6.000   0.364 -0.8357  3.1927  0.3033
19280TIP3    H279256   0.956   6.028   0.382 -0.1775  0.0176  0.4581
19281TIP3   OH279257   2.559   4.228   5.614  0.2970  0.0949  0.2463
19281TIP3    H179258   2.646   4.227   5.575  0.2035  1.1350 -0.0202
19281TIP3    H279259   2.568   4.284   5.691 -0.5732  2.0026 -0.9485
19282TIP3   OH279260   2.696   2.128   0.408  1.0802 -0.2320 -0.0521
19282TIP3    H179261   2.707   2.190   0.480  1.3059  1.2441 -1.3081
19282TIP3    H279262   2.783   2.121   0.368  1.0002 -1.1748 -0.0825
19283TIP3   OH279263   0.252   4.352  13.253  0.2695  0.0103  0.2072
19283TIP3    H179264   0.250   4.302  13.172  1.6577 -0.2031  0.2742
19283TIP3    H279265   0.173   4.406  13.250 -0.0875 -0.5441 -0.9203
19284TIP3   OH279266   3.035   4.333   2.532  0.6927 -0.2939 -0.1885
19284TIP3    H179267   3.084   4.379   2.601 -0.3080  1.5820 -0.6493
19284TIP3    H279268   3.047   4.387   2.454 -0.4671 -0.8825 -0.7960
19285TIP3   OH279269   0.310   1.687   4.848  0.0791 -0.3773  0.3446
19285TIP3    H179270   0.354   1.606   4.823  0.4417 -0.3747  0.9639
19285TIP3    H279271   0.366   1.725   4.916 -0.8818 -0.3651  1.1354
19286TIP3   OH279272   0.715   3.993  15.473 -0.1240 -0.3087  0.0853
19286TIP3    H179273   0.705   4.032  15.386 -0.0436  0.3608  0.3739
19286TIP3    H279274   0.684   3.903  15.463 -3.4562  0.7195  0.1963
19287TIP3   OH279275   1.242   6.005   5.319 -0.1965 -0.3649  0.0362
19287TIP3    H179276   1.219   5.917   5.290  1.1708 -1.5749  2.3444
19287TIP3    H279277   1.338   6.006   5.320 -0.1618  1.5569 -0.9854
19288TIP3   OH279278   0.975   0.688   5.253  0.8977  0.1722  0.5179
19288TIP3    H179279   0.992   0.681   5.347 -0.3421  3.3114  1.1020
19288TIP3    H279280   0.882   0.666   5.244  1.4928 -2.1918 -0.3563
19289TIP3   OH279281   5.352   5.478   1.368 -0.2670 -0.1951 -0.3313
19289TIP3    H179282   5.374   5.571   1.362 -0.7582 -0.1655 -2.4857
19289TIP3    H279283   5.434   5.436   1.392  0.7715  0.5141 -2.4136
19290TIP3   OH279284   6.670   5.858   4.104 -0.4235 -0.2355  0.3602
19290TIP3    H179285   6.645   5.779   4.151  0.6233 -2.9023 -3.1320
19290TIP3    H279286   6.589   5.888   4.062 -0.4769 -0.5447  0.2439
19291TIP3   OH279287   6.660   2.305  13.631 -0.9007  0.1699  0.1266
19291TIP3    H179288   6.668   2.235  13.696 -0.3037  0.6894  0.6171
19291TIP3    H279289   6.749   2.319  13.599 -1.3134 -0.7343 -1.5222
19292TIP3   OH279290   6.413   2.545  16.486 -0.3697  0.5350 -0.6957
19292TIP3    H179291   6.410   2.471  16.546 -0.4315  1.0611 -0.0409
19292TIP3    H279292   6.338   2.533  16.429  0.2522 -0.5141 -1.3299
19293TIP3   OH279293   1.681   1.666   0.985 -0.3476 -0.1755 -0.1360
19293TIP3    H179294   1.722   1.629   1.064 -0.4318 -0.5693 -0.2722
19293TIP3    H279295   1.751   1.715   0.943  0.4478 -2.0705 -1.1604
19294TIP3   OH279296   1.371   4.422  13.262 -0.2071  0.3599  0.0617
19294TIP3    H179297   1.281   4.391  13.266 -0.5699  1.4405  0.3579
19294TIP3    H279298   1.388   4.436  13.169  0.0540 -0.9369 -0.1112
19295TIP3   OH279299   0.332   6.625   2.358  0.1131  0.4454 -0.4955
19295TIP3    H179300   0.326   6.532   2.335 -0.3160  0.8189 -2.0433
19295TIP3    H279301   0.388   6.627   2.436 -1.2867 -1.2475  0.6412
19296TIP3   OH279302   6.426   2.781   6.207 -0.0819 -0.2905  0.2205
19296TIP3    H179303   6.473   2.842   6.264  0.8002  0.6253 -1.4100
19296TIP3    H279304   6.359   2.835   6.165 -0.8869 -1.0123  0.5556
19297TIP3   OH279305   2.136   4.881  16.984  0.6428 -0.1740 -0.1444
19297TIP3    H179306   2.046   4.910  16.999  0.0518 -2.6289  1.6456
19297TIP3    H279307   2.190   4.947  17.027 -0.1187  2.1227 -2.4793
19298TIP3   OH279308   6.009   5.515   6.355  0.2151 -0.1207 -0.1470
19298TIP3    H179309   6.093   5.472   6.339  0.1197  0.2047 -1.6686
19298TIP3    H279310   5.946   5.464   6.305 -0.1696  0.7705 -0.5917
19299TIP3   OH279311   6.709   2.585   2.276 -0.1358  0.1116 -0.1403
19299TIP3    H179312   6.659   2.507   2.300  0.9963 -0.2678  1.1198
19299TIP3    H279313   6.675   2.654   2.334 -2.2511  1.0407 -2.3276
19300TIP3   OH279314   5.292   4.146  10.350  0.2855  0.4017  0.3982
19300TIP3    H179315   5.277   4.228  10.302  0.4674  0.7192  0.8730
19300TIP3    H279316   5.206   4.104  10.354  0.4136  0.0055 -0.8586
19301TIP3   OH279317   0.505   0.148  16.431 -0.1569 -0.0653 -0.3320
19301TIP3    H179318   0.411   0.166  16.429 -0.2728 -0.7204 -0.7019
19301TIP3    H279319   0.544   0.229  16.466 -0.8215  0.3281 -0.4995
19302TIP3   OH279320   5.183   1.708  10.719 -0.6325  0.7620 -0.0984
19302TIP3    H179321   5.185   1.625  10.671 -0.2583  0.7109  0.0068
19302TIP3    H279322   5.133   1.688  10.799  0.0568  0.4554  0.2653
19303TIP3   OH279323   3.012   5.517   0.568  0.1509 -0.6609 -0.1017
19303TIP3    H179324   2.983   5.596   0.614  0.3692 -1.4389  1.4184
19303TIP3    H279325   3.107   5.524   0.566  0.3781 -2.0787  2.3740
19304TIP3   OH279326   6.308   3.454  15.246 -0.4433 -0.3895 -0.6709
19304TIP3    H179327   6.383   3.512  15.236 -1.4983  0.6626 -3.2726
19304TIP3    H279328   6.291   3.454  15.340  1.3010  1.2817 -0.2853
19305TIP3   OH279329   0.767   6.319   2.401 -0.5106 -0.3681  0.1084
19305TIP3    H179330   0.751   6.403   2.443  3.6469  0.4448  0.4233
19305TIP3    H279331   0.742   6.254   2.468  0.7144  0.7731  1.7345
19306TIP3   OH279332   3.494   3.535  13.809 -0.0607  0.2706  0.1715
19306TIP3    H179333   3.459   3.500  13.890 -1.0632 -0.1464 -0.4177
19306TIP3    H279334   3.551   3.466  13.775  0.8306  0.6833  0.8034
19307TIP3   OH279335   4.251   2.753  11.438  0.2239 -0.1240 -0.2924
19307TIP3    H179336   4.258   2.803  11.357  1.5714 -0.3327 -0.3252
19307TIP3    H279337   4.247   2.662  11.410 -0.2774 -0.1463 -0.1561
19308TIP3   OH279338   4.282   6.004   5.693  0.1399  0.6840  0.1446
19308TIP3    H179339   4.368   6.033   5.663  0.6290 -0.8618 -0.0194
19308TIP3    H279340   4.295   5.913   5.721 -1.1626  0.8305  1.3323
19309TIP3   OH279341   5.921   5.791  16.447  0.4251  0.1117  0.3118
19309TIP3    H179342   6.013   5.778  16.426  0.6881  2.5617 -0.4006
19309TIP3    H279343   5.919   5.800  16.543  1.0770  0.9626  0.2524
19310TIP3   OH279344   5.333   2.768   4.385  0.7071 -0.4843 -0.3247
19310TIP3    H179345   5.390   2.845   4.391 -0.2292  0.1694  0.5609
19310TIP3    H279346   5.382   2.699   4.430  0.0202  0.5859  2.2252
19311TIP3   OH279347   2.647   0.553   2.094  0.7088 -0.4038 -0.0739
19311TIP3    H179348   2.704   0.620   2.133 -0.4757  1.0139 -0.6975
19311TIP3    H279349   2.563   0.564   2.139  0.4847 -1.4430 -0.2264
19312TIP3   OH279350   6.650   3.279  16.298  0.5744 -0.3047 -0.2532
19312TIP3    H179351   6.719   3.215  16.279  0.6021 -0.4842  0.4204
19312TIP3    H279352   6.573   3.226  16.316  0.3805 -0.1182 -0.5317
19313TIP3   OH279353   1.019   5.456  10.759 -0.3932  0.4534 -0.0504
19313TIP3    H179354   1.082   5.390  10.790 -1.3036  0.6542  2.5058
19313TIP3    H279355   1.064   5.540  10.773 -0.0654  0.4796 -1.2124
19314TIP3   OH279356   3.607   6.094  13.235  0.3149 -0.1282 -0.1197
19314TIP3    H179357   3.641   6.071  13.148  0.5344  0.6933 -0.2640
19314TIP3    H279358   3.681   6.137  13.278  0.1051 -0.2465  0.3622
19315TIP3   OH279359   3.090   0.904  14.668 -0.3268 -0.0179 -0.6002
19315TIP3    H179360   3.000   0.871  14.669 -0.6962  0.7931  2.1261
19315TIP3    H279361   3.081   0.998  14.681  0.9161  0.3110 -1.8578
19316TIP3   OH279362   5.856   1.708  15.834 -0.7759  0.1192 -0.4357
19316TIP3    H179363   5.919   1.780  15.828 -0.7085 -0.0531 -2.1386
19316TIP3    H279364   5.909   1.634  15.864 -0.4525  0.3126 -0.5188
19317TIP3   OH279365   0.759   0.608  13.820 -0.0106  0.2618  0.5163
19317TIP3    H179366   0.817   0.534  13.837  0.2328 -0.1161 -1.6436
19317TIP3    H279367   0.694   0.574  13.759  0.0800  1.7874 -0.4812
19318TIP3   OH279368   6.259   3.946  12.410 -0.2904  0.1195 -0.6260
19318TIP3    H179369   6.355   3.953  12.404 -0.3716  1.4976 -0.6307
19318TIP3    H279370   6.234   3.898  12.330  0.4048 -0.5388 -0.4675
19319TIP3   OH279371   3.658   5.585  13.652 -0.3456  1.0308 -0.6734
19319TIP3    H179372   3.713   5.660  13.634  0.0649  0.9973  0.3832
19319TIP3    H279373   3.720   5.514  13.671 -0.7191  1.0775  0.8614
19320TIP3   OH279374   1.938   1.181  16.730 -0.2985  0.0706 -0.0970
19320TIP3    H179375   1.899   1.167  16.643  0.7003  0.8064 -0.6788
19320TIP3    H279376   1.866   1.217  16.783 -0.3157  2.0068 -1.3268
19321TIP3   OH279377   2.077   3.673   2.210  0.7861 -0.0227 -0.3317
19321TIP3    H179378   2.140   3.639   2.273  0.1368  0.7516  0.7688
19321TIP3    H279379   2.006   3.608   2.210  0.4577  0.3338  0.2774
19322TIP3   OH279380   4.623   4.532   2.271  0.4885 -0.0052  0.0154
19322TIP3    H179381   4.575   4.614   2.286 -0.5150 -0.3402 -1.1464
19322TIP3    H279382   4.641   4.498   2.359 -2.4724 -0.4407  0.5540
19323TIP3   OH279383   1.501   4.639  12.806 -0.3335 -0.4408 -0.2337
19323TIP3    H179384   1.542   4.618  12.722 -0.8612 -3.1223  0.0978
19323TIP3    H279385   1.558   4.706  12.844  0.6429 -0.1276 -2.1336
19324TIP3   OH279386   3.438   1.401  10.876 -0.1911  0.0911 -0.6803
19324TIP3    H179387   3.480   1.474  10.830  2.3877 -1.7831 -1.4909
19324TIP3    H279388   3.470   1.407  10.966 -0.2362  0.1242 -0.6657
19325TIP3   OH279389   6.100   1.907  13.444  0.2273 -0.4420  0.2418
19325TIP3    H179390   6.030   1.841  13.440 -0.3436  0.1556  0.0355
19325TIP3    H279391   6.181   1.857  13.435 -0.1455 -1.2059  0.9382
19326TIP3   OH279392   1.832   2.967  14.937  0.4712 -0.6408 -0.7629
19326TIP3    H179393   1.788   3.051  14.948  3.1462  0.7972 -0.2852
19326TIP3    H279394   1.877   2.952  15.020 -0.0506 -2.6587 -0.7863
19327TIP3   OH279395   1.928   3.820  16.835  0.4196  0.3992 -0.0349
19327TIP3    H179396   1.956   3.753  16.897  0.8458 -0.3810 -1.0458
19327TIP3    H279397   1.901   3.894  16.890 -1.7129 -1.1807  1.1913
19328TIP3   OH279398   0.428   0.148   4.619 -0.0810  0.3772 -0.1919
19328TIP3    H179399   0.338   0.116   4.623  0.3694 -1.1728 -1.0702
19328TIP3    H279400   0.473   0.102   4.690 -0.1107  1.7258  0.7374
19329TIP3   OH279401   4.387   2.285  11.541 -0.0145 -0.9334  0.1244
19329TIP3    H179402   4.345   2.260  11.624 -0.1918  0.2218  0.4014
19329TIP3    H279403   4.348   2.370  11.519  1.8973  0.0433  0.2280
19330TIP3   OH279404   2.920   4.121   0.515 -0.6039  0.2521 -0.3353
19330TIP3    H179405   2.979   4.046   0.520 -2.5409 -1.2867  0.7780
19330TIP3    H279406   2.912   4.139   0.421  1.4773  0.4579 -0.5218
19331TIP3   OH279407   6.375   6.069   4.406  0.2918 -0.3010 -0.0593
19331TIP3    H179408   6.376   6.076   4.501  4.4009 -2.0173  0.2364
19331TIP3    H279409   6.399   6.156   4.375  0.6156 -0.1550  0.5866
19332TIP3   OH279410   6.521   4.970  13.563  0.1546 -0.1722 -0.3718
19332TIP3    H179411   6.460   4.917  13.512 -0.5510  0.0906  0.1905
19332TIP3    H279412   6.498   4.953  13.654 -1.3892  2.5540 -0.1563
19333TIP3   OH279413   4.119   3.794  12.477  0.0347 -0.4885  0.2320
19333TIP3    H179414   4.097   3.882  12.508  0.8042 -0.6219  1.1848
19333TIP3    H279415   4.061   3.736  12.527 -2.3116 -0.4272 -2.1745
19334TIP3   OH279416   4.919   5.292   3.442 -0.6716 -0.3100 -0.0175
19334TIP3    H179417   4.892   5.351   3.373  0.0735 -1.2338 -1.1378
19334TIP3    H279418   4.841   5.240   3.462 -0.8884 -0.0346 -0.1478
19335TIP3   OH279419   2.046   4.736   4.800 -0.2213  0.1790 -0.3587
19335TIP3    H179420   2.075   4.773   4.883  0.8374 -0.7917 -0.2576
19335TIP3    H279421   1.954   4.715   4.813 -0.0185 -0.1437  0.6484
19336TIP3   OH279422   2.966   2.682  16.812  0.4057  0.2700  0.2159
19336TIP3    H179423   2.986   2.731  16.732 -1.7176  0.6821 -0.1112
19336TIP3    H279424   2.940   2.595  16.781 -0.0889  0.3254  0.4665
19337TIP3   OH279425   1.454   4.116  13.709 -0.2549 -0.7014  0.5284
19337TIP3    H179426   1.421   4.166  13.635  0.4124 -1.2509 -0.1628
19337TIP3    H279427   1.547   4.139  13.713 -0.2274 -0.8996  1.0077
19338TIP3   OH279428   3.958   1.275   5.769  0.1825 -0.4058 -0.4979
19338TIP3    H179429   4.026   1.211   5.747 -0.0199 -0.9632  0.4224
19338TIP3    H279430   3.973   1.294   5.862 -1.4414 -1.1911 -0.0401
19339TIP3   OH279431   3.375   1.653   4.110 -0.6898  0.3450 -0.1286
19339TIP3    H179432   3.464   1.635   4.138 -0.8488  0.3818  0.4059
19339TIP3    H279433   3.349   1.731   4.159 -0.1307  1.9078 -2.1655
19340TIP3   OH279434   5.311   5.451   0.942 -0.0536 -0.6324  0.7690
19340TIP3    H179435   5.248   5.513   0.907  2.1643  2.3769  1.6912
19340TIP3    H279436   5.268   5.414   1.020 -0.9817  0.7085  0.9167
19341TIP3   OH279437   0.738   6.106   1.872 -0.0441 -0.3283 -0.2405
19341TIP3    H179438   0.669   6.125   1.808 -0.9704  0.6587  0.9997
19341TIP3    H279439   0.697   6.046   1.934  0.0651  0.5022  0.6748
19342TIP3   OH279440   5.583   0.999  15.138  0.3744 -0.0591 -0.0823
19342TIP3    H179441   5.541   1.054  15.204  0.8290 -0.0135  0.1711
19342TIP3    H279442   5.628   1.061  15.080 -0.3387 -0.0731 -0.6633
19343TIP3   OH279443   3.019   6.071  10.929  0.0713  0.0483 -0.4105
19343TIP3    H179444   3.113   6.089  10.924 -0.2086  1.6997 -0.4933
19343TIP3    H279445   2.996   6.039  10.841  0.7937 -1.8060  0.0477
19344TIP3   OH279446   6.073   2.299   2.596 -0.1034 -0.1542  0.9207
19344TIP3    H179447   6.006   2.359   2.562  0.7361 -0.0065 -0.5089
19344TIP3    H279448   6.024   2.218   2.615 -0.4518 -0.7072 -1.8796
19345TIP3   OH279449   3.739   3.553  12.364 -0.3565  0.0073  0.1428
19345TIP3    H179450   3.790   3.472  12.356 -2.0046 -1.0068 -0.6048
19345TIP3    H279451   3.775   3.611  12.297 -0.1199 -0.6535 -0.3162
19346TIP3   OH279452   0.660   5.228   5.912  0.0848  0.4639  0.2460
19346TIP3    H179453   0.754   5.237   5.900 -0.0807  0.3562 -1.3362
19346TIP3    H279454   0.622   5.259   5.830 -1.1896 -0.6120  0.3923
19347TIP3   OH279455   2.025   0.039  15.480 -0.0321 -0.5067  0.1646
19347TIP3    H179456   2.097   0.094  15.450  0.1918 -0.5330  0.6472
19347TIP3    H279457   1.978   0.093  15.544 -1.2134 -0.0049 -1.0732
19348TIP3   OH279458   3.975   3.921   1.248 -0.2762  0.6490  0.5115
19348TIP3    H179459   3.899   3.973   1.275 -0.2413  0.9049  0.1347
19348TIP3    H279460   4.042   3.986   1.227  0.3160  0.4093  1.5973
19349TIP3   OH279461   4.183   4.011   4.135  0.6668  0.2443 -0.3284
19349TIP3    H179462   4.184   3.923   4.173  1.7594  0.2751 -0.2588
19349TIP3    H279463   4.093   4.023   4.104  0.1440 -0.3560  0.9069
19350TIP3   OH279464   2.320   0.826  12.806 -0.8872  0.3082  0.1184
19350TIP3    H179465   2.310   0.844  12.713 -2.2652  1.8815  0.5319
19350TIP3    H279466   2.310   0.731  12.813  0.8156 -0.0392 -1.4913
19351TIP3   OH279467   4.897   5.103  11.238  0.0285  0.3554 -0.2314
19351TIP3    H179468   4.874   5.016  11.271  0.5754  0.4556  0.4511
19351TIP3    H279469   4.879   5.161  11.312  2.3325  0.4532  0.3219
19352TIP3   OH279470   0.286   5.288  15.764 -0.3714  1.0373  0.1191
19352TIP3    H179471   0.231   5.318  15.837  0.5944 -1.0985  1.8587
19352TIP3    H279472   0.371   5.328  15.781 -0.1122  0.4365  0.2840
19353TIP3   OH279473   3.402   1.123   2.310 -0.2510 -0.4631 -0.3009
19353TIP3    H179474   3.396   1.194   2.247 -1.4617  0.3705  0.6968
19353TIP3    H279475   3.472   1.067   2.277 -1.1708 -0.3529 -2.6488
19354TIP3   OH279476   6.418   1.944   6.737 -0.2723  0.2468  0.4437
19354TIP3    H179477   6.419   1.988   6.652 -1.4833  0.2569  0.4084
19354TIP3    H279478   6.365   2.001   6.793 -1.3919 -0.8640  0.5531
19355TIP3   OH279479   6.627   1.715   2.529 -0.2259  0.6019 -0.2635
19355TIP3    H179480   6.560   1.691   2.592  0.5097  0.6892  0.5699
19355TIP3    H279481   6.697   1.754   2.581  0.5837  0.2931 -1.0762
19356TIP3   OH279482   6.522   5.287   5.238 -0.1880  0.0584  0.1880
19356TIP3    H179483   6.502   5.194   5.240 -2.1720  0.3392 -1.9683
19356TIP3    H279484   6.595   5.294   5.176 -0.3437 -0.0483 -0.0118
19357TIP3   OH279485   3.785   5.805   0.061  0.1749 -0.5905  0.3980
19357TIP3    H179486   3.814   5.855  -0.015 -0.0070  0.6473  1.1130
19357TIP3    H279487   3.765   5.718   0.027 -0.6110  0.1483 -1.0970
19358TIP3   OH279488   3.747   2.042   1.562  0.2361  0.0948 -0.0955
19358TIP3    H179489   3.681   1.993   1.611  0.1540 -0.4830 -0.7769
19358TIP3    H279490   3.698   2.116   1.524 -0.3782 -1.1592 -1.8645
19359TIP3   OH279491   5.118   2.279  13.452  0.2585  0.2439  0.5201
19359TIP3    H179492   5.038   2.332  13.458 -0.7624 -1.2582  1.0337
19359TIP3    H279493   5.186   2.340  13.425 -1.5480  1.1185 -2.4555
19360TIP3   OH279494   4.202   3.537  15.003  0.4480 -0.2240 -0.2278
19360TIP3    H179495   4.116   3.517  15.040 -0.0837  0.9267 -0.8245
19360TIP3    H279496   4.264   3.506  15.070 -0.3887 -1.5561 -0.0278
19361TIP3   OH279497   5.710   1.038  15.687 -0.2502 -0.0279  0.4374
19361TIP3    H179498   5.660   0.977  15.632 -2.9961 -0.1771  2.8780
19361TIP3    H279499   5.698   1.123  15.646  1.1614 -0.6269 -1.3631
19362TIP3   OH279500   1.042   4.120  13.576 -0.6224 -0.2262 -0.1106
19362TIP3    H179501   1.089   4.036  13.569 -0.7352 -0.2895 -0.1221
19362TIP3    H279502   1.052   4.145  13.668  1.9596  1.2520 -0.7252
19363TIP3   OH279503   5.617   4.467  11.487 -0.1239  0.4450  0.8730
19363TIP3    H179504   5.569   4.469  11.405 -2.0268  0.9637  1.9371
19363TIP3    H279505   5.669   4.387  11.483 -1.3954 -0.3644 -0.1853
19364TIP3   OH279506   1.790   0.611   3.861 -0.1369  0.5277 -0.0886
19364TIP3    H179507   1.764   0.624   3.952 -1.7996 -0.1732 -0.4310
19364TIP3    H279508   1.841   0.531   3.861 -0.5961  0.2315  0.1550
19365TIP3   OH279509   4.635   5.672  12.159 -0.2810 -0.3385  0.6388
19365TIP3    H179510   4.555   5.686  12.209 -0.1802  0.3381  0.6214
19365TIP3    H279511   4.667   5.586  12.187 -0.9648 -0.5770  0.7038
19366TIP3   OH279512   4.027   0.281  11.776  0.2317  0.3229  0.0618
19366TIP3    H179513   4.107   0.229  11.761  0.3952  0.7820 -0.7218
19366TIP3    H279514   3.957   0.216  11.782  0.3171  0.0160 -1.7132
19367TIP3   OH279515   1.687   5.586  13.324 -0.3260 -0.4203  0.3538
19367TIP3    H179516   1.753   5.605  13.257  0.2811 -0.1041  1.0356
19367TIP3    H279517   1.616   5.544  13.276 -0.2640  0.5563 -0.6423
19368TIP3   OH279518   3.803   3.973  13.524  0.2164  0.0974  0.6218
19368TIP3    H179519   3.809   3.976  13.619  2.8985 -2.2873  0.6886
19368TIP3    H279520   3.753   3.893  13.506 -2.8628  2.0248 -0.1097
19369TIP3   OH279521   4.463   1.615  11.499  0.0633  0.0990  0.2096
19369TIP3    H179522   4.399   1.626  11.569  2.7737  0.5395  2.8038
19369TIP3    H279523   4.491   1.704  11.477  1.5775 -0.1762  0.9347
19370TIP3   OH279524   1.652   1.541  11.146  0.2814 -0.3382 -0.0884
19370TIP3    H179525   1.653   1.528  11.051 -0.9265 -0.4417 -0.1107
19370TIP3    H279526   1.738   1.512  11.175  0.4978 -0.7730 -1.1030
19371TIP3   OH279527   0.752   0.839  13.642 -0.0718  0.1706  0.0068
19371TIP3    H179528   0.754   0.772  13.711  1.4498 -0.0979 -0.2735
19371TIP3    H279529   0.687   0.806  13.580  1.2080 -1.4989 -0.5306
19372TIP3   OH279530   3.036   5.219   0.354  0.2700 -0.7141 -0.3736
19372TIP3    H179531   3.042   5.314   0.343  0.3575 -0.7584 -0.7122
19372TIP3    H279532   3.127   5.189   0.353  0.2329 -0.8254 -0.4803
19373TIP3   OH279533   6.220   0.313   2.715  0.3464  0.2917 -0.5012
19373TIP3    H179534   6.284   0.334   2.784  0.7934  0.3631 -0.9300
19373TIP3    H279535   6.231   0.384   2.651  0.1267  0.0750 -0.7777
19374TIP3   OH279536   3.437   2.164  17.342  0.2825 -0.0788 -0.7024
19374TIP3    H179537   3.370   2.195  17.404  0.9491  0.1663 -0.0919
19374TIP3    H279538   3.419   2.214  17.262 -0.4800 -0.2729 -0.6667
19375TIP3   OH279539   4.960   6.028  12.340 -0.8051 -0.6390  0.2248
19375TIP3    H179540   4.993   5.973  12.268  1.1953 -1.0180  1.3577
19375TIP3    H279541   4.973   5.975  12.419 -2.1117  0.1256  1.0020
19376TIP3   OH279542   5.443   5.064  15.286  0.3274  0.0203  0.2143
19376TIP3    H179543   5.457   5.032  15.375  1.1181 -1.4694 -0.4148
19376TIP3    H279544   5.473   5.155  15.288 -1.1108  0.5188  1.8307
19377TIP3   OH279545   3.276   3.513  16.203  0.0525 -0.1269  0.2122
19377TIP3    H179546   3.353   3.535  16.255  1.8903 -0.5365 -2.1868
19377TIP3    H279547   3.277   3.575  16.131 -4.4675  2.8600  2.2270
19378TIP3   OH279548   4.919   3.851   3.154  0.0430 -0.2103  0.0256
19378TIP3    H179549   4.914   3.862   3.059  2.4560  1.9303  0.0448
19378TIP3    H279550   4.956   3.764   3.167 -3.0476 -1.7969 -0.8022
19379TIP3   OH279551   4.142   1.879   1.240 -0.3951 -0.2506 -0.0592
19379TIP3    H179552   4.194   1.823   1.297  0.3611  2.6806  2.3833
19379TIP3    H279553   4.056   1.882   1.281 -0.6030 -0.0963 -0.5026
19380TIP3   OH279554   6.463   2.835  14.979 -1.1696  0.1783  0.0721
19380TIP3    H179555   6.446   2.801  14.892  0.5914  1.3454 -0.7836
19380TIP3    H279556   6.469   2.930  14.967  3.8942  0.1486  0.4137
19381TIP3   OH279557   0.841   1.208  17.176 -0.3969  0.0581 -0.0750
19381TIP3    H179558   0.816   1.301  17.171  0.1230  0.1280 -2.2084
19381TIP3    H279559   0.757   1.161  17.174 -0.6212  0.4486 -0.1137
19382TIP3   OH279560   3.764   2.178   0.747 -0.5605 -0.0090  0.2869
19382TIP3    H179561   3.745   2.208   0.836  0.1954 -0.4561  0.6095
19382TIP3    H279562   3.768   2.083   0.755  0.2293 -0.0124 -0.0720
19383TIP3   OH279563   6.563   4.007   0.034 -0.1334 -0.3030  0.3571
19383TIP3    H179564   6.627   3.953   0.080 -0.1808 -0.8245 -0.1643
19383TIP3    H279565   6.593   4.005  -0.057  0.0314  0.8082  0.3814
19384TIP3   OH279566   3.347   4.395  16.943  0.0899  0.2451  0.2089
19384TIP3    H179567   3.410   4.420  17.010 -0.8579  1.4829  0.6865
19384TIP3    H279568   3.277   4.350  16.990 -0.3282  0.6486 -0.0141
19385TIP3   OH279569   4.388   5.564   3.886 -0.0036 -0.8872  0.5456
19385TIP3    H179570   4.451   5.540   3.818 -0.7657  0.2768 -0.6411
19385TIP3    H279571   4.308   5.518   3.861 -0.0564 -1.1089  1.1276
19386TIP3   OH279572   1.459   0.535   0.098  0.3830  0.0942  0.1367
19386TIP3    H179573   1.539   0.484   0.109 -0.0603 -0.9675 -1.2482
19386TIP3    H279574   1.404   0.509   0.172  0.4627 -0.9092 -0.1311
19387TIP3   OH279575   1.936   5.585  14.834 -0.4166  0.4870  0.7454
19387TIP3    H179576   2.013   5.641  14.832 -0.5648  0.6771  0.3236
19387TIP3    H279577   1.957   5.512  14.777 -0.6341  0.6537  0.4491
19388TIP3   OH279578   1.450   6.381  16.812  0.5866  0.0130  0.1017
19388TIP3    H179579   1.510   6.371  16.886  1.1779  0.0880 -0.3609
19388TIP3    H279580   1.464   6.470  16.782 -0.0185  0.1464  0.2051
19389TIP3   OH279581   6.595   1.828  15.192  0.0720 -0.4780 -0.3708
19389TIP3    H179582   6.515   1.817  15.141 -0.7523 -1.3773  1.0512
19389TIP3    H279583   6.631   1.912  15.163 -2.1450  0.6505 -0.0675
19390TIP3   OH279584   5.712   4.620  11.212  0.0946 -0.3085  0.2057
19390TIP3    H179585   5.766   4.691  11.177 -1.7546  0.5682 -1.0251
19390TIP3    H279586   5.744   4.541  11.168  1.6244 -0.1485  0.9677
19391TIP3   OH279587   6.628   2.979   3.803  0.4439 -0.0812 -0.0080
19391TIP3    H179588   6.611   2.896   3.848 -2.3920  1.0253  1.1912
19391TIP3    H279589   6.714   3.006   3.834  0.6697 -1.7361  0.9175
19392TIP3   OH279590   2.367   5.034  15.964 -0.5033  0.4500  0.6164
19392TIP3    H179591   2.301   4.973  15.931  0.3947 -0.6434  0.7978
19392TIP3    H279592   2.443   5.021  15.908 -0.6513  2.2390 -0.0688
19393TIP3   OH279593   1.617   4.406   4.754 -0.0792  0.0695 -0.0326
19393TIP3    H179594   1.546   4.410   4.817 -0.6124 -1.7747 -0.4519
19393TIP3    H279595   1.574   4.402   4.669  0.5700  0.3948 -0.3865
19394TIP3   OH279596   5.122   0.130  16.070 -0.1161 -0.0652  0.1927
19394TIP3    H179597   5.142   0.223  16.082 -1.6000  0.2994 -0.0103
19394TIP3    H279598   5.109   0.097  16.159  2.1313 -0.5421  0.4235
19395TIP3   OH279599   0.548   0.748  12.716 -0.1171  0.1263  0.0406
19395TIP3    H179600   0.545   0.843  12.703 -2.1503 -0.0953 -1.7486
19395TIP3    H279601   0.596   0.715  12.640  0.4788 -0.3160  0.5958
19396TIP3   OH279602   2.991   0.601  13.047  0.7554 -0.0872 -0.1866
19396TIP3    H179603   2.910   0.626  13.002  1.9146  1.9051 -1.3469
19396TIP3    H279604   2.967   0.595  13.139 -0.9909 -0.9909 -0.6511
19397TIP3   OH279605   2.983   5.409   3.182  0.3944 -0.4541 -0.5770
19397TIP3    H179606   2.900   5.448   3.153  0.5852 -0.0434 -0.5835
19397TIP3    H279607   2.960   5.355   3.257  0.2262  0.2366 -0.1257
19398TIP3   OH279608   0.468   2.299   0.386  0.5800 -0.3564 -0.0050
19398TIP3    H179609   0.393   2.260   0.431  1.8389 -1.6406  1.0879
19398TIP3    H279610   0.476   2.386   0.425 -1.2990  0.4697 -1.3226
19399TIP3   OH279611   4.125   1.474  12.310  0.5917 -0.0157 -0.3625
19399TIP3    H179612   4.047   1.521  12.337  0.9143  2.1002 -2.7080
19399TIP3    H279613   4.190   1.494  12.377 -0.1060  0.4187  0.1967
19400TIP3   OH279614   3.434   1.045  13.161 -0.7647 -0.6597 -0.1109
19400TIP3    H179615   3.418   1.111  13.093 -0.3612 -1.1722 -0.7216
19400TIP3    H279616   3.475   1.093  13.232 -1.1468 -0.1172 -0.2526
19401TIP3   OH279617   5.955   1.325   5.486  0.0236 -0.7039  0.1949
19401TIP3    H179618   6.042   1.301   5.453  0.0777  0.1441 -0.3130
19401TIP3    H279619   5.937   1.261   5.555  3.0573  1.7670  3.5899
19402TIP3   OH279620   0.728   4.142  15.686  0.3326  0.1520 -0.0209
19402TIP3    H179621   0.714   4.078  15.616  0.7557 -0.1775  0.1841
19402TIP3    H279622   0.683   4.104  15.762 -0.3561  0.6383 -0.1744
19403TIP3   OH279623   5.345   2.192   4.576  0.6474 -1.3340  0.2976
19403TIP3    H179624   5.263   2.237   4.561  2.2709  2.2011  1.0385
19403TIP3    H279625   5.341   2.115   4.520 -2.5105 -0.4861 -0.8135
19404TIP3   OH279626   4.630   5.243   3.358 -0.1556 -0.2356  0.2761
19404TIP3    H179627   4.638   5.332   3.325 -0.3733  0.3011  1.5875
19404TIP3    H279628   4.566   5.201   3.300 -2.3039  1.3651  1.3412
19405TIP3   OH279629   4.736   5.565   5.970  0.7342 -0.1018  0.0242
19405TIP3    H179630   4.805   5.545   5.907  0.4759 -0.0867 -0.2646
19405TIP3    H279631   4.781   5.567   6.054  0.8936 -1.2466 -0.0079
19406TIP3   OH279632   2.547   0.457   1.283  0.3135  0.5648 -0.0622
19406TIP3    H179633   2.606   0.389   1.252  0.0357  0.1157  0.3811
19406TIP3    H279634   2.604   0.518   1.330  0.5644  0.6515 -0.4721
19407TIP3   OH279635   5.806   6.041   0.361  0.3785  0.6144 -0.3104
19407TIP3    H179636   5.867   6.064   0.431  1.5946 -0.3742 -0.9921
19407TIP3    H279637   5.801   6.119   0.307 -1.4026  1.7719  1.3717
19408TIP3   OH279638   0.614   4.485  13.298 -0.0986 -0.2662  0.2057
19408TIP3    H179639   0.542   4.507  13.238 -0.6580 -0.8045  0.6708
19408TIP3    H279640   0.643   4.569  13.332 -1.1586 -0.1074  0.7540
19409TIP3   OH279641   4.235   3.212  16.954 -0.3828  0.7988  0.5076
19409TIP3    H179642   4.321   3.194  16.992 -0.8098  0.2301  1.2228
19409TIP3    H279643   4.228   3.152  16.879  0.2706  1.6020 -0.2220
19410TIP3   OH279644   0.244   4.050   1.263 -0.4317 -0.6472  0.3998
19410TIP3    H179645   0.240   4.104   1.184  2.3334  0.4620  0.9109
19410TIP3    H279646   0.328   4.006   1.257  0.3399  0.2678  3.1813
19411TIP3   OH279647   4.079   5.214  12.288 -0.1692  0.1597  0.2935
19411TIP3    H179648   4.143   5.144  12.301  2.3740  2.3077  0.3449
19411TIP3    H279649   4.002   5.185  12.336  0.7791 -2.5368  0.3682
19412TIP3   OH279650   5.405   1.776  15.102 -0.1562 -0.1965  0.5006
19412TIP3    H179651   5.332   1.775  15.041  0.3223  2.4990 -0.2489
19412TIP3    H279652   5.375   1.830  15.174  1.5383  2.3254 -0.5612
19413TIP3   OH279653   1.805   1.012   4.210  0.4225 -0.3005 -0.2819
19413TIP3    H179654   1.861   1.087   4.190  0.5522 -0.4922 -0.6450
19413TIP3    H279655   1.786   1.020   4.303 -0.4451  0.7814 -0.5285
19414TIP3   OH279656   6.625   6.428   1.229  0.3882  0.8049  0.0567
19414TIP3    H179657   6.644   6.443   1.137 -0.6365  0.8164 -0.1565
19414TIP3    H279658   6.586   6.341   1.233  3.3316 -0.6087  0.8994
19415TIP3   OH279659   5.220   3.181  13.066 -0.7021 -0.2072 -0.1838
19415TIP3    H179660   5.286   3.142  13.007 -0.3463 -0.1493  0.1737
19415TIP3    H279661   5.137   3.160  13.025 -0.4826 -0.7531 -0.3605
19416TIP3   OH279662   0.114   5.610   1.442  0.0442  0.0245  0.1682
19416TIP3    H179663   0.085   5.672   1.510 -3.5312 -0.5482 -0.6197
19416TIP3    H279664   0.209   5.614   1.446  0.0244  3.8108  1.7281
19417TIP3   OH279665   3.206   3.223   2.895  0.0260 -0.7036  0.1072
19417TIP3    H179666   3.291   3.229   2.853  0.8824 -1.7171  1.6082
19417TIP3    H279667   3.143   3.218   2.823  1.2929 -0.7281 -1.0168
19418TIP3   OH279668   0.001   6.666   0.629 -0.0078  0.1729  0.1795
19418TIP3    H179669  -0.074   6.723   0.644 -1.2870 -1.9882  2.8465
19418TIP3    H279670  -0.028   6.605   0.561 -1.2434 -1.3874  2.0039
19419TIP3   OH279671   6.539   3.160   6.383 -0.3058 -0.3941  0.3995
19419TIP3    H179672   6.622   3.131   6.422  0.1235 -0.1626 -0.3381
19419TIP3    H279673   6.511   3.232   6.439  0.0369 -0.4134  0.6006
19420TIP3   OH279674   6.344   4.704   5.054 -0.8837 -0.2177  0.2970
19420TIP3    H179675   6.315   4.795   5.056 -0.8273 -0.1858 -0.3119
19420TIP3    H279676   6.342   4.676   5.146  2.3772  1.3926  0.9902
19421TIP3   OH279677   0.683   0.538   2.139 -0.1373 -0.2669  0.0118
19421TIP3    H179678   0.721   0.626   2.147 -1.8155  0.6355 -1.2639
19421TIP3    H279679   0.695   0.515   2.047 -2.3739 -0.0468 -0.3770
19422TIP3   OH279680   2.574   1.729  13.002 -0.2342 -0.3133  0.0889
19422TIP3    H179681   2.536   1.721  12.914  0.0776 -3.2508  0.1391
19422TIP3    H279682   2.551   1.818  13.029 -1.8361  0.0977 -2.2694
19423TIP3   OH279683   4.686   3.904   3.274 -0.4583 -0.4058 -0.3784
19423TIP3    H179684   4.735   3.848   3.214 -0.9035 -0.1456 -0.9943
19423TIP3    H279685   4.745   3.977   3.293  1.3303 -2.3968  2.7355
19424TIP3   OH279686   5.718   4.742  16.437 -0.8937  0.4615  0.4999
19424TIP3    H179687   5.644   4.785  16.480 -1.7617 -0.8269  0.3476
19424TIP3    H279688   5.750   4.679  16.501  0.7612  1.6870  0.9542
19425TIP3   OH279689   2.034   4.025   2.460 -0.0411 -0.3801  0.3616
19425TIP3    H179690   2.113   4.024   2.514 -0.9341 -1.4406  1.7333
19425TIP3    H279691   1.970   4.075   2.511 -0.0736  1.1337 -1.0758
19426TIP3   OH279692   3.854   5.000  16.180  0.3598  0.1310 -0.2315
19426TIP3    H179693   3.886   4.910  16.176  1.1380  0.3651  0.4415
19426TIP3    H279694   3.818   5.009  16.268  2.4593  1.1459  0.6146
19427TIP3   OH279695   1.845   1.278  11.825  0.2293 -0.9624 -0.5464
19427TIP3    H179696   1.926   1.234  11.798 -1.2031 -2.6518 -2.3450
19427TIP3    H279697   1.799   1.297  11.743 -0.7658  0.9296  0.3765
19428TIP3   OH279698   5.590   5.350   0.667 -0.2807  0.0014 -0.6294
19428TIP3    H179699   5.664   5.356   0.607 -0.6843  0.6799 -1.0790
19428TIP3    H279700   5.524   5.301   0.619 -0.0178 -0.8836 -0.1077
19429TIP3   OH279701   2.979   1.115  15.875 -0.1889 -0.2493  0.7219
19429TIP3    H179702   2.885   1.102  15.881 -0.5092  1.1094 -0.7831
19429TIP3    H279703   3.012   1.091  15.962 -2.0980  0.6737  1.7588
19430TIP3   OH279704   6.295   0.169  15.983 -0.0702  0.2149  0.5237
19430TIP3    H179705   6.382   0.148  16.017  0.6609  1.0397 -0.7758
19430TIP3    H279706   6.311   0.204  15.896 -1.7198  0.3454  0.2487
19431TIP3   OH279707   6.104   6.409   6.013 -0.0485  0.0541  0.4000
19431TIP3    H179708   6.186   6.375   6.048  0.0141 -0.0976  0.1069
19431TIP3    H279709   6.078   6.476   6.076  1.4158  1.6497 -0.5998
19432TIP3   OH279710   1.902   3.421   0.124  0.4462 -0.1524 -0.1452
19432TIP3    H179711   1.813   3.412   0.159 -0.0825 -0.1376 -1.4394
19432TIP3    H279712   1.958   3.423   0.202 -0.8000  1.2910  0.7722
19433TIP3   OH279713   0.207   2.187  15.258  0.6115  0.0416  0.2154
19433TIP3    H179714   0.263   2.114  15.230  0.7158  0.7365 -1.5433
19433TIP3    H279715   0.253   2.224  15.334  1.7926 -0.3074 -0.2980
19434TIP3   OH279716   6.717   0.063  16.399 -0.8921 -0.3781 -0.4281
19434TIP3    H179717   6.664  -0.003  16.443 -0.0969 -1.1424 -0.5816
19434TIP3    H279718   6.664   0.142  16.402 -1.0802 -0.5297  1.4405
19435TIP3   OH279719   3.648   5.346  17.385  0.0003 -0.0212 -0.1053
19435TIP3    H179720   3.740   5.321  17.374 -0.2381 -1.2952  0.6498
19435TIP3    H279721   3.599   5.280  17.335 -0.5818 -0.3751  0.9040
19436TIP3   OH279722   6.487   0.892  14.324 -0.3547  0.0171 -0.2501
19436TIP3    H179723   6.544   0.853  14.257  1.8104  0.3303  1.3136
19436TIP3    H279724   6.409   0.836  14.324 -0.3248 -0.1615 -2.7733
19437TIP3   OH279725   0.084   0.805   3.098 -0.3246  0.8757 -0.1925
19437TIP3    H179726   0.145   0.759   3.155  2.5930  1.4687 -2.6074
19437TIP3    H279727   0.037   0.735   3.052  0.6992  0.3320 -0.4474
19438TIP3   OH279728   6.004   2.520   0.498 -0.4515 -0.0648 -0.2596
19438TIP3    H179729   5.984   2.437   0.454  0.2165 -1.0900  1.2427
19438TIP3    H279730   6.099   2.521   0.505 -0.5389 -0.2639  1.6383
19439TIP3   OH279731   6.441   4.310   2.250 -0.5692 -0.3410 -0.3685
19439TIP3    H179732   6.532   4.286   2.268 -0.2982  1.2952  0.6876
19439TIP3    H279733   6.447   4.393   2.204 -1.5356 -0.3697 -0.5616
19440TIP3   OH279734   3.685   4.498  13.713  0.1835  0.0559 -0.1900
19440TIP3    H179735   3.726   4.416  13.686 -1.1416 -0.7636  0.1840
19440TIP3    H279736   3.644   4.477  13.797 -2.4339  0.3098 -1.3061
19441TIP3   OH279737   1.083   5.036   4.358  0.1403 -0.2226  0.6600
19441TIP3    H179738   1.153   5.096   4.383 -0.5414  1.0542 -0.3608
19441TIP3    H279739   1.098   5.018   4.265  0.5820 -2.0316  1.0461
19442TIP3   OH279740   0.388   4.615   5.184 -0.2334 -0.0607 -0.0980
19442TIP3    H179741   0.419   4.525   5.176 -0.1139 -0.0485  0.2401
19442TIP3    H279742   0.298   4.607   5.216 -0.7826 -0.1179 -1.5758
19443TIP3   OH279743   3.392   6.570   3.311 -0.3280 -0.6697  0.0132
19443TIP3    H179744   3.466   6.630   3.300 -0.9917 -0.1499 -2.4330
19443TIP3    H279745   3.429   6.483   3.301 -0.0388 -0.3945 -1.6736
19444TIP3   OH279746   6.551   4.525  14.997  0.5188 -0.0174 -0.2287
19444TIP3    H179747   6.488   4.575  15.050  0.7074 -0.0656  0.0461
19444TIP3    H279748   6.513   4.523  14.910  0.4096  0.4296 -0.1924
19445TIP3   OH279749   3.191   1.539  16.010  0.4159  0.4792 -0.1194
19445TIP3    H179750   3.271   1.499  16.042  1.0046  2.2675  0.7821
19445TIP3    H279751   3.192   1.522  15.915  1.5778  0.0344 -0.0478
19446TIP3   OH279752   1.286   2.688  17.299  0.4106  0.0592 -0.4891
19446TIP3    H179753   1.246   2.601  17.288 -0.2883  0.5214 -1.7211
19446TIP3    H279754   1.373   2.679  17.260  0.7514 -0.3661  0.3349
19447TIP3   OH279755   3.244   1.551   0.877  0.0083  0.2276 -0.4514
19447TIP3    H179756   3.257   1.514   0.965 -1.4301 -0.9506 -0.7029
19447TIP3    H279757   3.243   1.646   0.892  1.0171  0.1043  0.6117
19448TIP3   OH279758   2.333   5.691   3.750  0.2503  0.0753  0.4224
19448TIP3    H179759   2.301   5.610   3.789 -0.1761  0.5149  0.9983
19448TIP3    H279760   2.392   5.663   3.680 -2.5114 -0.8299 -1.7654
19449TIP3   OH279761   4.186   5.672  11.924  0.0492  0.0409  0.7217
19449TIP3    H179762   4.265   5.723  11.939  0.1447 -0.0321  0.4703
19449TIP3    H279763   4.217   5.592  11.882 -0.2609  0.4666 -0.3578
19450TIP3   OH279764   1.290   4.780  15.738  0.5777  0.0287 -0.3818
19450TIP3    H179765   1.243   4.863  15.739 -0.1443 -0.3739  0.8261
19450TIP3    H279766   1.341   4.780  15.819 -1.0705 -1.5897  0.7174
19451TIP3   OH279767   1.868   4.489  14.069 -0.1204  0.0999 -0.1624
19451TIP3    H179768   1.862   4.450  14.156 -2.5225 -0.5804 -0.5620
19451TIP3    H279769   1.781   4.527  14.054 -0.5141 -1.6566 -3.0917
19452TIP3   OH279770   4.698   0.663   1.765 -0.2165  0.4457  0.1563
19452TIP3    H179771   4.626   0.601   1.755  0.7447 -1.1480  2.3014
19452TIP3    H279772   4.721   0.688   1.675 -0.9772 -1.9427 -0.7814
19453TIP3   OH279773   2.759   6.506  11.360  0.1166 -0.2109 -0.0027
19453TIP3    H179774   2.837   6.480  11.311 -0.5769 -1.1892 -0.5919
19453TIP3    H279775   2.788   6.583  11.410  1.5180 -0.6800 -0.0491
19454TIP3   OH279776   5.198   6.760  13.995  0.0893 -0.2843  0.1271
19454TIP3    H179777   5.261   6.832  13.992  0.9177 -0.9815  0.2143
19454TIP3    H279778   5.116   6.798  13.964  0.5324  0.6674  0.0881
19455TIP3   OH279779   5.872   2.452   0.760 -0.6397 -0.2114 -0.6577
19455TIP3    H179780   5.900   2.471   0.671 -1.8869  0.6799 -0.8760
19455TIP3    H279781   5.791   2.403   0.750 -0.8347 -0.0349 -0.0122
19456TIP3   OH279782   3.060   6.220   4.643 -0.4943  0.0353 -0.2160
19456TIP3    H179783   3.030   6.131   4.657  0.3275 -0.9083 -3.6368
19456TIP3    H279784   2.989   6.262   4.594 -0.0327  0.6225 -0.3952
19457TIP3   OH279785   4.708   1.981   4.406 -0.5535  0.3690  0.6758
19457TIP3    H179786   4.672   2.011   4.490  1.0699 -2.0571  2.4015
19457TIP3    H279787   4.647   1.912   4.378 -0.5465  0.4891  0.3616
19458TIP3   OH279788   0.711   2.296   4.629  0.5034 -0.5813 -0.1841
19458TIP3    H179789   0.631   2.340   4.660  0.2268 -0.2951 -1.2554
19458TIP3    H279790   0.739   2.348   4.554 -0.4558 -2.7891 -2.2263
19459TIP3   OH279791   1.556   4.679   0.120  0.3434 -0.3575 -0.1382
19459TIP3    H179792   1.575   4.683   0.213  1.0049 -1.4157 -0.2183
19459TIP3    H279793   1.623   4.734   0.079 -0.4202  0.7550  0.0497
19460TIP3   OH279794   6.484   2.070  15.845  0.4547  0.0693 -0.4192
19460TIP3    H179795   6.492   2.109  15.932  0.3087 -0.3970 -0.1945
19460TIP3    H279796   6.532   2.130  15.787 -0.8475  1.2848 -0.3010
19461TIP3   OH279797   2.156   3.741   1.092  0.3644  0.2131  0.0595
19461TIP3    H179798   2.195   3.826   1.110  0.2914  1.3331 -4.0560
19461TIP3    H279799   2.229   3.685   1.064  0.0248 -0.1377 -0.1474
19462TIP3   OH279800   6.608   5.130  17.144 -0.7437  0.6858  0.1916
19462TIP3    H179801   6.601   5.040  17.112  2.1722  0.9626 -1.5622
19462TIP3    H279802   6.658   5.122  17.225 -0.4092  0.7462 -0.0106
19463TIP3   OH279803   1.996   6.236  16.740 -0.0227  0.3922 -0.3382
19463TIP3    H179804   2.042   6.229  16.657  1.7140 -1.4963  0.7069
19463TIP3    H279805   1.948   6.154  16.749 -2.5425  1.7048 -0.6914
19464TIP3   OH279806   5.945   4.663   5.696  0.0574  0.1164 -0.2056
19464TIP3    H179807   5.885   4.656   5.770 -2.1603 -0.4764 -1.9243
19464TIP3    H279808   5.992   4.579   5.695  0.4049  0.2943  0.7446
19465TIP3   OH279809   0.442   5.635  14.386  0.0119  0.9311 -0.2185
19465TIP3    H179810   0.427   5.555  14.336 -1.7233 -0.4828  2.3533
19465TIP3    H279811   0.410   5.705  14.329  1.9013 -0.0345 -2.6893
19466TIP3   OH279812   5.549   2.733   6.664 -0.1016 -0.2583  0.0787
19466TIP3    H179813   5.483   2.790   6.702 -2.3499 -2.0773 -0.7977
19466TIP3    H279814   5.543   2.749   6.570  0.0130 -1.1169 -0.0856
19467TIP3   OH279815   5.090   2.215   2.521  0.3174 -0.6553 -0.5110
19467TIP3    H179816   5.080   2.260   2.437  0.7076 -0.4968 -0.4755
19467TIP3    H279817   5.185   2.211   2.535  0.2391  0.4081  0.5120
19468TIP3   OH279818   3.477   0.717  11.421 -0.0765  0.4087 -0.2181
19468TIP3    H179819   3.453   0.726  11.329  0.3251  0.2381 -0.3409
19468TIP3    H279820   3.550   0.655  11.422 -0.9664 -0.6668  0.3499
19469TIP3   OH279821   0.817   1.650   1.083  0.6105 -0.1769  0.0188
19469TIP3    H179822   0.848   1.728   1.038  1.6783 -0.8154 -0.4126
19469TIP3    H279823   0.738   1.677   1.129  0.7429  1.0419 -0.4527
19470TIP3   OH279824   5.406   5.032   4.291  0.8678 -0.2129 -0.4098
19470TIP3    H179825   5.412   5.017   4.385  0.8479 -0.8747 -0.5140
19470TIP3    H279826   5.454   4.960   4.251  3.5472  1.6660 -0.8437
19471TIP3   OH279827   2.619   1.056  16.924  0.2721  0.6358  0.2150
19471TIP3    H179828   2.610   1.151  16.929  1.6072  0.7357  1.7854
19471TIP3    H279829   2.668   1.041  16.843 -0.8631  1.1689 -0.6030
19472TIP3   OH279830   1.956   3.660  17.347 -0.4370  0.5833  0.1837
19472TIP3    H179831   1.974   3.649  17.440  0.7644 -0.1282 -0.1057
19472TIP3    H279832   1.928   3.751  17.338  0.2261  0.8877  1.1278
19473TIP3   OH279833   5.216   5.241  15.921  0.0180  0.5067  0.1882
19473TIP3    H179834   5.177   5.301  15.858 -1.0802 -0.6410 -0.2539
19473TIP3    H279835   5.261   5.175  15.868 -0.8093 -0.3999  0.5858
19474TIP3   OH279836   1.008   5.571   2.037  0.2199 -0.2579  0.7722
19474TIP3    H179837   0.977   5.660   2.052 -1.4527 -0.9049  1.3685
19474TIP3    H279838   0.946   5.534   1.975  0.6465 -1.1505  0.8574
19475TIP3   OH279839   4.242   0.980  15.767 -0.1836 -0.5196 -0.1771
19475TIP3    H179840   4.336   0.996  15.775  0.2240 -2.3244 -0.7703
19475TIP3    H279841   4.219   0.929  15.845 -0.5065 -0.7096 -0.3919
19476TIP3   OH279842   6.565   2.332   0.725  0.4943 -0.3898 -0.2378
19476TIP3    H179843   6.551   2.241   0.701  0.7394 -0.7137  0.7810
19476TIP3    H279844   6.557   2.333   0.821 -0.7359  0.8789 -0.3254
19477TIP3   OH279845   6.397   1.524  12.325 -0.0971 -0.5912 -0.8961
19477TIP3    H179846   6.485   1.540  12.290  0.3793 -0.0246  0.5050
19477TIP3    H279847   6.357   1.611  12.328 -1.1160 -0.9612 -2.4839
19478TIP3   OH279848   5.564   1.536   5.564  0.2046  0.2883 -0.4275
19478TIP3    H179849   5.540   1.625   5.589  0.7448  0.2640  0.1927
19478TIP3    H279850   5.546   1.483   5.642  1.3770  0.1211 -0.2565
19479TIP3   OH279851   6.524   5.802   1.489 -0.2771  0.3494  0.2748
19479TIP3    H179852   6.468   5.879   1.477  0.2576  0.7479  0.2606
19479TIP3    H279853   6.605   5.824   1.442 -0.0498 -0.1505  0.4207
19480TIP3   OH279854   6.470   4.180  11.152 -0.6498  0.3579  0.3908
19480TIP3    H179855   6.383   4.215  11.171 -1.0931 -1.5220  2.3383
19480TIP3    H279856   6.474   4.099  11.204  1.9052 -0.1152 -0.4201
19481TIP3   OH279857   4.732   6.462   7.044 -0.0075 -0.1588 -0.1518
19481TIP3    H179858   4.728   6.513   7.125  0.0660  0.5031 -0.5577
19481TIP3    H279859   4.788   6.387   7.066  4.2763  2.4859 -0.8603
19482TIP3   OH279860   5.491   2.073   1.195 -0.4571 -0.1101 -0.4148
19482TIP3    H179861   5.441   2.006   1.147 -1.0337  0.2518 -0.3332
19482TIP3    H279862   5.563   2.095   1.136 -0.2367 -0.8357 -0.4221
19483TIP3   OH279863   0.796   4.948   3.728  0.3509 -0.0119  0.1405
19483TIP3    H179864   0.784   4.930   3.821 -1.8082  2.1529  0.3888
19483TIP3    H279865   0.791   5.044   3.721 -0.2425 -0.1486 -2.2764
19484TIP3   OH279866   6.328   1.320   1.657  0.1072  0.1448 -0.3758
19484TIP3    H179867   6.284   1.355   1.734 -0.9537  0.0877 -0.9367
19484TIP3    H279868   6.304   1.381   1.587 -3.0068 -2.3398 -1.7273
19485TIP3   OH279869   2.924   4.811  13.085 -0.6105 -0.6502 -0.5385
19485TIP3    H179870   2.865   4.777  13.153 -1.1179 -0.8621 -1.0763
19485TIP3    H279871   2.979   4.737  13.061  0.4764 -0.2347  0.5666
19486TIP3   OH279872   0.304   3.203   4.558  0.6145  0.5775 -0.8052
19486TIP3    H179873   0.396   3.196   4.585  0.6633  3.0202 -0.0074
19486TIP3    H279874   0.306   3.258   4.480 -0.1493  0.3708 -0.9785
19487TIP3   OH279875   4.563   6.673   4.711  0.2419  0.2890  0.3144
19487TIP3    H179876   4.573   6.697   4.804  0.3102  1.6656 -0.0236
19487TIP3    H279877   4.552   6.757   4.666  1.0893 -0.2991 -1.0431
19488TIP3   OH279878   3.947   2.605  16.634 -0.5765  0.0786  0.6255
19488TIP3    H179879   3.862   2.594  16.676 -0.3802 -0.6865  0.8358
19488TIP3    H279880   3.928   2.608  16.541 -0.6792 -2.1832  0.5067
19489TIP3   OH279881   1.504   0.742   3.525 -0.0543  0.8008 -0.2374
19489TIP3    H179882   1.508   0.823   3.576  0.5959  1.1750 -0.8780
19489TIP3    H279883   1.468   0.769   3.440 -0.3558  0.3219 -0.2649
19490TIP3   OH279884   2.102   1.634  13.716 -0.3597 -0.0519 -0.1758
19490TIP3    H179885   2.117   1.704  13.652 -0.7225  1.4660  1.3140
19490TIP3    H279886   2.122   1.553  13.669 -0.6810  0.9888 -2.2132
19491TIP3   OH279887   0.334   5.598  15.466  0.5908 -0.3767  0.1579
19491TIP3    H179888   0.347   5.514  15.422  1.2832 -0.4421  0.4803
19491TIP3    H279889   0.282   5.650  15.404  2.6348  0.0032 -1.3230
19492TIP3   OH279890   1.889   2.475  12.703  0.0820  0.4850 -0.7180
19492TIP3    H179891   1.948   2.523  12.645  0.9751  0.7500  0.3729
19492TIP3    H279892   1.877   2.534  12.778  1.2049 -0.9429  0.6492
19493TIP3   OH279893   0.158   1.323  11.473  0.1242 -0.0369  0.2607
19493TIP3    H179894   0.210   1.397  11.441  0.4700 -0.5893 -0.5030
19493TIP3    H279895   0.217   1.248  11.465 -0.5779 -0.5709 -0.0021
19494TIP3   OH279896   0.472   2.037   4.150 -0.4592 -0.4543  0.5134
19494TIP3    H179897   0.428   1.964   4.193 -2.2002 -1.1786 -2.2670
19494TIP3    H279898   0.458   2.111   4.209 -1.5617 -1.6501  1.8229
19495TIP3   OH279899   3.571   4.350  12.733 -0.1925 -0.1616  0.1492
19495TIP3    H179900   3.603   4.426  12.685 -2.1096  0.1006 -0.8142
19495TIP3    H279901   3.639   4.284  12.720  1.1738  1.1364  0.4173
19496TIP3   OH279902   5.781   0.228   2.030  0.1109 -0.1214 -0.0497
19496TIP3    H179903   5.849   0.216   2.096 -0.1947 -1.8845 -0.0052
19496TIP3    H279904   5.701   0.242   2.081  0.1401  0.1553 -0.0781
19497TIP3   OH279905   2.740   4.463  13.420  0.3496  0.6527  0.2994
19497TIP3    H179906   2.783   4.417  13.348 -1.1409 -1.7377  0.8237
19497TIP3    H279907   2.679   4.523  13.378  1.6959  1.5804 -0.4053
19498TIP3   OH279908   2.812   4.880  16.768 -0.3420 -0.3294 -0.0373
19498TIP3    H179909   2.872   4.805  16.775 -1.8586 -1.6275 -0.2592
19498TIP3    H279910   2.755   4.857  16.694 -0.9623  0.9849  0.0094
19499TIP3   OH279911   0.041   6.627  12.388  0.4517  0.0056  0.2243
19499TIP3    H179912   0.111   6.661  12.333 -1.5536 -0.7437 -3.0400
19499TIP3    H279913   0.040   6.685  12.465  3.1943  1.3049 -0.5990
19500TIP3   OH279914   5.952   3.216   6.361  0.0488 -0.1062  0.0004
19500TIP3    H179915   5.877   3.162   6.388 -1.5364  1.8751 -0.1899
19500TIP3    H279916   5.923   3.258   6.281  1.6777  0.1967 -0.4678
19501TIP3   OH279917   3.416   6.082   2.344  0.4135 -0.0793  0.1174
19501TIP3    H179918   3.427   5.987   2.333 -0.0036 -0.2338  0.9201
19501TIP3    H279919   3.342   6.105   2.287  1.6344  0.0931 -1.4561
19502TIP3   OH279920   0.093   3.476  13.712  0.4435  0.7620 -0.2927
19502TIP3    H179921   0.042   3.477  13.792  0.9229  1.4488  0.0180
19502TIP3    H279922   0.135   3.562  13.709  0.3531  0.7911 -1.3301
19503TIP3   OH279923   1.947   1.096   3.887  0.3025  0.0131  0.2487
19503TIP3    H179924   2.008   1.143   3.831  1.3750 -1.6018 -0.0187
19503TIP3    H279925   1.943   1.008   3.849 -1.8567 -0.0610  0.5360
19504TIP3   OH279926   0.510   5.870  14.088 -0.1691 -0.0970  0.1571
19504TIP3    H179927   0.421   5.850  14.116  0.2222 -0.9510  0.8344
19504TIP3    H279928   0.551   5.913  14.163  0.5211 -1.3437  0.5431
19505TIP3   OH279929   5.627   5.049  12.837  0.0165 -0.2227 -0.3981
19505TIP3    H179930   5.667   5.083  12.917 -1.2526  2.2752 -0.7176
19505TIP3    H279931   5.533   5.047  12.857 -0.5029  1.9542 -2.2467
19506TIP3   OH279932   1.678   5.077  16.688 -0.2928  0.4665  0.0402
19506TIP3    H179933   1.622   5.139  16.642 -1.1962 -0.4370 -0.1112
19506TIP3    H279934   1.730   5.036  16.619  1.8005  2.4199  0.3070
19507TIP3   OH279935   1.181   4.109   5.408 -0.8217  0.4779  0.3965
19507TIP3    H179936   1.193   4.204   5.412  2.5256  0.1931  0.0760
19507TIP3    H279937   1.112   4.096   5.343 -0.2456  2.6808 -0.7526
19508TIP3   OH279938   5.010   6.742   0.246 -0.1400  0.3918  0.0216
19508TIP3    H179939   5.070   6.808   0.212  0.5130  1.1359  2.4301
19508TIP3    H279940   4.929   6.790   0.264 -0.1902  0.2040  0.3024
19509TIP3   OH279941   1.683   4.538   2.834 -0.0462 -0.0025 -0.6781
19509TIP3    H179942   1.627   4.463   2.816  0.0361 -0.0123 -0.8922
19509TIP3    H279943   1.667   4.598   2.761 -0.3957  0.3547 -0.3160
19510TIP3   OH279944   3.809   4.450  14.064 -0.0810 -0.3270 -0.2607
19510TIP3    H179945   3.728   4.466  14.014  0.0294 -0.0606 -0.3528
19510TIP3    H279946   3.781   4.450  14.155 -0.1793 -0.1966 -0.2899
19511TIP3   OH279947   3.740   4.524  11.809  0.7317  0.4712  0.1834
19511TIP3    H179948   3.781   4.586  11.869  0.0211  1.8544 -0.6945
19511TIP3    H279949   3.648   4.523  11.836  0.7086 -0.0693  0.0789
19512TIP3   OH279950   2.938   3.418   4.682 -0.3720 -0.1107 -0.3786
19512TIP3    H179951   3.011   3.480   4.687 -0.6811  0.1678  2.7036
19512TIP3    H279952   2.872   3.463   4.628  0.8312  0.5944 -1.3171
19513TIP3   OH279953   2.273   3.965   1.054  0.0390 -0.6113  0.3249
19513TIP3    H179954   2.307   3.921   0.976 -1.5257 -2.3591  0.5484
19513TIP3    H279955   2.238   4.048   1.021  2.3452  0.2106 -0.2445
19514TIP3   OH279956   0.538   5.198   6.168 -0.4281  0.1709 -0.4316
19514TIP3    H179957   0.445   5.223   6.164 -0.0966  1.8045  0.9631
19514TIP3    H279958   0.578   5.246   6.096 -0.5376  0.1010 -0.5395
19515TIP3   OH279959   1.094   0.872  13.544 -0.0085  0.1432 -0.2140
19515TIP3    H179960   1.138   0.947  13.583  1.0817  0.4983 -2.0119
19515TIP3    H279961   1.001   0.895  13.545  0.1661  0.8371  0.6296
19516TIP3   OH279962   2.017   2.972  13.965 -0.3553  0.4518 -0.3890
19516TIP3    H179963   2.067   3.039  14.012  0.2101  0.8908 -1.5699
19516TIP3    H279964   1.957   3.022  13.909  0.3755  0.0111 -1.6100
19517TIP3   OH279965   0.750   4.749  12.265  0.7068  0.0860 -0.0053
19517TIP3    H179966   0.783   4.837  12.281 -1.1920  1.2936 -2.2055
19517TIP3    H279967   0.671   4.743  12.317 -0.5117  0.6720 -1.6943
19518TIP3   OH279968   3.522   1.393   1.775 -0.2305  0.1229 -0.1528
19518TIP3    H179969   3.439   1.407   1.728  0.6723 -0.4152 -2.0363
19518TIP3    H279970   3.560   1.316   1.732  1.2388  0.3536  0.6788
19519TIP3   OH279971   3.667   4.079   1.871 -0.3370 -0.1052 -0.3463
19519TIP3    H179972   3.701   4.108   1.956  0.3157 -0.4154 -0.4958
19519TIP3    H279973   3.723   4.122   1.806 -1.2384  0.6502 -0.6547
19520TIP3   OH279974   6.481   1.788   0.245 -0.1226 -0.0371  0.2994
19520TIP3    H179975   6.552   1.729   0.218 -0.6759 -0.2179 -0.8360
19520TIP3    H279976   6.523   1.872   0.258  0.1717  0.1315 -1.4405
19521TIP3   OH279977   3.333   4.669  13.903  0.8255 -0.1877  0.2140
19521TIP3    H179978   3.390   4.709  13.837  0.7312 -1.6164 -0.7711
19521TIP3    H279979   3.289   4.743  13.944  0.9521  0.7667 -1.2795
19522TIP3   OH279980   3.809   1.937  14.573  0.8108 -0.0704  0.0910
19522TIP3    H179981   3.825   2.031  14.578 -1.9084  0.5725 -1.3021
19522TIP3    H279982   3.896   1.898  14.564  2.1745  2.1009  2.4390
19523TIP3   OH279983   3.830   6.211  16.078  0.1979  0.2610  0.9398
19523TIP3    H179984   3.873   6.297  16.071  0.2031  0.1918 -0.1749
19523TIP3    H279985   3.826   6.180  15.987 -0.5162 -0.5680  1.2457
19524TIP3   OH279986   6.036   4.171   5.864 -0.5033 -0.2766 -0.3655
19524TIP3    H179987   6.080   4.187   5.947  0.2588  0.2436 -0.8633
19524TIP3    H279988   6.063   4.083   5.839 -0.5013 -0.3195 -0.2130
19525TIP3   OH279989   4.166   0.992  17.024  0.3990 -0.6569 -0.1672
19525TIP3    H179990   4.111   1.012  17.100  0.7400 -2.4979  0.6178
19525TIP3    H279991   4.222   1.069  17.015  0.0253 -0.1973  1.1610
19526TIP3   OH279992   1.246   5.731  12.842  0.1883  0.3024  0.0273
19526TIP3    H179993   1.206   5.700  12.761 -1.3060 -0.0877  0.8709
19526TIP3    H279994   1.324   5.678  12.853 -1.0058 -1.5148  0.1779
19527TIP3   OH279995   0.015   4.905   4.365  0.1765  0.1335  0.1904
19527TIP3    H179996   0.026   4.936   4.275 -0.9428  1.5778  0.5057
19527TIP3    H279997   0.101   4.918   4.405  0.8261 -0.9826 -0.7674
19528TIP3   OH279998   3.900   6.352   0.471  0.1103 -0.5040  0.4051
19528TIP3    H179999   3.920   6.259   0.483  1.1053 -0.2135  1.1003
19528TIP3    H280000   3.805   6.356   0.467  0.0643 -1.5727  0.2005
19529TIP3   OH280001   5.795   5.916  15.414 -0.2860  0.3320 -0.0946
19529TIP3    H180002   5.758   5.975  15.480 -1.3040  1.3784 -1.5625
19529TIP3    H280003   5.757   5.831  15.435 -0.5547  0.6370  0.6962
19530TIP3   OH280004   0.844   4.639  17.053 -0.1486 -0.3349 -0.1764
19530TIP3    H180005   0.897   4.627  17.131 -0.1286  0.5866 -0.0380
19530TIP3    H280006   0.863   4.563  16.999  1.6827  0.1744 -0.3322
19531TIP3   OH280007   6.479   1.575  11.430 -0.2446 -0.3501 -0.0503
19531TIP3    H180008   6.470   1.533  11.516 -0.3169 -1.8678 -0.7804
19531TIP3    H280009   6.389   1.578  11.396 -0.0552 -0.9057 -0.6038
19532TIP3   OH280010   1.515   1.757  11.986  0.7136 -0.4126 -0.5634
19532TIP3    H180011   1.497   1.841  12.029 -0.1944 -0.9619  0.1723
19532TIP3    H280012   1.489   1.692  12.051  1.3944 -1.2692 -1.1349
19533TIP3   OH280013   0.518   4.848   2.108 -0.1238 -0.3428  0.4293
19533TIP3    H180014   0.606   4.872   2.136  0.1255 -0.9872  0.2232
19533TIP3    H280015   0.463   4.922   2.133  0.3171 -0.3228  1.3899
19534TIP3   OH280016   4.563   2.246  15.089 -0.3353  0.3835  0.2443
19534TIP3    H180017   4.593   2.337  15.095 -0.7164  0.5415 -0.1721
19534TIP3    H280018   4.642   2.195  15.077 -0.1473  0.6924  0.1648
19535TIP3   OH280019   5.022   3.367   3.722 -0.0283  0.5944  0.2080
19535TIP3    H180020   5.110   3.333   3.740 -0.7754 -1.7457 -0.2061
19535TIP3    H280021   5.036   3.458   3.696  2.5934 -0.4407 -2.5478
19536TIP3   OH280022   5.431   1.661   2.155 -0.1048  0.0593 -0.5782
19536TIP3    H180023   5.358   1.669   2.093  0.8084  0.0605 -1.6948
19536TIP3    H280024   5.489   1.734   2.134 -1.2649  2.0187  2.4582
19537TIP3   OH280025   6.427   3.624   2.127  0.3644 -0.5179 -0.5584
19537TIP3    H180026   6.460   3.690   2.067 -1.2073 -0.2004 -1.1230
19537TIP3    H280027   6.332   3.632   2.122  0.1499 -2.2250  0.0408
19538TIP3   OH280028   3.839   6.233   6.040  0.2316 -0.2458 -0.1226
19538TIP3    H180029   3.803   6.320   6.019  0.0163 -0.1954  0.4326
19538TIP3    H280030   3.929   6.236   6.006  0.0619  0.0153 -0.5556
19539TIP3   OH280031   5.248   3.160   2.582  0.1074  0.6216  0.2310
19539TIP3    H180032   5.317   3.224   2.593  0.4394  0.3192 -0.0927
19539TIP3    H280033   5.191   3.196   2.514 -0.9114  1.5977  1.5360
19540TIP3   OH280034   1.787   2.550   0.645 -0.1089  0.0954  0.5596
19540TIP3    H180035   1.705   2.522   0.606  0.5109 -0.2260 -0.5689
19540TIP3    H280036   1.839   2.471   0.652  1.4948  0.7766 -2.2514
19541TIP3   OH280037   5.366   1.457   4.854  0.1906  0.0310 -0.5839
19541TIP3    H180038   5.355   1.484   4.763  2.1355  1.1417 -0.5466
19541TIP3    H280039   5.294   1.395   4.870 -1.6374  1.6504 -2.1111
19542TIP3   OH280040   4.886   4.075  13.087  0.0526 -0.4320 -0.3564
19542TIP3    H180041   4.889   4.064  13.182  0.2704 -0.7884 -0.4009
19542TIP3    H280042   4.803   4.120  13.071 -0.1607 -0.6935 -0.0252
19543TIP3   OH280043   1.358   2.420   3.125  0.5121  0.4936 -0.4526
19543TIP3    H180044   1.312   2.344   3.159  1.0851  0.2023 -0.3017
19543TIP3    H280045   1.299   2.458   3.060  0.2898 -0.1855 -0.6524
19544TIP3   OH280046   3.121   4.553   1.869  0.2322  0.3156  0.9494
19544TIP3    H180047   3.181   4.626   1.883  0.0834  0.3019  1.6642
19544TIP3    H280048   3.041   4.579   1.913 -0.4993  0.5847 -0.4749
19545TIP3   OH280049   3.323   1.453  15.244  0.4124  0.6817 -0.0006
19545TIP3    H180050   3.245   1.406  15.213  1.2895 -1.1902  0.4710
19545TIP3    H280051   3.292   1.541  15.262 -0.7432  1.2125 -3.6374
19546TIP3   OH280052   3.969   6.458  10.905  0.0675 -0.0111  0.5132
19546TIP3    H180053   3.906   6.411  10.959  0.6484  0.2239  1.4189
19546TIP3    H280054   3.928   6.543  10.890 -0.7842 -0.5995 -0.7528
19547TIP3   OH280055   5.276   3.867   5.355  0.1231 -0.2685  0.2632
19547TIP3    H180056   5.229   3.940   5.396 -2.8511 -2.8429  1.7801
19547TIP3    H280057   5.255   3.875   5.262  0.1394  0.9532  0.3409
19548TIP3   OH280058   0.353   1.469   3.182 -0.0994  0.4995  0.2550
19548TIP3    H180059   0.362   1.423   3.099 -1.4494 -0.4718  0.6108
19548TIP3    H280060   0.364   1.401   3.248 -0.5271  0.9865  0.8406
19549TIP3   OH280061   5.731   2.831  12.482 -0.3873  0.3350  0.2156
19549TIP3    H180062   5.825   2.812  12.481 -0.3366  0.4838  1.2529
19549TIP3    H280063   5.717   2.882  12.562 -0.7560  3.5875 -1.7746
19550TIP3   OH280064   5.033   6.219   4.415  0.0229  0.4230  0.1002
19550TIP3    H180065   4.963   6.155   4.430 -0.6771  1.4558  1.5860
19550TIP3    H280066   5.025   6.243   4.323  1.2617 -2.6591 -0.9175
19551TIP3   OH280067   1.794   2.049   0.545 -0.4252 -0.2558  0.4815
19551TIP3    H180068   1.724   1.991   0.574 -0.4631 -1.1610 -1.2567
19551TIP3    H280069   1.753   2.106   0.480  0.0319  0.5038  0.8437
19552TIP3   OH280070   2.718   1.995  11.785  0.1454 -0.3090 -0.0759
19552TIP3    H180071   2.702   2.075  11.835 -1.8586 -0.6006 -0.1807
19552TIP3    H280072   2.793   1.955  11.828  0.1371  0.7874  1.0201
19553TIP3   OH280073   6.237   4.942  15.145 -0.1708 -0.3111  0.9844
19553TIP3    H180074   6.213   4.982  15.062  1.9777 -1.6353 -0.3755
19553TIP3    H280075   6.237   5.015  15.207  0.0592  1.1065 -0.5904
19554TIP3   OH280076   0.834   0.206  12.012  0.3895  0.0196 -0.0810
19554TIP3    H180077   0.838   0.120  11.969 -0.4107 -0.8048  1.4124
19554TIP3    H280078   0.923   0.224  12.040  0.6313 -0.1401 -0.7257
19555TIP3   OH280079   2.227   0.699  16.786 -0.2446 -0.3444  1.2871
19555TIP3    H180080   2.141   0.736  16.810 -0.9193 -1.3657  0.4991
19555TIP3    H280081   2.290   0.764  16.818 -1.3672  1.2785  0.3555
19556TIP3   OH280082   6.140   5.246   0.688 -0.2449  0.1651 -0.0796
19556TIP3    H180083   6.172   5.156   0.700  0.8003  0.2070 -2.1837
19556TIP3    H280084   6.164   5.291   0.769 -1.6438 -1.6310  1.4365
19557TIP3   OH280085   3.564   6.236  16.128  0.1824  0.1603  0.3619
19557TIP3    H180086   3.637   6.272  16.077  0.0359 -0.2344 -0.1391
19557TIP3    H280087   3.605   6.198  16.205  1.0046 -3.2695 -1.5790
19558TIP3   OH280088   3.114   4.807   2.888 -0.6092 -0.1408 -0.3443
19558TIP3    H180089   3.101   4.722   2.930  1.3897 -1.0806 -1.4746
19558TIP3    H280090   3.185   4.848   2.937  0.1446 -0.2453 -1.3069
19559TIP3   OH280091   3.318   3.048   0.757 -0.0730 -0.4903 -0.0322
19559TIP3    H180092   3.270   3.131   0.763  1.3544  0.2747  1.8368
19559TIP3    H280093   3.410   3.075   0.755  0.5199 -2.0389  2.5689
19560TIP3   OH280094   2.973   6.566   2.476 -0.2446  0.1878  0.3078
19560TIP3    H180095   3.005   6.618   2.403 -0.0302  0.3306  0.5019
19560TIP3    H280096   3.019   6.482   2.467 -0.7470 -0.0490 -0.1258
19561TIP3   OH280097   5.018   6.077  11.766 -0.0917 -0.6455  0.4200
19561TIP3    H180098   5.006   6.018  11.692 -1.2462 -1.5273  1.2671
19561TIP3    H280099   5.113   6.083  11.778  0.1964  0.4896 -1.8463
19562TIP3   OH280100   0.484   3.521  14.260  0.2820 -0.1081  0.2660
19562TIP3    H180101   0.442   3.555  14.339  0.1427 -0.1501  0.2115
19562TIP3    H280102   0.428   3.448  14.233 -0.1422  0.4319 -0.3463
19563TIP3   OH280103   2.271   2.273  17.037 -0.1132  0.1957 -0.1266
19563TIP3    H180104   2.212   2.205  17.003 -0.7644  0.1670  1.0004
19563TIP3    H280105   2.302   2.319  16.959 -1.5666  0.1597 -0.7588
19564TIP3   OH280106   2.184   1.128  12.575  0.3096  0.2316  0.1168
19564TIP3    H180107   2.107   1.181  12.556 -0.5760 -1.4186 -1.1660
19564TIP3    H280108   2.255   1.191  12.582 -1.3856  2.0455  3.4191
19565TIP3   OH280109   2.739   5.523   3.138  0.0599 -0.5498  0.7093
19565TIP3    H180110   2.728   5.514   3.043 -1.6008  1.4196  0.6473
19565TIP3    H280111   2.744   5.618   3.153  1.7842 -0.8388  2.4898
19566TIP3   OH280112   4.163   4.328   3.815 -0.2005 -0.0713 -0.1938
19566TIP3    H180113   4.250   4.359   3.842 -0.7855  1.0424  0.4708
19566TIP3    H280114   4.130   4.281   3.891 -0.5542  0.3046 -0.1147
19567TIP3   OH280115   0.845   0.904  11.164  0.1039  0.2588 -0.0441
19567TIP3    H180116   0.858   0.997  11.148 -0.3445  0.4644  0.7270
19567TIP3    H280117   0.933   0.870  11.181  0.2232  0.6147  0.0603
19568TIP3   OH280118   4.285   1.593   0.224  0.6213 -0.4846  0.1435
19568TIP3    H180119   4.334   1.599   0.142  2.1804  1.2534  1.1335
19568TIP3    H280120   4.215   1.658   0.214 -0.4166 -1.6798 -0.5558
19569TIP3   OH280121   3.100   6.712   6.241  0.0951  0.2860  0.5601
19569TIP3    H180122   3.138   6.634   6.283  1.1762  0.5729  0.1530
19569TIP3    H280123   3.007   6.692   6.232  0.4204 -1.1043  0.1355
19570TIP3   OH280124   1.619   6.380   2.304 -0.0698 -0.6706  0.0323
19570TIP3    H180125   1.693   6.331   2.269 -0.7080 -1.9538  0.4014
19570TIP3    H280126   1.576   6.417   2.227  0.6967 -0.2945 -0.2171
19571TIP3   OH280127   2.948   4.427   4.666 -0.1651 -0.6016  0.4447
19571TIP3    H180128   2.946   4.465   4.754 -0.9116  1.0589 -0.2455
19571TIP3    H280129   3.035   4.450   4.632 -0.9061  1.3414 -0.2760
19572TIP3   OH280130   4.305   3.362  12.511  0.0705  0.0189  0.2491
19572TIP3    H180131   4.210   3.364  12.527 -0.4492  1.2388 -2.4097
19572TIP3    H280132   4.344   3.378  12.597 -2.2192  1.5259  1.1122
19573TIP3   OH280133   6.404   2.488  15.659 -0.3533 -0.4075 -0.2172
19573TIP3    H180134   6.382   2.553  15.592 -1.5112  0.0643  0.5958
19573TIP3    H280135   6.437   2.539  15.733 -0.7504 -0.7737  0.2219
19574TIP3   OH280136   2.557   5.379   4.026  0.6217  0.2108  0.2952
19574TIP3    H180137   2.585   5.325   3.953 -1.0333 -0.9088  0.4253
19574TIP3    H280138   2.475   5.419   3.996  0.7498  1.0101  0.9647
19575TIP3   OH280139   3.911   4.641   5.987 -0.4435 -0.2733 -0.4296
19575TIP3    H180140   3.837   4.638   6.048  0.3056  2.0171  0.7122
19575TIP3    H280141   3.973   4.578   6.022 -0.5739  0.0754  0.4781
19576TIP3   OH280142   6.227   2.825   5.050  0.4506  0.1307  0.1502
19576TIP3    H180143   6.262   2.890   5.111  2.8636  2.1614 -3.0696
19576TIP3    H280144   6.294   2.757   5.046 -0.0359 -0.3637  0.2620
19577TIP3   OH280145   5.161   2.681   3.632  0.0549  0.4179  0.2964
19577TIP3    H180146   5.104   2.616   3.591 -2.2424  1.5835  1.4509
19577TIP3    H280147   5.180   2.743   3.562  0.8964 -0.5733 -0.3891
19578TIP3   OH280148   3.066   5.476   4.073 -0.1677  0.1109 -0.0692
19578TIP3    H180149   3.002   5.406   4.053 -1.3527  1.4877 -1.3632
19578TIP3    H280150   3.014   5.556   4.070  1.3850  1.1538  0.2533
19579TIP3   OH280151   6.006   1.291  12.039 -0.6461 -0.1784  0.3850
19579TIP3    H180152   5.958   1.366  12.073  0.6283  0.2090  1.4005
19579TIP3    H280153   6.087   1.289  12.089  0.1472 -1.1663 -0.8717
19580TIP3   OH280154   3.462   4.532  14.637  0.2864 -0.0600 -0.3987
19580TIP3    H180155   3.441   4.441  14.659  0.3624  0.3676  1.6264
19580TIP3    H280156   3.531   4.525  14.571  0.6323 -1.4963  0.0690
19581TIP3   OH280157   2.633   4.170   1.489  0.0028  0.4433  0.3569
19581TIP3    H180158   2.719   4.148   1.523  0.5971  0.7301 -0.8865
19581TIP3    H280159   2.582   4.089   1.498 -0.0745  0.6806  2.4279
19582TIP3   OH280160   4.096   3.258  11.967  0.1966 -0.2172 -0.2665
19582TIP3    H180161   4.149   3.315  12.022 -0.3599 -1.9288  2.2262
19582TIP3    H280162   4.159   3.209  11.914  1.2064 -1.8875  2.3060
19583TIP3   OH280163   6.539   5.278  12.303 -0.0800  0.0589 -0.2344
19583TIP3    H180164   6.524   5.199  12.251  1.6636 -0.0422 -0.6426
19583TIP3    H280165   6.598   5.251  12.372  0.9644  1.0892 -0.6845
19584TIP3   OH280166   5.633   3.990   1.483  0.1492  0.1653  0.2106
19584TIP3    H180167   5.647   3.972   1.390 -0.5387  1.0303 -0.0722
19584TIP3    H280168   5.547   3.953   1.502  0.2427  0.0828  0.4861
19585TIP3   OH280169   3.986   2.024   1.436 -0.4722  0.4158 -0.0054
19585TIP3    H180170   4.051   2.043   1.503 -0.5290  2.7944 -0.5267
19585TIP3    H280171   3.903   2.019   1.483 -0.2823  0.3272  0.3213
19586TIP3   OH280172   1.638   5.929  14.322 -0.1153 -0.2213 -0.0157
19586TIP3    H180173   1.705   5.862  14.332  0.5196  0.7199  3.0029
19586TIP3    H280174   1.627   5.966  14.409 -2.1499  1.9965 -1.0783
19587TIP3   OH280175   1.472   6.177  16.340 -0.2884 -0.2329 -0.4124
19587TIP3    H180176   1.456   6.234  16.416  0.8954 -0.8396  0.3229
19587TIP3    H280177   1.560   6.200  16.311 -0.5526 -0.3433 -1.3224
19588TIP3   OH280178   0.692   3.439   2.902 -0.1055  0.5798  0.1483
19588TIP3    H180179   0.713   3.532   2.890  2.0470  0.1733  0.3053
19588TIP3    H280180   0.747   3.412   2.976  1.5068 -1.4459 -1.6686
19589TIP3   OH280181   6.699   5.945  15.116  0.0750 -0.8887 -0.4860
19589TIP3    H180182   6.784   5.939  15.159 -0.1583  1.3904  0.3855
19589TIP3    H280183   6.639   5.899  15.175 -0.1386  1.7027  1.5074
19590TIP3   OH280184   1.472   3.479   4.445 -0.2655 -0.6257 -0.0406
19590TIP3    H180185   1.398   3.426   4.473  0.3438 -0.8618  1.2042
19590TIP3    H280186   1.549   3.432   4.478  0.2659  1.3942  1.8841
19591TIP3   OH280187   4.817   1.624   5.905 -0.3334  0.3132  0.0010
19591TIP3    H180188   4.746   1.639   5.968 -1.0115  0.3867 -0.7653
19591TIP3    H280189   4.808   1.694   5.842  0.2811  0.1786 -0.2432
19592TIP3   OH280190   1.765   2.606   3.190  0.2620  0.4855 -0.6499
19592TIP3    H180191   1.736   2.520   3.161  0.9305  0.1016 -0.2011
19592TIP3    H280192   1.683   2.654   3.207 -0.1257 -0.3517 -0.0700
19593TIP3   OH280193   5.837   0.969  16.379 -0.3814 -0.5865  0.0689
19593TIP3    H180194   5.839   0.926  16.465 -1.1008 -0.7999 -0.0128
19593TIP3    H280195   5.840   0.897  16.317 -1.6251 -0.5491 -0.0702
19594TIP3   OH280196   5.413   2.164  12.838 -0.2019 -0.2413  0.0370
19594TIP3    H180197   5.344   2.123  12.890 -0.2527  1.2141  1.1839
19594TIP3    H280198   5.490   2.109  12.853 -0.4138 -0.2821  1.0326
19595TIP3   OH280199   6.450   3.185   2.384  0.6625 -0.1799 -0.4759
19595TIP3    H180200   6.464   3.277   2.406 -2.2186  0.6175 -1.5324
19595TIP3    H280201   6.423   3.144   2.466  2.4168 -0.2535  0.1050
19596TIP3   OH280202   1.302   0.904  15.113  0.0925 -0.4175 -0.3197
19596TIP3    H180203   1.309   0.998  15.103  0.3178 -0.1586  1.9087
19596TIP3    H280204   1.375   0.868  15.062  0.8441  0.6892 -0.0437
19597TIP3   OH280205   0.589   6.257  15.485  0.6083  0.5429  0.2379
19597TIP3    H180206   0.604   6.349  15.464  1.3265  0.7133  1.4659
19597TIP3    H280207   0.676   6.219  15.491  0.3122 -0.3245 -0.6236
19598TIP3   OH280208   1.233   1.032   4.950 -0.1534 -0.0276  0.0266
19598TIP3    H180209   1.234   1.054   5.043  0.7432 -1.0159  0.2715
19598TIP3    H280210   1.162   0.968   4.941  0.3978 -0.6820  0.2318
19599TIP3   OH280211   3.403   5.374  12.621 -0.4174  0.3601 -0.0561
19599TIP3    H180212   3.323   5.371  12.674 -0.1372 -2.8271  0.3752
19599TIP3    H280213   3.468   5.325  12.672  0.6970 -0.3596 -2.0507
19600TIP3   OH280214   1.879   4.567  11.624 -0.3580  0.1549 -0.4196
19600TIP3    H180215   1.894   4.662  11.625 -2.4836  0.5505 -0.8949
19600TIP3    H280216   1.898   4.541  11.534 -1.4758  0.4779 -0.7667
19601TIP3   OH280217   2.305   6.064  12.878 -0.9327 -0.0768  0.8645
19601TIP3    H180218   2.302   6.121  12.954 -0.7556 -0.3801  1.1011
19601TIP3    H280219   2.398   6.046  12.865 -0.9404  0.1749  0.4210
19602TIP3   OH280220   3.050   0.397  14.255  0.2183  0.3948  0.0940
19602TIP3    H180221   3.098   0.476  14.231 -0.7492  0.6226 -1.1600
19602TIP3    H280222   3.112   0.326  14.237  0.1847  0.6958 -1.3626
19603TIP3   OH280223   5.932   3.721   5.695 -0.2696 -0.1528  0.1416
19603TIP3    H180224   5.979   3.702   5.614 -1.1846  2.1695 -1.0267
19603TIP3    H280225   5.857   3.661   5.694  1.3342 -2.3138  0.9129
19604TIP3   OH280226   3.730   6.135   0.706 -0.3199  0.3621  0.2070
19604TIP3    H180227   3.671   6.108   0.635 -0.5788  0.0171  0.5548
19604TIP3    H280228   3.818   6.123   0.669 -0.4638  0.8163 -0.2881
19605TIP3   OH280229   6.142   1.184   0.686  0.3638  0.8871 -0.0397
19605TIP3    H180230   6.081   1.194   0.612 -0.0965  0.1592  0.2322
19605TIP3    H280231   6.151   1.273   0.720  0.0224  1.1211 -0.5323
19606TIP3   OH280232   0.698   2.630   3.216 -0.5750  0.1922  0.1889
19606TIP3    H180233   0.651   2.581   3.149  1.1478 -1.1944 -0.0394
19606TIP3    H280234   0.641   2.706   3.233 -1.8134 -0.2480 -1.6588
19607TIP3   OH280235   3.356   2.078   2.916 -0.5965  1.0819 -0.2287
19607TIP3    H180236   3.434   2.034   2.951  0.1937  0.5499 -2.4496
19607TIP3    H280237   3.349   2.159   2.968 -0.0447 -0.0105  1.6483
19608TIP3   OH280238   2.226   1.297   0.214 -0.4233 -0.3210  0.2487
19608TIP3    H180239   2.301   1.256   0.255  1.0841  1.2862 -0.7747
19608TIP3    H280240   2.175   1.333   0.286  1.1460  0.7799  0.8390
19609TIP3   OH280241   2.157   3.738  11.008 -0.3131  0.1047  0.1120
19609TIP3    H180242   2.090   3.764  11.072 -1.1531 -0.9906 -0.2915
19609TIP3    H280243   2.215   3.679  11.056 -1.2089 -1.0869 -0.2158
19610TIP3   OH280244   6.152   2.767  15.045  0.5418  0.2299  0.1236
19610TIP3    H180245   6.223   2.707  15.023  1.1489  1.1196 -0.4326
19610TIP3    H280246   6.116   2.733  15.127  1.6871 -0.1768  0.4776
19611TIP3   OH280247   0.742   3.190   6.719  0.3027  0.0330  0.3746
19611TIP3    H180248   0.795   3.151   6.649 -0.5242 -0.1940 -0.1416
19611TIP3    H280249   0.679   3.122   6.742 -2.1327  1.4405 -1.5419
19612TIP3   OH280250   3.406   3.548   0.745 -0.1389  0.0471  0.1359
19612TIP3    H180251   3.399   3.474   0.684 -1.9795  0.0648  0.2735
19612TIP3    H280252   3.449   3.511   0.822 -1.6358 -1.1102  0.4725
19613TIP3   OH280253   3.814   4.016  13.251  0.3256  0.3042 -0.4398
19613TIP3    H180254   3.731   4.061  13.236 -0.8093 -1.1458  1.2142
19613TIP3    H280255   3.852   4.061  13.327  1.4318  1.3848 -1.5708
19614TIP3   OH280256   4.887   6.214  17.332 -0.3113  0.0949 -0.3866
19614TIP3    H180257   4.834   6.155  17.386 -2.1305  0.1589 -2.0419
19614TIP3    H280258   4.843   6.299  17.338 -0.1244  0.2746 -1.3698
19615TIP3   OH280259   6.391   1.167  14.401 -0.5948 -0.1348  0.3762
19615TIP3    H180260   6.440   1.172  14.483  4.1424 -1.1607 -2.0429
19615TIP3    H280261   6.424   1.088  14.358 -0.5543  1.8247 -3.7128
19616TIP3   OH280262   2.640   4.367   0.765 -0.4623  0.2620  0.0897
19616TIP3    H180263   2.566   4.349   0.822 -2.0536  2.0540 -1.2637
19616TIP3    H280264   2.713   4.382   0.824 -1.5487 -0.0062  1.5462
19617TIP3   OH280265   3.036   6.300  14.756  0.3846  0.0919  0.1607
19617TIP3    H180266   2.964   6.306  14.694  2.3020  0.5134 -2.1979
19617TIP3    H280267   3.052   6.390  14.784  0.9334  0.2138 -0.5172
19618TIP3   OH280268   6.632   5.066   2.136 -0.0358 -0.1175 -0.6139
19618TIP3    H180269   6.690   4.990   2.128 -0.5158 -0.5250 -0.2127
19618TIP3    H280270   6.547   5.030   2.158 -0.2312  0.5477 -0.2413
19619TIP3   OH280271   1.969   2.094  16.281 -0.0585  0.0265 -0.7232
19619TIP3    H180272   1.999   2.185  16.276  0.7290 -0.2623 -1.5043
19619TIP3    H280273   1.936   2.085  16.371  0.2245  0.9660 -0.5078
19620TIP3   OH280274   2.979   6.106  14.941  0.0306 -1.0857  0.0225
19620TIP3    H180275   2.985   6.136  15.032 -1.5040 -1.1879  0.1974
19620TIP3    H280276   2.994   6.185  14.889 -1.4471 -0.4871  0.4361
19621TIP3   OH280277   2.795   5.863  15.048 -0.4915 -0.5365  0.3558
19621TIP3    H180278   2.708   5.878  15.086 -1.1031 -1.4881 -0.6332
19621TIP3    H280279   2.820   5.948  15.011 -1.0186 -0.2675  0.6026
19622TIP3   OH280280   5.549   3.703   1.244  0.3150  0.0941  0.4827
19622TIP3    H180281   5.601   3.631   1.281  0.3850 -0.0449  0.1139
19622TIP3    H280282   5.463   3.692   1.283  0.3404 -0.1589  0.4705
19623TIP3   OH280283   3.741   3.930   3.078  0.2768  0.1675 -0.5412
19623TIP3    H180284   3.686   3.999   3.116 -0.3874 -0.8578  0.4460
19623TIP3    H280285   3.730   3.856   3.137  1.7724 -0.4763 -1.0150
19624TIP3   OH280286   3.782   0.340  14.546  0.9077 -0.0575  0.3551
19624TIP3    H180287   3.835   0.354  14.624 -0.0641 -2.4170  1.5335
19624TIP3    H280288   3.693   0.366  14.572  0.6836 -0.2877 -0.1569
19625TIP3   OH280289   0.824   4.256  13.429 -0.2706  0.5124  0.1844
19625TIP3    H180290   0.889   4.191  13.456 -0.0453  0.7769  0.2811
19625TIP3    H280291   0.833   4.327  13.493 -0.9188  0.3850  0.4262
19626TIP3   OH280292   4.788   4.101   5.379  0.4983 -0.7370 -0.0494
19626TIP3    H180293   4.734   4.065   5.309 -0.2050 -0.8449  0.5403
19626TIP3    H280294   4.746   4.184   5.402  0.5999 -0.8052  0.3903
19627TIP3   OH280295   5.653   4.618   2.767  0.1402 -0.0012 -0.0033
19627TIP3    H180296   5.722   4.603   2.832 -1.6352 -1.6208  1.6486
19627TIP3    H280297   5.677   4.700   2.725  2.9033 -0.3535  0.6749
19628TIP3   OH280298   2.821   2.200  16.446  0.0323 -0.2605  0.3904
19628TIP3    H180299   2.776   2.181  16.528  0.5336 -2.1900  0.2741
19628TIP3    H280300   2.761   2.258  16.399 -0.2988  0.8240  2.0466
19629TIP3   OH280301   2.708   4.647   0.902  0.4086 -0.0916 -0.0892
19629TIP3    H180302   2.654   4.600   0.966  0.5517 -1.9916 -1.2914
19629TIP3    H280303   2.777   4.585   0.878  2.7413  1.9935  0.8102
19630TIP3   OH280304   4.070   4.766   0.608 -0.0623 -0.1183 -0.0807
19630TIP3    H180305   4.023   4.687   0.637 -1.6819  0.1152 -1.8342
19630TIP3    H280306   4.095   4.810   0.688 -1.3966 -1.1462  0.9529
19631TIP3   OH280307   3.982   5.852   5.074  0.2522  0.0703 -0.2076
19631TIP3    H180308   4.072   5.867   5.046  0.5279 -0.6685  0.2388
19631TIP3    H280309   3.984   5.766   5.115 -0.5250  0.3203  0.3813
19632TIP3   OH280310   6.323   0.033   6.215 -0.0682 -0.0401 -0.1979
19632TIP3    H180311   6.306   0.127   6.224 -1.5164 -0.4495  1.9362
19632TIP3    H280312   6.378   0.027   6.137 -1.2108  2.4224 -1.3232
19633TIP3   OH280313   5.499   0.993   3.137 -0.6943  0.2538  0.5217
19633TIP3    H180314   5.422   1.031   3.181 -1.2589  2.3594 -2.0236
19633TIP3    H280315   5.464   0.954   3.057  0.8646  1.7397 -0.9740
19634TIP3   OH280316   0.350   3.968  12.785  0.4509  0.1378  0.5735
19634TIP3    H180317   0.361   3.983  12.879 -1.4896  4.3221  0.3469
19634TIP3    H280318   0.419   4.020  12.745  0.9566 -1.2312 -0.3910
19635TIP3   OH280319   5.792   6.203   1.672  0.0697 -0.1958  0.4163
19635TIP3    H180320   5.805   6.225   1.580 -2.3952 -0.6180 -0.1101
19635TIP3    H280321   5.801   6.286   1.718  0.7932  0.1145 -0.2699
19636TIP3   OH280322   3.822   6.282  11.055  0.5262 -0.1484 -0.1945
19636TIP3    H180323   3.787   6.217  10.995 -0.7488  0.7964 -0.5356
19636TIP3    H280324   3.783   6.261  11.139 -1.7838  1.4655 -0.7625
19637TIP3   OH280325   4.404   6.301   5.479  0.1257  0.3777 -0.0965
19637TIP3    H180326   4.494   6.317   5.506  0.3024 -0.9705  0.1834
19637TIP3    H280327   4.411   6.279   5.386  0.2135 -0.6275  0.1359
19638TIP3   OH280328   4.658   3.608  16.290 -0.4564 -0.2495  0.2951
19638TIP3    H180329   4.635   3.698  16.264 -1.1566 -0.3863  0.4300
19638TIP3    H280330   4.753   3.604  16.278 -0.2736  0.7937  1.1317
19639TIP3   OH280331   6.235   4.981  12.941 -0.2814 -0.4658  0.2971
19639TIP3    H180332   6.229   4.968  13.035  0.2681  2.0633  0.7584
19639TIP3    H280333   6.327   4.964  12.920  0.2858  1.6582  0.7861
19640TIP3   OH280334   5.379   3.526   4.698  0.4842 -0.2677 -0.2395
19640TIP3    H180335   5.292   3.544   4.734  0.7541 -0.8782  0.7516
19640TIP3    H280336   5.369   3.443   4.651  0.5886 -0.4970  0.1338
19641TIP3   OH280337   6.323   6.520  17.245  0.2497 -0.0888  0.3579
19641TIP3    H180338   6.243   6.572  17.238 -0.5750 -1.5386 -2.4174
19641TIP3    H280339   6.301   6.452  17.309 -0.5832 -0.1723 -0.0004
19642TIP3   OH280340   0.992   1.687   5.086  0.6352  0.2719  0.1025
19642TIP3    H180341   0.986   1.745   5.161 -0.5791  0.5685 -0.2097
19642TIP3    H280342   0.951   1.735   5.014 -1.9641 -1.5575  0.2137
19643TIP3   OH280343   3.058   1.185   4.212  0.3843  0.2031 -0.1993
19643TIP3    H180344   3.071   1.248   4.283  1.0796 -0.4374  0.2504
19643TIP3    H280345   2.976   1.141   4.232 -0.1400  0.9927 -0.5478
19644TIP3   OH280346   3.329   5.002   3.805 -0.2360  0.8978 -0.3440
19644TIP3    H180347   3.291   4.990   3.718 -1.0721  1.1901 -0.0273
19644TIP3    H280348   3.340   4.913   3.839 -0.3984  0.8034 -0.5364
19645TIP3   OH280349   3.421   3.930  14.126 -0.1562  0.4441  0.6323
19645TIP3    H180350   3.432   3.943  14.220 -0.1172  1.6806  0.4746
19645TIP3    H280351   3.391   4.015  14.094 -0.5197 -0.0682 -0.4202
19646TIP3   OH280352   0.254   1.728  14.795 -0.1233 -0.0976 -0.1998
19646TIP3    H180353   0.303   1.647  14.779  0.1657 -0.1336  0.7790
19646TIP3    H280354   0.207   1.744  14.713 -1.5580 -2.1944  0.1384
19647TIP3   OH280355   5.350   4.632  16.704 -0.4046 -0.8069  0.2585
19647TIP3    H180356   5.339   4.595  16.791 -1.9604  0.0060  0.4466
19647TIP3    H280357   5.285   4.586  16.650 -3.6978  2.6283  0.8844
19648TIP3   OH280358   6.247   0.456   5.394 -0.7378  0.0834 -0.1923
19648TIP3    H180359   6.179   0.455   5.326  0.4859 -0.4658 -1.4637
19648TIP3    H280360   6.254   0.364   5.422 -1.2911  0.3200  0.7617
19649TIP3   OH280361   3.609   4.069   6.134 -0.1067 -0.4734 -0.1353
19649TIP3    H180362   3.657   3.997   6.092  0.1119  0.4790 -1.6298
19649TIP3    H280363   3.619   4.142   6.072  0.5344  1.1442  1.7689
19650TIP3   OH280364   4.950   2.579   2.412  0.0054  1.1391 -0.3180
19650TIP3    H180365   5.010   2.524   2.361 -0.7955 -0.6874  0.6130
19650TIP3    H280366   4.894   2.620   2.346  0.1248  0.2269 -1.0111
19651TIP3   OH280367   1.663   2.484  12.188 -0.7310  0.4971 -0.4145
19651TIP3    H180368   1.698   2.446  12.107 -0.6353 -0.8765  0.2461
19651TIP3    H280369   1.667   2.579  12.173  1.5372  0.3577 -1.0838
19652TIP3   OH280370   3.477   1.035   4.689  0.2915  0.1970  0.3946
19652TIP3    H180371   3.480   1.004   4.779 -0.3104  1.0942  0.7351
19652TIP3    H280372   3.568   1.059   4.669  0.1411  1.7537  1.4107
19653TIP3   OH280373   1.856   0.570   0.217 -0.1078  0.1190 -0.1633
19653TIP3    H180374   1.935   0.619   0.192  1.4464 -0.3910  3.2279
19653TIP3    H280375   1.807   0.630   0.272  1.2641 -1.5124  3.1103
19654TIP3   OH280376   5.021   5.722  14.552  0.1106  0.4126 -0.5814
19654TIP3    H180377   5.039   5.679  14.468 -0.6633 -0.3423 -0.3628
19654TIP3    H280378   4.972   5.658  14.602  0.4294  0.9227  0.4038
19655TIP3   OH280379   6.172   0.332   0.530  0.3071 -0.0689 -0.2306
19655TIP3    H180380   6.145   0.270   0.463 -0.3241  0.7851 -0.7930
19655TIP3    H280381   6.094   0.346   0.584  0.3794  0.4011 -0.2417
19656TIP3   OH280382   3.194   2.214   3.198  0.7000  0.0989  0.4520
19656TIP3    H180383   3.219   2.244   3.285  0.9840 -0.6961  0.6618
19656TIP3    H280384   3.248   2.136   3.184  0.2407 -0.1103 -0.1995
19657TIP3   OH280385   5.570   0.572  15.468 -0.2583 -0.1635  0.1087
19657TIP3    H180386   5.660   0.566  15.502 -0.0142 -0.4193 -0.5615
19657TIP3    H280387   5.561   0.495  15.412 -1.1307 -0.5094  0.6916
19658TIP3   OH280388   1.996   2.956  15.480  0.1920 -0.1806 -0.3558
19658TIP3    H180389   2.004   2.987  15.570 -0.7555  0.9040 -0.6181
19658TIP3    H280390   1.916   2.903  15.480 -0.5833  0.9418 -0.8209
19659TIP3   OH280391   6.532   0.483   2.621 -0.1562  0.1701  0.4221
19659TIP3    H180392   6.582   0.517   2.547  0.7848  0.5037  1.1968
19659TIP3    H280393   6.566   0.394   2.634 -0.0790  0.2355  0.6683
19660TIP3   OH280394   4.775   6.421  15.633 -0.0128 -0.2297 -0.6437
19660TIP3    H180395   4.732   6.352  15.582 -1.7520 -1.2070  1.9553
19660TIP3    H280396   4.806   6.377  15.712  0.0055  1.7099  0.5015
19661TIP3   OH280397   0.715   5.698  13.214 -0.3314  0.5084 -0.2611
19661TIP3    H180398   0.743   5.724  13.302  0.2159  1.6580 -0.7598
19661TIP3    H280399   0.791   5.652  13.178  0.2061  1.8403 -0.8689
19662TIP3   OH280400   4.376   5.284   0.053 -0.4155 -0.2266 -0.1296
19662TIP3    H180401   4.401   5.349  -0.012 -1.7992 -1.2025 -1.7124
19662TIP3    H280402   4.450   5.224   0.057  0.4781  0.8996  0.6524
19663TIP3   OH280403   3.161   6.111  17.077  0.1433 -0.5258 -0.1842
19663TIP3    H180404   3.198   6.198  17.096 -2.7966  1.2075 -1.6488
19663TIP3    H280405   3.111   6.089  17.155  1.2037 -1.1331  0.3429
19664TIP3   OH280406   3.411   4.054   1.708 -0.6624 -0.7010 -0.0206
19664TIP3    H180407   3.491   4.081   1.754 -0.0172 -0.6437 -1.1332
19664TIP3    H280408   3.435   4.056   1.616 -2.0961 -0.2545 -0.4066
19665TIP3   OH280409   3.002   6.709  15.630  0.2820 -0.1551  0.2394
19665TIP3    H180410   3.003   6.626  15.583  0.6396 -0.9039  1.5160
19665TIP3    H280411   2.962   6.771  15.569 -1.4823 -1.6150 -0.1553
19666TIP3   OH280412   6.058   4.010   5.229  0.3748  0.0330  0.0632
19666TIP3    H180413   6.006   3.940   5.269 -0.8370  1.0511  0.3400
19666TIP3    H280414   6.061   4.079   5.296 -0.6306  1.2621 -1.1068
19667TIP3   OH280415   0.847   6.165   4.326  0.2957 -0.0155  0.2196
19667TIP3    H180416   0.845   6.144   4.232  0.2922 -1.2854  0.4852
19667TIP3    H280417   0.782   6.234   4.336  1.4010  1.2721 -0.9561
19668TIP3   OH280418   2.623   3.545   2.610  0.4620  0.0528  0.3616
19668TIP3    H180419   2.587   3.557   2.698 -0.0155  1.2030  0.0299
19668TIP3    H280420   2.716   3.527   2.625  0.5501  0.9926  1.0833
19669TIP3   OH280421   2.069   1.286   3.727  0.1971 -0.0872 -0.0468
19669TIP3    H180422   2.068   1.371   3.771 -0.0632  0.5772 -1.2991
19669TIP3    H280423   2.046   1.306   3.636 -0.4475 -1.5752 -0.2274
19670TIP3   OH280424   0.952   1.498   4.785 -0.4179  0.5312  0.5516
19670TIP3    H180425   0.946   1.586   4.749 -0.0667  1.0454  1.7253
19670TIP3    H280426   1.042   1.470   4.764 -0.2837  0.7443  0.8443
19671TIP3   OH280427   0.642   1.737  17.155 -0.8803 -0.0254  0.0763
19671TIP3    H180428   0.551   1.707  17.159 -0.9484  0.2403  0.7001
19671TIP3    H280429   0.691   1.673  17.207 -0.6758 -0.2759 -0.4158
19672TIP3   OH280430   5.880   4.715   3.804 -0.2418  0.0739  1.0248
19672TIP3    H180431   5.950   4.779   3.790 -0.4121  0.0666  0.0782
19672TIP3    H280432   5.889   4.690   3.896  0.3396  0.8484  1.1906
19673TIP3   OH280433   6.243   6.095  17.329  0.5081  0.4625 -0.0476
19673TIP3    H180434   6.211   6.151  17.258 -0.0415 -0.6492 -0.7200
19673TIP3    H280435   6.164   6.061  17.370  0.8286  0.4743  0.5888
19674TIP3   OH280436   0.474   6.249  11.762  0.4443 -0.3436  0.2222
19674TIP3    H180437   0.441   6.242  11.852  0.1283 -0.5462  0.0912
19674TIP3    H280438   0.452   6.338  11.735 -0.9904 -0.8246 -0.2533
19675TIP3   OH280439   0.811   0.101   2.419  0.1354  0.2169 -0.3618
19675TIP3    H180440   0.743   0.038   2.443  1.7280 -1.4832 -0.1789
19675TIP3    H280441   0.767   0.159   2.356 -1.8445 -0.0049  0.7057
19676TIP3   OH280442   5.514   0.893   3.659  0.8054  0.7975  0.0415
19676TIP3    H180443   5.466   0.827   3.710  1.8043  1.2680  1.6628
19676TIP3    H280444   5.506   0.863   3.569 -0.7779 -0.2408  0.4741
19677TIP3   OH280445   2.802   1.206   5.272 -0.5364  0.2271 -0.0208
19677TIP3    H180446   2.726   1.256   5.301  0.4991  1.6483  0.3536
19677TIP3    H280447   2.851   1.266   5.215 -0.5256 -1.2179 -1.6330
19678TIP3   OH280448   1.675   2.926  11.409  0.4450  0.2824  0.1555
19678TIP3    H180449   1.719   2.842  11.416  0.2879  0.3450  3.0807
19678TIP3    H280450   1.641   2.928  11.319 -1.6566 -3.8222  0.6218
19679TIP3   OH280451   6.460   2.568  13.900 -0.4440 -0.1339  0.6111
19679TIP3    H180452   6.434   2.482  13.931  0.2547 -0.3449  0.6232
19679TIP3    H280453   6.531   2.551  13.838  0.3153  0.4832  1.2853
19680TIP3   OH280454   0.658   3.783   3.722 -0.1123  0.3514  0.1955
19680TIP3    H180455   0.598   3.742   3.659 -1.0390  0.2758  1.1039
19680TIP3    H280456   0.722   3.829   3.668 -1.1012  0.5897 -0.7946
19681TIP3   OH280457   1.500   5.195  16.471 -0.3393  0.0049 -0.6857
19681TIP3    H180458   1.492   5.290  16.474  0.7927  0.1042 -0.6001
19681TIP3    H280459   1.502   5.175  16.377  0.8604  0.2022 -0.7106
19682TIP3   OH280460   0.745   0.562   5.107 -0.3031 -0.6141  0.2227
19682TIP3    H180461   0.651   0.564   5.123 -0.5934 -1.7152 -1.2241
19682TIP3    H280462   0.768   0.469   5.107  0.9236 -0.3525  1.1641
19683TIP3   OH280463   4.981   5.408   0.025 -0.0255  0.1311 -0.0757
19683TIP3    H180464   5.062   5.457   0.012  1.1432 -1.7092 -0.0443
19683TIP3    H280465   4.981   5.385   0.118  1.9304 -3.8547 -0.8401
19684TIP3   OH280466   5.626   6.379   0.392  0.2309  0.3929 -0.1771
19684TIP3    H180467   5.546   6.415   0.353 -1.1117 -0.3173  1.8027
19684TIP3    H280468   5.694   6.397   0.327 -1.2764  2.1642 -1.3595
19685TIP3   OH280469   3.737   2.430  12.493 -0.1605  0.2230  0.0738
19685TIP3    H180470   3.690   2.362  12.541  1.1737 -0.1198  0.9430
19685TIP3    H280471   3.803   2.462  12.555 -0.9011  2.4934 -0.2212
19686TIP3   OH280472   5.144   0.495  10.695  0.2404 -0.3542  0.1128
19686TIP3    H180473   5.210   0.516  10.630  0.6107  0.9993  0.8657
19686TIP3    H280474   5.126   0.579  10.738 -0.0245 -1.1886  1.7100
19687TIP3   OH280475   2.429   4.121  15.702  0.1008  0.1477 -0.2390
19687TIP3    H180476   2.486   4.159  15.635  0.1595  1.3723  0.4615
19687TIP3    H280477   2.431   4.185  15.774 -1.8440  0.0632 -0.0401
19688TIP3   OH280478   0.514   1.386  12.247  0.6466  0.0471  0.1858
19688TIP3    H180479   0.499   1.411  12.156 -1.3064  0.4397  0.5623
19688TIP3    H280480   0.521   1.469  12.295 -0.0829 -0.1254  0.6175
19689TIP3   OH280481   4.552   1.771   0.225 -0.1450 -0.2418  0.2944
19689TIP3    H180482   4.596   1.687   0.237 -1.7919 -1.3727 -1.0428
19689TIP3    H280483   4.467   1.759   0.267 -1.1214  0.0625 -1.4850
19690TIP3   OH280484   1.648   1.753  13.711 -0.1398  0.3999  0.2736
19690TIP3    H180485   1.677   1.770  13.621 -1.6069 -0.3382 -0.3766
19690TIP3    H280486   1.728   1.755  13.763  1.2034 -2.1041 -1.4886
19691TIP3   OH280487   0.099   0.686   1.633  0.5647  0.1410 -0.3054
19691TIP3    H180488   0.051   0.652   1.557 -0.7317 -0.3214  0.6930
19691TIP3    H280489   0.191   0.679   1.608  0.1863 -0.6180 -1.5783
19692TIP3   OH280490   1.908   0.829  14.330  0.1286 -0.3032  0.1048
19692TIP3    H180491   1.859   0.836  14.412  2.7117  0.8285  1.6842
19692TIP3    H280492   1.878   0.747  14.291 -1.2915 -0.8038  2.0812
19693TIP3   OH280493   5.605   3.338   4.336 -0.1530 -0.2554  0.3257
19693TIP3    H180494   5.517   3.373   4.322 -0.0423 -0.1766 -0.2004
19693TIP3    H280495   5.625   3.291   4.255  1.1523  1.5823 -0.4861
19694TIP3   OH280496   0.718   1.636   4.462  0.2462 -0.1200  0.0586
19694TIP3    H180497   0.807   1.671   4.458 -0.4291  1.7929  0.5510
19694TIP3    H280498   0.678   1.681   4.536 -1.3524 -0.3687 -0.6113
19695TIP3   OH280499   5.740   4.327  17.281 -0.9466  0.4867 -0.7797
19695TIP3    H180500   5.834   4.317  17.294 -0.6221  2.9061 -0.8789
19695TIP3    H280501   5.718   4.263  17.214  0.7418  0.3168 -1.2165
19696TIP3   OH280502   0.714   4.052   6.022  0.0727  0.2464  0.5795
19696TIP3    H180503   0.732   3.995   6.097  0.5912  2.6429  2.3992
19696TIP3    H280504   0.763   4.132   6.040 -2.5947  2.2894 -0.5491
19697TIP3   OH280505   3.537   3.434   0.976 -0.5179 -0.1584  0.4051
19697TIP3    H180506   3.604   3.472   0.919 -1.9054  1.1162 -0.4467
19697TIP3    H280507   3.550   3.478   1.060  0.7839 -1.1907  0.7828
19698TIP3   OH280508   4.714   1.196  14.152 -0.0467 -0.9570  0.0533
19698TIP3    H180509   4.736   1.151  14.070 -1.4886 -0.8447 -0.4220
19698TIP3    H280510   4.650   1.139  14.194 -3.1896  1.2593 -1.3330
19699TIP3   OH280511   2.532   0.645  14.039 -0.1353 -0.4875 -0.6353
19699TIP3    H180512   2.489   0.623  14.122  0.1497 -2.5156 -0.9736
19699TIP3    H280513   2.498   0.732  14.017  0.0216  0.2536  1.7413
19700TIP3   OH280514   5.220   3.944   6.125 -0.4719 -0.0850  0.1583
19700TIP3    H180515   5.310   3.975   6.134 -0.3644 -0.0794 -0.7904
19700TIP3    H280516   5.167   4.012   6.166 -0.0081 -0.4690  1.4527
19701TIP3   OH280517   5.283   4.322  13.243 -0.3270  0.0168  0.4437
19701TIP3    H180518   5.207   4.362  13.202  1.8880  4.0013 -0.3414
19701TIP3    H280519   5.328   4.276  13.171 -1.3500 -1.3974  0.6748
19702TIP3   OH280520   3.870   3.104   1.680  0.1685  0.0523  0.0535
19702TIP3    H180521   3.935   3.120   1.749 -0.1527 -1.2770  0.6847
19702TIP3    H280522   3.891   3.017   1.646 -1.5066 -0.5793  0.5459
19703TIP3   OH280523   5.376   3.890   2.340  0.5455 -0.2623 -0.0987
19703TIP3    H180524   5.325   3.891   2.421  0.7415 -0.7970  0.0360
19703TIP3    H280525   5.454   3.941   2.360  0.6520 -0.5011  0.0830
19704TIP3   OH280526   0.936   3.388  16.065 -0.2301  0.3558 -0.1238
19704TIP3    H180527   1.001   3.399  15.995  1.3610  0.3911  1.2953
19704TIP3    H280528   0.918   3.478  16.094  0.0771  0.2727  0.3363
19705TIP3   OH280529   4.138   3.871  10.997  0.2076 -0.4074 -0.0193
19705TIP3    H180530   4.181   3.952  11.023 -1.5835  0.6630 -0.1671
19705TIP3    H280531   4.169   3.855  10.908  0.2337  0.3872 -0.1622
19706TIP3   OH280532   4.785   2.241  15.615  0.5259  0.3171 -0.1953
19706TIP3    H180533   4.843   2.310  15.647  0.1437  2.4981 -3.6551
19706TIP3    H280534   4.700   2.283  15.605 -0.2383 -1.2332 -0.5728
19707TIP3   OH280535   6.663   3.936   2.093  0.3143  0.9792 -0.2455
19707TIP3    H180536   6.590   3.914   2.151  0.1295  0.0507 -0.8165
19707TIP3    H280537   6.627   3.925   2.005  0.6413  2.2057 -0.5565
19708TIP3   OH280538   2.373   4.483  14.928 -0.3225  0.4330  0.1588
19708TIP3    H180539   2.331   4.398  14.916  0.6265  0.0256 -0.4462
19708TIP3    H280540   2.376   4.497  15.022  2.5045 -1.8001  0.5306
19709TIP3   OH280541   3.135   2.873   2.215  0.9192  0.0138  0.2426
19709TIP3    H180542   3.084   2.931   2.158  0.8903  0.0085  0.2630
19709TIP3    H280543   3.136   2.917   2.300 -1.7436 -1.4573  1.1388
19710TIP3   OH280544   6.185   5.636   4.359 -0.2584  0.1562  0.2159
19710TIP3    H180545   6.134   5.712   4.332 -0.5995 -0.2525 -0.3239
19710TIP3    H280546   6.233   5.665   4.437 -1.2067  0.5938  0.6547
19711TIP3   OH280547   1.264   5.110   0.150  0.1299 -0.0495  0.3405
19711TIP3    H180548   1.194   5.099   0.086 -0.3105 -1.0844  0.9782
19711TIP3    H280549   1.344   5.118   0.098 -0.2844 -0.3533 -0.3427
19712TIP3   OH280550   4.519   0.400  12.150  0.2139 -0.2380 -1.4204
19712TIP3    H180551   4.517   0.384  12.245 -0.0767 -1.1233 -1.5709
19712TIP3    H280552   4.611   0.417  12.131  0.3571 -0.6029 -1.0684
19713TIP3   OH280553   2.371   0.228   4.409 -0.0495 -0.4232  0.0837
19713TIP3    H180554   2.348   0.150   4.357  0.4127 -0.7833  0.4104
19713TIP3    H280555   2.450   0.261   4.369  0.2051 -0.5937  0.4388
19714TIP3   OH280556   2.901   3.253   2.415  0.3664 -0.4143 -0.3987
19714TIP3    H180557   2.859   3.328   2.373  0.8303 -0.3117 -0.6873
19714TIP3    H280558   2.991   3.254   2.382  0.0906 -1.7461 -1.2761
19715TIP3   OH280559   5.655   2.086   1.481 -0.1147 -0.1545 -0.3234
19715TIP3    H180560   5.627   2.109   1.393 -1.4001 -0.9373 -0.1555
19715TIP3    H280561   5.745   2.054   1.470  1.1958  3.2825 -0.7544
19716TIP3   OH280562   6.701   1.437  14.379  0.2054 -0.6548 -0.0461
19716TIP3    H180563   6.699   1.531  14.362 -0.9649 -0.7906 -0.7908
19716TIP3    H280564   6.632   1.423  14.444 -0.6080 -1.1603 -0.9762
19717TIP3   OH280565   1.901   4.618  16.323  0.1591  0.4279 -0.2836
19717TIP3    H180566   1.881   4.676  16.396 -0.8569  2.3141 -1.9653
19717TIP3    H280567   1.821   4.566  16.311  0.3159  0.1380 -0.0997
19718TIP3   OH280568   4.655   4.940  15.208  0.1685 -0.1978  0.3763
19718TIP3    H180569   4.673   4.936  15.114 -0.2900 -1.3251  0.3242
19718TIP3    H280570   4.720   5.001  15.242  1.7819 -1.4223 -0.3616
19719TIP3   OH280571   6.562   6.386   4.853 -0.5542 -0.0917  0.4022
19719TIP3    H180572   6.624   6.419   4.788 -1.7288  0.8207 -0.3089
19719TIP3    H280573   6.588   6.427   4.935 -0.9047  1.2502 -0.1258
19720TIP3   OH280574   4.131   3.524  17.168  0.1273 -1.0067 -0.0546
19720TIP3    H180575   4.141   3.478  17.252  0.6011  0.8463  0.9394
19720TIP3    H280576   4.132   3.453  17.103  1.3050 -2.3945  1.3662
19721TIP3   OH280577   0.086   0.049  17.185  0.8211 -0.5248  0.4170
19721TIP3    H180578   0.006   0.069  17.137 -0.3521 -1.3279  1.9183
19721TIP3    H280579   0.130  -0.018  17.132 -1.1606 -2.4617  1.0341
19722TIP3   OH280580   3.601   6.300  12.447 -0.1048  0.6056 -0.4031
19722TIP3    H180581   3.614   6.227  12.387 -0.5402 -0.0873  0.3354
19722TIP3    H280582   3.507   6.301  12.464  0.0397  0.6458  0.4446
19723TIP3   OH280583   1.849   1.207  12.789 -0.3533  0.4878  0.0842
19723TIP3    H180584   1.937   1.206  12.827 -0.6026 -1.8190  0.7649
19723TIP3    H280585   1.863   1.198  12.695  0.1629  2.7477 -0.1092
19724TIP3   OH280586   4.085   3.249   5.364 -0.6615 -0.7085 -0.0401
19724TIP3    H180587   4.068   3.238   5.270  0.1226  0.2192 -0.3043
19724TIP3    H280588   4.167   3.201   5.379 -0.9978 -1.1933  0.2545
19725TIP3   OH280589   3.198   2.293   6.018 -0.4142  0.2467  0.1226
19725TIP3    H180590   3.118   2.335   6.048  1.4345  2.4303  2.3868
19725TIP3    H280591   3.239   2.259   6.097 -0.4702 -3.6779 -1.3185
19726TIP3   OH280592   6.315   1.851   3.278  0.1536  0.1999  0.3728
19726TIP3    H180593   6.292   1.764   3.245 -1.1783  0.5043  0.4370
19726TIP3    H280594   6.400   1.839   3.320 -0.0538 -1.1017  0.4774
19727TIP3   OH280595   3.053   5.894   6.035  0.1867  0.6301 -0.7874
19727TIP3    H180596   2.985   5.947   6.077 -1.1113 -1.6816  0.1751
19727TIP3    H280597   3.094   5.846   6.107  0.6512 -0.4339 -1.7356
19728TIP3   OH280598   4.034   3.700   1.077 -0.3060  0.1199  0.1539
19728TIP3    H180599   4.008   3.787   1.108 -0.3111  0.3929 -0.5980
19728TIP3    H280600   4.102   3.672   1.139  0.0825  0.8858  0.0850
19729TIP3   OH280601   6.159   2.501   4.189  0.6954  0.3103 -0.4188
19729TIP3    H180602   6.233   2.560   4.201 -0.1012  1.2487 -0.0433
19729TIP3    H280603   6.082   2.558   4.185 -0.2725 -0.7424  1.4453
19730TIP3   OH280604   5.072   3.606  17.095 -0.2104  0.0985  0.2268
19730TIP3    H180605   5.001   3.584  17.035 -1.0428  1.3600  0.7132
19730TIP3    H280606   5.084   3.701  17.084  0.6909  0.0707  0.9032
19731TIP3   OH280607   4.500   5.527   4.876 -0.4426 -0.2858 -0.8552
19731TIP3    H180608   4.430   5.482   4.828  0.5059 -1.0923 -1.5240
19731TIP3    H280609   4.581   5.490   4.841  0.3738  1.5113 -0.9859
19732TIP3   OH280610   1.307   5.521  11.648  0.0816 -0.7657 -0.5672
19732TIP3    H180611   1.255   5.498  11.570  0.5309  2.0285 -1.8454
19732TIP3    H280612   1.391   5.550  11.612  0.7503 -0.5947  1.0730
19733TIP3   OH280613   1.623   5.396   1.698 -0.1437 -0.2565  0.0264
19733TIP3    H180614   1.699   5.454   1.694 -0.9127  0.7173 -0.8157
19733TIP3    H280615   1.579   5.421   1.779 -0.7367  0.7067 -0.5721
19734TIP3   OH280616   4.742   0.897   3.756 -0.0435 -0.0525 -0.1575
19734TIP3    H180617   4.816   0.839   3.771 -0.1726 -0.1128  0.2421
19734TIP3    H280618   4.712   0.875   3.667  0.1232 -0.3529 -0.1401
19735TIP3   OH280619   2.238   4.938   6.156  0.0354 -0.0303  0.3792
19735TIP3    H180620   2.238   4.844   6.141  2.5965 -0.1220  0.5707
19735TIP3    H280621   2.268   4.948   6.246  0.4798  0.9967  0.1305
19736TIP3   OH280622   3.531   1.719  12.952  0.4137 -0.2990  0.7517
19736TIP3    H180623   3.622   1.725  12.923  0.9074 -0.8163  2.1526
19736TIP3    H280624   3.516   1.626  12.967 -0.6683 -0.3383 -0.4048
19737TIP3   OH280625   5.481   4.061   5.554  0.3458  0.4992  0.0842
19737TIP3    H180626   5.519   4.038   5.639 -1.8368  0.5854  1.1695
19737TIP3    H280627   5.556   4.072   5.496  1.8387 -2.5671  1.2054
19738TIP3   OH280628   0.778   5.636  13.563 -0.7461 -0.0264  0.4181
19738TIP3    H180629   0.778   5.568  13.630  0.3175 -0.5631 -0.0936
19738TIP3    H280630   0.742   5.594  13.485 -1.3246  0.3897  0.4548
19739TIP3   OH280631   0.512   3.009  13.369 -0.4032 -0.3877 -0.4593
19739TIP3    H180632   0.499   3.101  13.392 -0.4374 -0.4806 -0.0959
19739TIP3    H280633   0.604   3.003  13.346 -0.1411 -0.4742  0.5572
19740TIP3   OH280634   6.234   3.590  16.985  0.4604 -0.2127 -0.2881
19740TIP3    H180635   6.299   3.570  16.918  2.3348  0.0701  1.3652
19740TIP3    H280636   6.205   3.679  16.964  3.1917  1.0633  0.8307
19741TIP3   OH280637   1.952   0.678  13.615  0.0034  0.2947 -0.7441
19741TIP3    H180638   1.867   0.660  13.656  0.5474  1.5885  1.0577
19741TIP3    H280639   2.014   0.625  13.664  0.6650  1.8720  0.2123
19742TIP3   OH280640   5.387   4.704   4.262 -0.4021  0.0040  0.8226
19742TIP3    H180641   5.457   4.757   4.224 -0.8585  0.6920  0.9177
19742TIP3    H280642   5.315   4.710   4.200 -0.7772  0.2488  1.2731
19743TIP3   OH280643   1.275   2.141   6.029 -0.9620 -0.0972 -0.0611
19743TIP3    H180644   1.219   2.077   6.073 -2.7964  0.0606 -1.9511
19743TIP3    H280645   1.226   2.164   5.950  0.6809  1.9692 -0.5670
19744TIP3   OH280646   6.728   1.001   5.274  0.5127  0.3438 -0.1971
19744TIP3    H180647   6.767   0.956   5.200 -0.2484  0.0341 -0.4224
19744TIP3    H280648   6.767   0.961   5.351  1.3871  0.7382 -0.4294
19745TIP3   OH280649   0.449   3.771  12.542  0.7238  0.6279  0.4240
19745TIP3    H180650   0.376   3.717  12.571 -1.6523  3.7331  0.8157
19745TIP3    H280651   0.479   3.815  12.622  0.0173  2.6496 -0.3580
19746TIP3   OH280652   4.571   3.599   2.585 -0.6635 -0.3362 -0.2618
19746TIP3    H180653   4.563   3.672   2.523 -2.9167 -0.6131 -0.3924
19746TIP3    H280654   4.576   3.521   2.530  1.0418 -0.3753 -0.1075
19747TIP3   OH280655   2.291   5.918   4.613  0.4958 -0.9039 -0.2180
19747TIP3    H180656   2.374   5.963   4.630 -0.4562  1.3491 -1.2348
19747TIP3    H280657   2.274   5.871   4.695  2.2616 -0.6169  0.3772
19748TIP3   OH280658   1.670   4.473  13.484 -0.5123  0.1933  0.4180
19748TIP3    H180659   1.629   4.399  13.440  1.0419 -0.6850  0.3984
19748TIP3    H280660   1.756   4.442  13.509  0.7176  2.3894 -0.7422
19749TIP3   OH280661   0.037   4.590  11.445 -0.1347 -0.5740 -0.1170
19749TIP3    H180662   0.088   4.520  11.404 -0.2136  0.4001 -2.0192
19749TIP3    H280663  -0.002   4.638  11.371 -2.5156 -0.3100  1.1991
19750TIP3   OH280664   5.700   6.556  14.152 -0.0704  0.1408 -0.3215
19750TIP3    H180665   5.763   6.571  14.223 -2.4568  0.2942  1.8852
19750TIP3    H280666   5.697   6.639  14.105 -0.8293  1.1621  1.4523
19751TIP3   OH280667   6.522   1.424   5.410  0.9353  0.4479  0.0346
19751TIP3    H180668   6.586   1.392   5.346  0.3059 -1.0631  0.1058
19751TIP3    H280669   6.438   1.417   5.365  0.3816 -1.4215  1.2337
19752TIP3   OH280670   3.580   1.357   0.830  0.0752 -0.2101 -0.4238
19752TIP3    H180671   3.594   1.416   0.756 -0.6407  0.9024  0.2994
19752TIP3    H280672   3.513   1.295   0.800  1.4052 -1.2155 -1.4677
19753TIP3   OH280673   1.697   1.037   1.905  0.2194 -0.2504  0.0725
19753TIP3    H180674   1.639   1.002   1.838 -2.5375  1.9792  1.0838
19753TIP3    H280675   1.677   0.986   1.983  0.8849 -0.5790  0.0309
19754TIP3   OH280676   0.101   0.853  11.400 -0.1514  0.6718  0.1500
19754TIP3    H180677   0.036   0.904  11.352 -0.8791 -0.9018 -0.6078
19754TIP3    H280678   0.132   0.788  11.337 -1.7600 -2.0368  1.8999
19755TIP3   OH280679   0.305   1.992  13.729  0.3384  0.0146  0.3975
19755TIP3    H180680   0.303   2.056  13.658  0.1873  1.8936  1.9918
19755TIP3    H280681   0.384   1.941  13.713  0.7181  0.8969 -0.7105
19756TIP3   OH280682   5.571   6.366  13.282 -0.1687 -0.2207  0.1073
19756TIP3    H180683   5.493   6.316  13.308  1.3699 -2.9109 -0.0223
19756TIP3    H280684   5.599   6.325  13.200  0.1125  2.2317 -1.1058
19757TIP3   OH280685   2.172   5.139  11.507  0.1107  0.0870 -0.2572
19757TIP3    H180686   2.083   5.116  11.480  0.3888 -0.1001 -1.0350
19757TIP3    H280687   2.192   5.219  11.459  0.1335  0.4821  0.4034
19758TIP3   OH280688   2.079   5.898  14.270  0.0900 -0.7031 -0.0689
19758TIP3    H180689   2.098   5.989  14.294 -3.3046  0.0355  0.3886
19758TIP3    H280690   2.069   5.900  14.175 -0.5860 -0.4354  0.0025
19759TIP3   OH280691   0.939   2.289  13.188  0.5159 -0.0325 -0.4801
19759TIP3    H180692   0.904   2.251  13.269 -0.4208 -0.8439 -1.2494
19759TIP3    H280693   0.978   2.372  13.216 -1.4499  0.6157  0.5289
19760TIP3   OH280694   3.851   1.386  16.165 -0.1591 -0.2258  0.0569
19760TIP3    H180695   3.919   1.452  16.152 -0.2029 -0.0677  0.5890
19760TIP3    H280696   3.784   1.407  16.100 -1.1834  1.6099  1.6171
19761TIP3   OH280697   2.365   4.603   2.489  0.0344 -0.1524 -0.1072
19761TIP3    H180698   2.424   4.612   2.414 -0.3403 -2.2302 -0.7219
19761TIP3    H280699   2.417   4.555   2.555 -0.9133 -2.0808 -0.6896
19762TIP3   OH280700   1.591   0.528   0.836  0.2123 -0.1900  0.5174
19762TIP3    H180701   1.554   0.615   0.853 -1.9764 -0.9173 -0.1679
19762TIP3    H280702   1.678   0.546   0.800 -0.4799  1.7763 -0.3482
19763TIP3   OH280703   2.430   1.414  14.651  0.3236  0.1882 -0.6743
19763TIP3    H180704   2.513   1.450  14.681 -0.2456  1.6875 -0.8424
19763TIP3    H280705   2.438   1.319  14.666  1.0169  0.5742  1.8205
19764TIP3   OH280706   0.740   4.869   1.527 -0.2097 -0.1132  0.0978
19764TIP3    H180707   0.732   4.831   1.440  0.0096  1.6768 -0.7524
19764TIP3    H280708   0.767   4.796   1.583  2.2856 -0.7900 -1.8231
19765TIP3   OH280709   3.496   3.801   0.714 -0.2870 -0.2151 -0.5237
19765TIP3    H180710   3.574   3.778   0.663  0.2541  0.3567  0.0198
19765TIP3    H280711   3.455   3.718   0.735 -0.5565 -0.4570 -1.9499
19766TIP3   OH280712   0.162   1.602  11.453 -0.0514 -0.3083  0.2915
19766TIP3    H180713   0.118   1.648  11.524  0.8406 -1.0058  1.3269
19766TIP3    H280714   0.221   1.667  11.415  1.3237 -0.5707  1.8558
19767TIP3   OH280715   4.028   4.190  11.705 -0.6377 -0.0888 -0.0680
19767TIP3    H180716   3.970   4.191  11.781  2.8969  1.8513  2.9501
19767TIP3    H280717   4.018   4.277  11.666 -0.5124 -0.1061 -0.1410
19768TIP3   OH280718   5.832   3.297  14.603  0.3398 -0.5642 -0.0181
19768TIP3    H180719   5.806   3.344  14.524 -2.5328 -1.0960  0.4959
19768TIP3    H280720   5.901   3.351  14.642  0.5505  0.6256 -1.9251
19769TIP3   OH280721   5.191   0.842   3.305 -0.1816  0.0047 -0.1523
19769TIP3    H180722   5.159   0.815   3.219 -0.4241  0.9474 -0.3661
19769TIP3    H280723   5.135   0.794   3.367 -0.8318  0.2640 -0.5258
19770TIP3   OH280724   5.380   1.420  16.741  0.3661 -0.7473  0.0987
19770TIP3    H180725   5.381   1.471  16.660  1.2130 -0.7069  0.1255
19770TIP3    H280726   5.469   1.387  16.750  0.6169  0.2704  1.6560
19771TIP3   OH280727   3.110   2.769  16.143 -0.5649 -0.3834 -0.1546
19771TIP3    H180728   3.160   2.706  16.091 -0.9349 -1.4556  0.7396
19771TIP3    H280729   3.165   2.847  16.145 -0.1263 -0.6375 -1.3615
19772TIP3   OH280730   3.285   5.927  15.165  0.2823 -0.3463 -0.5943
19772TIP3    H180731   3.201   5.883  15.178 -0.4296  0.9947 -0.4918
19772TIP3    H280732   3.350   5.858  15.177 -0.6459 -0.8815  2.2084
19773TIP3   OH280733   4.973   2.467  12.721 -0.4785  0.1243 -0.1048
19773TIP3    H180734   4.956   2.514  12.802 -0.9844  1.6199 -1.0571
19773TIP3    H280735   5.027   2.526  12.669  1.5339 -1.5810 -0.1305
19774TIP3   OH280736   2.979   0.617   3.715  0.0726  0.3429 -0.4863
19774TIP3    H180737   2.896   0.621   3.668 -0.4395  0.0859  0.3603
19774TIP3    H280738   3.016   0.705   3.707 -0.4709  0.5718 -0.5488
19775TIP3   OH280739   1.176   3.195   2.308 -0.3472 -0.4434  0.3910
19775TIP3    H180740   1.151   3.271   2.256  2.1309  1.4780  1.7963
19775TIP3    H280741   1.126   3.205   2.389 -0.1168 -0.3853  0.5258
19776TIP3   OH280742   3.163   5.775  16.385  0.0898  0.5248 -0.4302
19776TIP3    H180743   3.078   5.783  16.342  0.1877  0.0396 -0.7133
19776TIP3    H280744   3.223   5.822  16.328  0.1388  0.2740 -0.5821
19777TIP3   OH280745   0.333   2.161   6.084 -0.6565 -0.3660 -0.0380
19777TIP3    H180746   0.360   2.247   6.115  1.0059  0.1036 -2.4825
19777TIP3    H280747   0.354   2.102   6.156 -0.3205  1.0582  1.0794
19778TIP3   OH280748   2.701   4.963  14.220  0.6550 -0.1359 -0.3276
19778TIP3    H180749   2.639   5.018  14.269  0.1037 -0.2438 -0.8838
19778TIP3    H280750   2.772   4.945  14.281 -0.7626 -1.5776  0.9641
19779TIP3   OH280751   5.233   2.034  15.928  0.3347 -0.4765 -0.0985
19779TIP3    H180752   5.321   2.071  15.935 -0.2680  0.9759  0.2464
19779TIP3    H280753   5.202   2.028  16.019 -0.2856 -0.0155 -0.2696
19780TIP3   OH280754   2.605   5.686  17.293 -0.1856 -0.0932 -0.1346
19780TIP3    H180755   2.655   5.605  17.300  0.5998  0.2870 -1.0512
19780TIP3    H280756   2.584   5.710  17.383 -0.9759 -1.6314  0.1175
19781TIP3   OH280757   6.288   6.179  11.136  0.0167  0.0467 -0.1411
19781TIP3    H180758   6.205   6.181  11.089 -0.0724  0.6297  0.0372
19781TIP3    H280759   6.349   6.229  11.082 -0.3368  1.5754  0.8082
19782TIP3   OH280760   5.523   3.332  12.004 -0.3914  0.1136 -0.2721
19782TIP3    H180761   5.473   3.392  12.059  0.8081  0.0050  1.0061
19782TIP3    H280762   5.575   3.389  11.947 -0.5577  0.2523 -0.2850
19783TIP3   OH280763   2.820   1.266   4.360  0.0999 -0.6221 -0.5094
19783TIP3    H180764   2.838   1.343   4.414  0.5248 -0.1286 -1.3204
19783TIP3    H280765   2.725   1.261   4.356  0.0381  0.6406 -1.4676
19784TIP3   OH280766   2.487   2.439   5.173 -0.7404  0.2885  0.4237
19784TIP3    H180767   2.510   2.347   5.163 -0.0636  0.5240 -0.3907
19784TIP3    H280768   2.552   2.473   5.235 -0.3525  0.4301 -0.0515
19785TIP3   OH280769   1.800   4.775   0.067 -0.1513  0.2031 -0.6844
19785TIP3    H180770   1.875   4.716   0.075  0.8177  1.1896 -1.9601
19785TIP3    H280771   1.839   4.858   0.040 -1.5897  1.1175 -0.0447
19786TIP3   OH280772   0.152   4.607   2.361 -0.0228  0.7576 -0.7685
19786TIP3    H180773   0.245   4.628   2.351  0.1833  0.5665  0.5485
19786TIP3    H280774   0.150   4.515   2.388 -0.5432  0.9373 -0.1512
19787TIP3   OH280775   4.395   4.820   6.083  0.0614 -0.2616 -0.3017
19787TIP3    H180776   4.341   4.765   6.140  0.3118 -0.5413 -0.3323
19787TIP3    H280777   4.400   4.904   6.130 -0.5088 -0.1852 -0.3661
19788TIP3   OH280778   3.748   2.369   2.922  0.3989 -0.6187  0.1023
19788TIP3    H180779   3.820   2.415   2.966 -0.5788 -0.1147  1.2566
19788TIP3    H280780   3.678   2.366   2.988  0.1960 -3.2455 -0.1302
19789TIP3   OH280781   0.752   1.263  15.480 -0.5310  0.1878  0.2741
19789TIP3    H180782   0.730   1.181  15.437 -0.0770 -0.3541  1.0335
19789TIP3    H280783   0.685   1.272  15.548  1.1050 -1.1672  2.2071
19790TIP3   OH280784   4.659   5.347  13.366  0.0954  0.1591 -0.3969
19790TIP3    H180785   4.717   5.272  13.379 -1.2187 -0.7516  0.4396
19790TIP3    H280786   4.595   5.341  13.436 -1.4603  0.7035 -1.6982
19791TIP3   OH280787   6.364   2.593  10.830  0.2312  0.1184  0.1023
19791TIP3    H180788   6.423   2.537  10.879  0.4371 -0.7368 -1.0642
19791TIP3    H280789   6.331   2.537  10.759 -1.3203  0.8154  0.2275
19792TIP3   OH280790   2.958   1.208  12.752  0.1182 -0.6116 -0.0732
19792TIP3    H180791   2.925   1.248  12.832  0.5544 -0.6114  0.1067
19792TIP3    H280792   2.888   1.149  12.725  0.1132 -0.8747  0.5007
19793TIP3   OH280793   0.265   1.952   2.968 -0.1885 -0.0533 -0.1691
19793TIP3    H180794   0.270   1.866   2.927 -1.4307  0.3098 -1.1386
19793TIP3    H280795   0.271   2.014   2.895  0.1762  0.6727  0.4624
19794TIP3   OH280796   2.158   4.388   3.500 -0.5284 -0.4010 -0.5535
19794TIP3    H180797   2.224   4.358   3.437  0.0829  0.0121 -0.1242
19794TIP3    H280798   2.089   4.427   3.446  0.5665  1.1017 -0.9281
19795TIP3   OH280799   2.809   3.781  16.666 -0.2338  0.3269  0.4384
19795TIP3    H180800   2.802   3.869  16.704 -2.3021 -0.3462  1.7533
19795TIP3    H280801   2.895   3.750  16.696  0.0660  1.4783  0.8637
19796TIP3   OH280802   0.299   4.249   1.049 -0.5453  0.1473  0.0982
19796TIP3    H180803   0.254   4.273   0.969  0.0839 -0.8894 -0.5834
19796TIP3    H280804   0.388   4.281   1.037  0.1920 -2.0261 -0.6418
19797TIP3   OH280805   6.394   5.174   1.112  0.3928  0.2201 -0.3155
19797TIP3    H180806   6.359   5.085   1.123  1.6792 -0.2265  0.4000
19797TIP3    H280807   6.320   5.225   1.080  0.2541 -1.6666 -3.4236
19798TIP3   OH280808   5.702   1.452  17.359 -0.4160  0.2451 -0.1268
19798TIP3    H180809   5.789   1.454  17.319 -0.0272 -0.7967  0.6218
19798TIP3    H280810   5.696   1.533  17.408 -0.1142  0.6141 -0.6897
19799TIP3   OH280811   2.091   0.283  12.431  0.3331  0.1424 -0.2567
19799TIP3    H180812   2.042   0.349  12.479 -2.7037 -1.7973 -0.4415
19799TIP3    H280813   2.061   0.292  12.341  0.4591 -0.9698 -0.4236
19800TIP3   OH280814   0.971   2.388   5.942  0.5705  0.2002  0.0352
19800TIP3    H180815   0.897   2.423   5.891  0.8815  0.4303 -0.2608
19800TIP3    H280816   1.005   2.463   5.990 -0.3260 -0.2024  1.3630
19801TIP3   OH280817   2.350   1.433  17.120  0.0121  0.5957  0.0759
19801TIP3    H180818   2.432   1.480  17.134  0.7474 -0.4787 -0.4475
19801TIP3    H280819   2.310   1.474  17.044  0.4480  0.6386 -0.1313
19802TIP3   OH280820   4.838   5.897   2.265  0.7352  0.2288 -0.0270
19802TIP3    H180821   4.850   5.936   2.178 -0.9462 -1.5577 -1.1278
19802TIP3    H280822   4.744   5.896   2.278  0.9752  0.5475  1.8872
19803TIP3   OH280823   1.480   5.853   5.573  0.1600  0.1330  0.2142
19803TIP3    H180824   1.396   5.807   5.575  0.1916  0.0828  0.3650
19803TIP3    H280825   1.462   5.936   5.617  0.0136  0.4142 -0.3637
19804TIP3   OH280826   3.945   5.255   3.146  0.6285 -0.0369 -0.2456
19804TIP3    H180827   3.999   5.196   3.200  0.3579 -1.3964 -1.4027
19804TIP3    H280828   3.878   5.287   3.206  1.8879  0.6287  0.8891
19805TIP3   OH280829   1.933   0.847  11.048 -0.0397  0.0801 -0.1423
19805TIP3    H180830   1.995   0.823  10.979 -1.9603 -1.5074 -1.4420
19805TIP3    H280831   1.867   0.899  11.002 -1.8196 -1.7351  0.2195
19806TIP3   OH280832   0.244   1.785   6.161  0.2484 -0.1661  0.1836
19806TIP3    H180833   0.321   1.842   6.165 -0.8026  1.4041 -0.9461
19806TIP3    H280834   0.277   1.703   6.125  1.6252  0.0278  0.9508
19807TIP3   OH280835   6.618   4.696  11.249 -0.3571  0.1919  0.0211
19807TIP3    H180836   6.615   4.696  11.154 -1.4650  1.6172  0.0028
19807TIP3    H280837   6.582   4.782  11.273 -0.4351 -0.2870  1.7237
19808TIP3   OH280838   3.846   1.276   4.988  0.0437  0.2398 -0.3464
19808TIP3    H180839   3.897   1.314   5.060  1.9741 -1.1776 -0.8596
19808TIP3    H280840   3.765   1.246   5.029  1.4074 -1.2461  1.4798
19809TIP3   OH280841   5.636   4.664  12.788  0.0608 -0.0587  0.0234
19809TIP3    H180842   5.568   4.601  12.810 -0.1904  0.2632  0.1883
19809TIP3    H280843   5.648   4.715  12.868  0.6433 -0.2426  0.0614
19810TIP3   OH280844   0.408   3.464   3.390 -0.4087  0.1740  0.0229
19810TIP3    H180845   0.319   3.447   3.422 -0.8004  1.3907 -0.3542
19810TIP3    H280846   0.401   3.454   3.295 -0.3745  1.1934 -0.0922
19811TIP3   OH280847   1.610   0.185  16.750 -0.6476  0.1029  0.1554
19811TIP3    H180848   1.615   0.154  16.660 -1.4374  1.2074 -0.2982
19811TIP3    H280849   1.700   0.202  16.775 -0.4211 -0.2386 -0.4221
19812TIP3   OH280850   5.162   4.629  13.343  0.3068  0.1678  0.1909
19812TIP3    H180851   5.094   4.580  13.297  0.1222  1.0668 -0.5224
19812TIP3    H280852   5.188   4.571  13.415 -2.2014  0.3693  1.3665
19813TIP3   OH280853   2.154   0.550  12.102  0.4546  0.2091  0.8992
19813TIP3    H180854   2.237   0.542  12.149  1.4435  2.8770 -0.2295
19813TIP3    H280855   2.173   0.607  12.028 -1.8626 -1.0251 -0.7770
19814TIP3   OH280856   6.691   0.390  12.930 -0.0896 -0.0739 -0.1060
19814TIP3    H180857   6.652   0.383  12.843 -0.9425 -1.1017  0.3301
19814TIP3    H280858   6.751   0.465  12.924 -0.7263  0.3659 -1.3386
19815TIP3   OH280859   3.486   3.091  12.572  0.0289 -0.1578  0.0425
19815TIP3    H180860   3.551   3.023  12.554 -1.3213 -1.5002  0.1188
19815TIP3    H280861   3.509   3.122  12.660  1.5873  0.6268 -0.5928
19816TIP3   OH280862   1.387   0.358   2.817  0.1761  0.1090 -0.0950
19816TIP3    H180863   1.327   0.348   2.891 -0.8141 -0.1022 -0.9040
19816TIP3    H280864   1.332   0.345   2.740  0.6600  2.6479 -0.9778
19817TIP3   OH280865   5.390   3.373   0.220  0.1052  0.1184  0.1515
19817TIP3    H180866   5.335   3.316   0.167 -0.0195  0.2488  0.1411
19817TIP3    H280867   5.374   3.461   0.185 -1.2177  0.4380  1.4530
19818TIP3   OH280868   3.355   1.130   4.109  0.0169  0.1239 -0.2206
19818TIP3    H180869   3.266   1.119   4.075  0.6726  1.9588 -2.8292
19818TIP3    H280870   3.411   1.097   4.039  1.4214  0.6135  0.6516
19819TIP3   OH280871   1.127   2.837  15.003  0.5134  0.5188  0.2587
19819TIP3    H180872   1.131   2.784  15.083  2.7971  1.2975  0.7246
19819TIP3    H280873   1.034   2.836  14.979  0.1485 -1.8772  1.4469
19820TIP3   OH280874   3.244   2.374   4.484  0.9151 -0.1769  0.5781
19820TIP3    H180875   3.219   2.302   4.426  2.3102 -0.7157  0.6099
19820TIP3    H280876   3.328   2.347   4.521  0.1718  0.2632  2.7015
19821TIP3   OH280877   5.615   2.974  17.034 -0.2503  0.5853  0.0081
19821TIP3    H180878   5.567   2.902  16.993  0.2271  0.0430  0.3937
19821TIP3    H280879   5.651   2.936  17.114 -0.6030  1.4446  0.5892
19822TIP3   OH280880   0.043   2.872   5.951  0.0826  0.2617  0.3656
19822TIP3    H180881   0.029   2.950   5.897 -0.5286  0.5297  0.8985
19822TIP3    H280882   0.075   2.906   6.034 -1.9336  0.1213  1.2565
19823TIP3   OH280883   6.054   5.498   3.130 -0.6812  0.2598  0.0900
19823TIP3    H180884   5.972   5.546   3.121 -0.8509  0.1026  0.8045
19823TIP3    H280885   6.028   5.407   3.142 -0.3496 -0.2399 -2.3979
19824TIP3   OH280886   2.459   5.499   5.247  0.0771  0.2418 -0.7468
19824TIP3    H180887   2.447   5.432   5.315  0.6720  2.2998  1.5508
19824TIP3    H280888   2.464   5.582   5.296 -0.7779  2.0133 -3.4491
19825TIP3   OH280889   4.172   3.818  14.865  0.5881  0.4019  0.0800
19825TIP3    H180890   4.096   3.876  14.874  1.5833  1.7916 -0.0456
19825TIP3    H280891   4.223   3.832  14.945  1.1001  0.0741 -0.1826
19826TIP3   OH280892   4.070   5.780   0.439  0.0690  0.3079  0.0972
19826TIP3    H180893   4.037   5.849   0.383 -0.9850 -1.2785 -1.3160
19826TIP3    H280894   4.096   5.710   0.379  4.6904  0.7991  1.1670
19827TIP3   OH280895   2.741   5.585   3.943  0.6463  0.1520  0.4032
19827TIP3    H180896   2.697   5.512   3.986  1.6598 -0.2454  0.7892
19827TIP3    H280897   2.803   5.618   4.008 -0.0273  1.5912  0.3603
19828TIP3   OH280898   6.690   0.346  14.414  0.3104  0.0933  0.3677
19828TIP3    H180899   6.639   0.417  14.455  1.4541 -0.1777  2.3914
19828TIP3    H280900   6.656   0.266  14.454 -0.5455 -0.5179 -1.4568
19829TIP3   OH280901   2.916   3.230  14.266  0.3314  0.2779 -0.2132
19829TIP3    H180902   2.943   3.209  14.356  3.4309 -1.8505 -1.4419
19829TIP3    H280903   2.956   3.315  14.248  1.7581 -0.3582 -0.2314
19830TIP3   OH280904   6.505   3.777  13.908 -0.2137 -0.3247 -0.0089
19830TIP3    H180905   6.543   3.852  13.951 -4.8238  2.4003 -0.0106
19830TIP3    H280906   6.562   3.760  13.833  1.5939  2.5064  0.5941
19831TIP3   OH280907   3.292   5.372   3.387  0.1595 -0.3572  0.3132
19831TIP3    H180908   3.247   5.288   3.376 -0.9573  0.1974  0.4820
19831TIP3    H280909   3.347   5.359   3.464  0.2858 -1.0600  0.1097
19832TIP3   OH280910   4.827   2.805   1.130  0.5209  0.1297  0.0045
19832TIP3    H180911   4.893   2.773   1.191  0.7925  1.4979  0.4681
19832TIP3    H280912   4.874   2.815   1.047  1.0024  1.3553  0.3985
19833TIP3   OH280913   5.990   1.119  15.825  0.6428 -0.3490 -0.3389
19833TIP3    H180914   6.051   1.181  15.784  0.7227  0.1524  0.5191
19833TIP3    H280915   5.905   1.140  15.786  0.6248  0.4767  0.1287
19834TIP3   OH280916   6.425   4.280  15.046  0.4781  0.4612 -0.2754
19834TIP3    H180917   6.450   4.339  14.974 -0.3303  0.9991 -0.1246
19834TIP3    H280918   6.329   4.280  15.045  0.4630 -0.6420 -0.0937
19835TIP3   OH280919   5.123   0.522  14.327  0.2907  0.0922  0.0753
19835TIP3    H180920   5.215   0.525  14.303  0.2992 -2.5312 -0.5343
19835TIP3    H280921   5.076   0.532  14.244  0.0683  0.0401  0.1935
19836TIP3   OH280922   1.425   5.951  14.772  0.2066  0.6441  0.2351
19836TIP3    H180923   1.382   6.034  14.750 -1.2796 -0.2558 -0.4486
19836TIP3    H280924   1.449   5.960  14.864  1.3979  2.3562 -0.1947
19837TIP3   OH280925   1.110   4.818  10.535  1.0467 -0.0800  0.0675
19837TIP3    H180926   1.049   4.750  10.506  0.6165  0.5896 -0.6141
19837TIP3    H280927   1.195   4.774  10.538  1.0130 -0.3079 -1.6960
19838TIP3   OH280928   5.758   5.845  17.326  0.0969  0.4456 -0.2516
19838TIP3    H180929   5.686   5.857  17.388 -0.1411 -1.2868 -0.1509
19838TIP3    H280930   5.830   5.811  17.379  0.3319  0.2422 -0.6982
19839TIP3   OH280931   0.573   5.106   5.383  0.0494  0.4867 -0.5779
19839TIP3    H180932   0.549   5.122   5.292  1.4239 -0.7040 -1.2090
19839TIP3    H280933   0.669   5.109   5.383  0.2531 -2.6399  0.1182
19840TIP3   OH280934   4.278   3.280  15.478 -0.3536 -0.1468  0.8159
19840TIP3    H180935   4.363   3.249  15.449 -0.0695  0.2047  1.2475
19840TIP3    H280936   4.293   3.373  15.499 -1.0005  0.0924  0.2521
19841TIP3   OH280937   5.995   6.097   1.027  0.4272 -0.1758 -0.1084
19841TIP3    H180938   6.063   6.040   1.063 -1.3432 -1.6698  1.0548
19841TIP3    H280939   5.927   6.037   0.995 -0.5333  1.2510 -0.8745
19842TIP3   OH280940   4.759   4.870  13.936 -0.3483 -0.0284 -0.4432
19842TIP3    H180941   4.835   4.921  13.964 -1.4847  1.1055  0.7146
19842TIP3    H280942   4.711   4.853  14.018 -1.3064 -0.7689 -1.1398
19843TIP3   OH280943   0.458   1.760  13.255 -0.2548 -0.0296 -0.0053
19843TIP3    H180944   0.534   1.806  13.291 -0.3439  2.9616 -3.1009
19843TIP3    H280945   0.384   1.795  13.306 -0.0119  0.9760 -0.3176
19844TIP3   OH280946   3.042   5.194  11.202 -0.4863 -0.5613 -0.4904
19844TIP3    H180947   2.953   5.191  11.239  0.2584 -1.4134  1.3859
19844TIP3    H280948   3.047   5.278  11.158 -1.8279  0.0529  0.4551
19845TIP3   OH280949   0.944   2.739   4.261 -0.4016 -0.4609  0.3750
19845TIP3    H180950   1.009   2.730   4.331  0.7546 -1.4143 -0.7568
19845TIP3    H280951   0.979   2.808   4.205 -0.2584 -1.0918 -0.3294
19846TIP3   OH280952   5.415   4.749  15.786  0.2390  0.0560  0.1039
19846TIP3    H180953   5.499   4.724  15.826  0.8414 -0.3977 -1.3708
19846TIP3    H280954   5.364   4.668  15.785  0.3558 -0.0186 -0.3067
19847TIP3   OH280955   1.558   6.581   4.058  0.0302  0.3079  0.2358
19847TIP3    H180956   1.636   6.536   4.025  0.9022  1.3272  0.8517
19847TIP3    H280957   1.558   6.666   4.013 -2.2435 -0.6421 -1.8152
19848TIP3   OH280958   4.273   4.546   5.444  0.1038  0.1667 -0.2149
19848TIP3    H180959   4.276   4.529   5.538  0.7682  2.2342  0.1957
19848TIP3    H280960   4.232   4.468   5.406  0.9168 -1.2084  1.6349
19849TIP3   OH280961   1.899   0.568   3.404 -0.0220  0.0321  0.1637
19849TIP3    H180962   1.838   0.496   3.385  0.3229  0.0658 -1.1915
19849TIP3    H280963   1.857   0.617   3.475 -1.0958 -0.5174 -0.0678
19850TIP3   OH280964   2.723   4.449   1.512 -0.4886  0.2304  0.1494
19850TIP3    H180965   2.688   4.361   1.520 -0.2731  0.0902 -0.3560
19850TIP3    H280966   2.763   4.451   1.425 -0.9740  0.9985 -0.0682
19851TIP3   OH280967   4.000   5.731  11.734 -0.3638 -0.3278  0.2878
19851TIP3    H180968   4.075   5.728  11.793 -0.5388 -0.8599  0.4832
19851TIP3    H280969   3.924   5.722  11.791 -0.5591 -0.2367  0.0441
19852TIP3   OH280970   4.053   2.979  16.139 -0.3061  0.7662  0.1076
19852TIP3    H180971   4.090   3.013  16.221  2.0932 -1.4026  0.0387
19852TIP3    H280972   4.091   3.036  16.071  0.8677  0.1883  0.2506
19853TIP3   OH280973   5.149   6.020   0.405  0.0435  0.1491  0.5942
19853TIP3    H180974   5.239   6.050   0.412  0.4908 -0.7637 -0.9139
19853TIP3    H280975   5.119   6.053   0.320 -0.5725 -0.7235  0.4591
19854TIP3   OH280976   0.805   4.744   5.212 -0.3447  0.0901 -0.0370
19854TIP3    H180977   0.867   4.684   5.255 -1.4543 -0.6516  0.5829
19854TIP3    H280978   0.729   4.745   5.271 -0.2193  2.4088  0.1516
19855TIP3   OH280979   5.390   0.382   0.017 -0.5796  0.1134 -0.5051
19855TIP3    H180980   5.347   0.450   0.068  2.0642  1.2030  0.4844
19855TIP3    H280981   5.387   0.413  -0.073 -3.3603 -0.7547 -0.7872
19856TIP3   OH280982   5.448   1.853  12.759 -1.0735  0.0641 -0.1625
19856TIP3    H180983   5.422   1.812  12.677 -1.8482  1.3429 -0.5790
19856TIP3    H280984   5.523   1.908  12.736  0.7970 -1.9616  0.6302
19857TIP3   OH280985   0.769   3.473   3.196  0.1395 -0.1691 -0.4818
19857TIP3    H180986   0.716   3.397   3.219  1.1229 -0.6957  0.0916
19857TIP3    H280987   0.762   3.531   3.271 -0.7665  0.4314 -0.9955
19858TIP3   OH280988   1.804   4.844  14.677 -0.3564  0.3425  0.3228
19858TIP3    H180989   1.852   4.814  14.600 -1.1418  1.1320 -0.4966
19858TIP3    H280990   1.837   4.932  14.693  1.1990 -0.4966  2.0919
19859TIP3   OH280991   4.936   4.554   5.069  0.1795  0.2405 -0.2380
19859TIP3    H180992   4.854   4.598   5.045  0.0212 -0.8230 -1.8495
19859TIP3    H280993   4.941   4.563   5.164 -2.1193 -0.1377 -0.0027
19860TIP3   OH280994   3.301   3.785   3.441 -0.0453  0.3309  0.6270
19860TIP3    H180995   3.392   3.761   3.459 -0.5607 -0.9094  1.7535
19860TIP3    H280996   3.275   3.726   3.370 -0.8350 -1.5070  2.3396
19861TIP3   OH280997   4.064   6.678   0.454  0.0836 -0.2716  0.3485
19861TIP3    H180998   4.160   6.671   0.447  0.0215 -0.3125 -0.6924
19861TIP3    H280999   4.042   6.749   0.394 -0.5820 -0.6039  0.1952
19862TIP3   OH281000   5.576   4.340  16.361 -0.0880  0.0095 -0.0095
19862TIP3    H181001   5.633   4.349  16.284 -0.3453  0.4958 -0.1520
19862TIP3    H281002   5.496   4.299  16.327 -0.3958  0.6733 -0.1068
19863TIP3   OH281003   5.196   0.968   1.698  0.4246 -0.1550 -0.1367
19863TIP3    H181004   5.264   1.003   1.641 -0.2617 -2.0640 -2.2533
19863TIP3    H281005   5.126   1.033   1.694  1.2248  0.7643  0.3122
19864TIP3   OH281006   0.336   2.163  13.508  0.0105 -0.3784 -0.5622
19864TIP3    H181007   0.292   2.180  13.424 -1.1351  0.6210  0.2225
19864TIP3    H281008   0.401   2.233  13.515 -0.6731  0.2177 -0.0942
19865TIP3   OH281009   5.694   5.488  11.634  0.4776 -0.2969 -0.0759
19865TIP3    H181010   5.628   5.432  11.674  1.8021 -1.3547  0.7486
19865TIP3    H281011   5.665   5.500  11.544  0.0499 -2.2021 -0.2378
19866TIP3   OH281012   3.965   2.028   3.207 -0.1423 -0.1218  0.4753
19866TIP3    H181013   4.001   1.985   3.285 -0.3129  0.4650  0.8877
19866TIP3    H281014   3.946   2.117   3.236 -1.2807 -0.2231  0.0801
19867TIP3   OH281015   0.919   0.667  12.302 -0.1368 -0.0616 -0.0661
19867TIP3    H181016   1.008   0.637  12.286  0.0664  1.1344 -1.3131
19867TIP3    H281017   0.929   0.748  12.352 -0.5229  0.0246 -0.1230
19868TIP3   OH281018   1.503   5.406  17.284 -0.1749  0.2624  0.5025
19868TIP3    H181019   1.597   5.390  17.279 -0.4468 -3.0444  2.7002
19868TIP3    H281020   1.494   5.472  17.353  0.4949 -1.2279  2.0769
19869TIP3   OH281021   6.482   0.135  10.871  0.6150 -0.1154 -0.3465
19869TIP3    H181022   6.498   0.049  10.910  0.4219 -0.8329 -1.7986
19869TIP3    H281023   6.569   0.167  10.847  0.7957  0.5800  1.1179
19870TIP3   OH281024   1.508   1.759  16.516  0.2614  0.3588 -0.0946
19870TIP3    H181025   1.452   1.697  16.562 -0.6641  0.5466 -0.9371
19870TIP3    H281026   1.581   1.774  16.576 -1.3150  1.2646  1.7262
19871TIP3   OH281027   0.947   0.689  13.263 -1.0648  0.0977  0.0202
19871TIP3    H181028   0.999   0.699  13.343  1.4664  3.1605 -1.7806
19871TIP3    H281029   1.008   0.651  13.200 -1.3266  2.4509 -1.7699
19872TIP3   OH281030   5.733   2.135  16.868 -0.3140 -0.1438 -0.1318
19872TIP3    H181031   5.761   2.113  16.956  1.5114 -0.2221 -0.6982
19872TIP3    H281032   5.692   2.221  16.876  0.6294  0.2411  0.6550
19873TIP3   OH281033   4.241   0.023   3.074 -0.3175 -0.1919 -0.0983
19873TIP3    H181034   4.268  -0.067   3.053 -0.5171 -0.2375 -0.1676
19873TIP3    H281035   4.182   0.013   3.149  2.2168  0.1702  2.0961
19874TIP3   OH281036   5.528   1.507   3.460  0.0994 -0.8259  0.2021
19874TIP3    H181037   5.441   1.498   3.499 -0.2687 -0.2583 -0.4814
19874TIP3    H281038   5.512   1.518   3.366  1.0145 -3.2644 -0.3180
19875TIP3   OH281039   0.578   5.073   5.109 -0.6579 -0.1821  0.3414
19875TIP3    H181040   0.657   5.061   5.057 -0.6193  0.5498  0.2109
19875TIP3    H281041   0.528   4.993   5.096  0.3612 -0.9429  0.9736
19876TIP3   OH281042   4.251   3.344   6.950 -0.0696  0.2744  0.2014
19876TIP3    H181043   4.259   3.428   6.994  0.0792  1.2483 -1.5981
19876TIP3    H281044   4.159   3.320   6.960 -0.3178  1.1036 -0.0694
19877TIP3   OH281045   2.563   3.616   4.446  0.1657  0.1094 -0.1604
19877TIP3    H181046   2.559   3.594   4.353  1.1670  1.6193 -0.5972
19877TIP3    H281047   2.540   3.535   4.491  1.3550 -1.1361 -1.6970
19878TIP3   OH281048   5.491   2.660  17.210 -0.3014 -0.7156 -0.3086
19878TIP3    H181049   5.561   2.724  17.199 -1.6275  0.5839 -1.3952
19878TIP3    H281050   5.537   2.575  17.210  1.3924  0.1506  0.3877
19879TIP3   OH281051   1.634   0.967   3.659  0.2264  0.1999 -0.4861
19879TIP3    H181052   1.662   1.055   3.636 -2.4188  0.8170 -1.7363
19879TIP3    H281053   1.547   0.978   3.697  0.9845 -1.6595  2.0267
19880TIP3   OH281054   0.762   6.493  15.976  0.4705 -0.0423 -0.3983
19880TIP3    H181055   0.770   6.492  15.880 -2.1984  2.1603 -0.7893
19880TIP3    H281056   0.705   6.418  15.995 -1.2254  1.0379 -0.9403
19881TIP3   OH281057   3.498   0.144  15.566  0.1276 -0.3239  0.7001
19881TIP3    H181058   3.404   0.153  15.582 -0.1483  1.2430 -1.3794
19881TIP3    H281059   3.509   0.053  15.540 -0.9441 -0.3401  0.2538
19882TIP3   OH281060   5.994   0.676  12.012  0.1560  0.4057 -0.1098
19882TIP3    H181061   6.065   0.740  12.012 -0.8415  1.5526  1.4037
19882TIP3    H281062   5.937   0.702  12.084 -0.7334 -1.7007  0.0240
19883TIP3   OH281063   4.786   2.313   5.450  0.9580 -0.1614 -0.2244
19883TIP3    H181064   4.824   2.238   5.496  0.0077 -0.1558  0.6239
19883TIP3    H281065   4.850   2.336   5.383  2.6777  0.1620  1.4555
19884TIP3   OH281066   2.235   4.712   4.289  0.4629  0.0344  0.3114
19884TIP3    H181067   2.285   4.695   4.368  1.0262 -1.8039 -0.3763
19884TIP3    H281068   2.158   4.656   4.296  0.3441  0.1108 -0.2679
19885TIP3   OH281069   3.595   3.289  13.071 -0.0872  0.4998  0.3683
19885TIP3    H181070   3.560   3.216  13.121  1.7800 -0.7949 -0.0971
19885TIP3    H281071   3.690   3.275  13.072  0.3600  3.0999  0.5161
19886TIP3   OH281072   0.937   2.730  10.840 -0.2736  0.3172  0.0793
19886TIP3    H181073   1.026   2.722  10.876 -0.6094  0.5283  0.9855
19886TIP3    H281074   0.947   2.708  10.748  0.8689  1.1342 -0.0160
19887TIP3   OH281075   3.358   5.575   4.928 -0.6566 -0.8770 -0.3721
19887TIP3    H181076   3.356   5.522   4.849 -1.7308  2.1392 -2.5689
19887TIP3    H281077   3.293   5.644   4.912  2.3095  2.5757  1.0672
19888TIP3   OH281078   0.872   2.474  11.435  0.3436 -0.0540  0.3757
19888TIP3    H181079   0.869   2.484  11.530 -1.6083 -2.5493  0.7116
19888TIP3    H281080   0.825   2.550  11.401 -1.3369 -0.4571  1.6428
19889TIP3   OH281081   0.572   4.195  13.361  0.5720 -0.0985 -0.1916
19889TIP3    H181082   0.666   4.207  13.378  0.4074 -1.1489  1.7886
19889TIP3    H281083   0.535   4.283  13.370  1.4111  0.4041 -1.4578
19890TIP3   OH281084   3.990   4.828  17.149 -0.4342  0.3100  0.5256
19890TIP3    H181085   4.042   4.750  17.129 -0.8790  0.2235 -0.3235
19890TIP3    H281086   3.908   4.794  17.185 -1.6761  0.2177 -2.1402
19891TIP3   OH281087   4.416   2.043   5.101  0.0861 -0.3211  0.1545
19891TIP3    H181088   4.413   2.107   5.172 -1.3905 -0.2870  0.0906
19891TIP3    H281089   4.459   2.089   5.029 -3.4594  1.7511 -0.8979
19892TIP3   OH281090   3.474   3.627  16.362 -0.0313 -0.0239 -0.0993
19892TIP3    H181091   3.561   3.631  16.323  0.2786  0.2162  0.6119
19892TIP3    H281092   3.488   3.642  16.455 -0.8148 -0.1523  0.0489
19893TIP3   OH281093   4.736   3.571  14.629  0.0051 -0.2814  0.2918
19893TIP3    H181094   4.792   3.648  14.630 -1.1454  0.5617  1.5408
19893TIP3    H281095   4.757   3.524  14.710  0.2322 -0.9476 -0.1423
19894TIP3   OH281096   4.365   6.575  14.543  0.9552  0.2760  0.0512
19894TIP3    H181097   4.447   6.607  14.506  0.6684  0.5587 -0.3440
19894TIP3    H281098   4.310   6.653  14.552  0.2519 -0.0878 -0.9226
19895TIP3   OH281099   6.128   3.168  11.266 -0.2539 -0.3125  1.3085
19895TIP3    H181100   6.196   3.214  11.314  1.3825 -0.3717 -0.7794
19895TIP3    H281101   6.166   3.081  11.250  0.5714  0.5608 -2.3818
19896TIP3   OH281102   5.430   4.788  13.642  0.3437  0.5666 -0.3044
19896TIP3    H181103   5.441   4.777  13.548 -0.9736 -2.5382 -0.1995
19896TIP3    H281104   5.519   4.802  13.675  1.2919 -1.6024 -1.7071
19897TIP3   OH281105   5.909   2.822   1.823  0.0610  0.4678 -0.4710
19897TIP3    H181106   6.003   2.804   1.831  0.3789  2.2513  0.4685
19897TIP3    H281107   5.868   2.766   1.889  0.7037  1.1219  0.5135
19898TIP3   OH281108   2.986   2.692  14.717  0.2308 -0.4177 -0.6351
19898TIP3    H181109   2.953   2.683  14.627 -0.2481 -1.1098 -0.3928
19898TIP3    H281110   2.954   2.778  14.745 -1.7849 -1.2526 -0.2481
19899TIP3   OH281111   5.470   1.803  17.362  0.5534  0.0178  0.0189
19899TIP3    H181112   5.532   1.876  17.367  1.9279 -1.1293  0.6860
19899TIP3    H281113   5.516   1.730  17.405 -1.7641 -0.5743  1.7033
19900TIP3   OH281114   0.768   0.464  13.243  0.3408 -0.1095  0.2906
19900TIP3    H181115   0.802   0.539  13.291 -0.8404  0.8596 -0.3244
19900TIP3    H281116   0.835   0.446  13.176  0.5763  0.4669  0.3654
19901TIP3   OH281117   1.545   4.752   5.429 -0.0768  0.1693  0.5416
19901TIP3    H181118   1.539   4.795   5.514  0.9357 -1.7179  1.6134
19901TIP3    H281119   1.624   4.788   5.389  0.7090 -0.5778  1.3860
19902TIP3   OH281120   2.871   1.533  14.875 -0.0729 -0.0494 -0.1801
19902TIP3    H181121   2.871   1.623  14.841 -2.3473  0.0095 -0.1959
19902TIP3    H281122   2.884   1.543  14.970  1.1711  0.1495 -0.3517
19903TIP3   OH281123   1.398   1.444  14.577  0.2060 -0.3197 -0.0345
19903TIP3    H181124   1.369   1.363  14.537 -0.6498  0.2220 -0.5432
19903TIP3    H281125   1.435   1.495  14.505 -0.8024  0.4190 -0.0450
19904TIP3   OH281126   6.743   4.449  17.181  0.0130 -0.3588 -0.3720
19904TIP3    H181127   6.748   4.530  17.232 -0.8556 -0.3434 -0.2935
19904TIP3    H281128   6.807   4.461  17.111  0.3577  0.1213  0.0155
19905TIP3   OH281129   0.623   3.246   3.108  0.0361  0.2106  0.0511
19905TIP3    H181130   0.678   3.209   3.040 -2.0685  0.0486 -1.6609
19905TIP3    H281131   0.665   3.219   3.190  1.2603 -1.7735 -1.1504
19906TIP3   OH281132   1.150   5.964   3.454 -0.2700  0.0554  0.1775
19906TIP3    H181133   1.185   5.969   3.543  0.3509 -0.0745 -0.0548
19906TIP3    H281134   1.186   5.882   3.419 -1.6377 -0.6206  0.2800
19907TIP3   OH281135   4.384   2.031  11.761 -0.4877  0.1654 -0.2788
19907TIP3    H181136   4.291   2.049  11.746  0.0236  3.2805 -0.3658
19907TIP3    H281137   4.397   2.045  11.854 -0.2173 -0.9525 -0.1391
19908TIP3   OH281138   3.597   6.624  14.625  0.0401  0.0712  0.1955
19908TIP3    H181139   3.504   6.641  14.609  0.1953  2.5989  1.4954
19908TIP3    H281140   3.598   6.563  14.698 -0.6667  1.7162  1.6407
19909TIP3   OH281141   4.161   6.286   1.888  0.2258  0.4520  0.2407
19909TIP3    H181142   4.255   6.297   1.877  0.1416  0.3556 -0.7041
19909TIP3    H281143   4.138   6.216   1.827 -0.6627  1.4577 -0.6364
19910TIP3   OH281144   2.739   4.885  14.819 -0.4501  0.0807 -0.5583
19910TIP3    H181145   2.707   4.796  14.831 -1.6414  0.4488 -0.8757
19910TIP3    H281146   2.698   4.915  14.738  1.0160  0.4576 -1.1867
19911TIP3   OH281147   0.145   3.500   3.515 -0.1062  0.2088  0.4269
19911TIP3    H181148   0.073   3.444   3.545  0.7116 -2.1025 -1.5931
19911TIP3    H281149   0.116   3.533   3.430  1.5178 -1.6043 -0.9129
19912TIP3   OH281150   1.974   2.877  16.751 -0.1543  0.2397 -0.2203
19912TIP3    H181151   2.056   2.880  16.702 -0.3818 -0.1774 -0.6397
19912TIP3    H281152   1.914   2.931  16.701 -0.4010 -0.2248 -0.4350
19913TIP3   OH281153   4.759   5.165  12.668 -0.3775 -0.2592  0.4762
19913TIP3    H181154   4.704   5.244  12.667  2.6156  1.9929 -0.7531
19913TIP3    H281155   4.765   5.140  12.576  0.9599 -0.1688  0.5196
19914TIP3   OH281156   1.500   3.324  12.851 -0.5175  0.0145 -0.3139
19914TIP3    H181157   1.431   3.258  12.847 -0.3338 -0.1376 -1.1202
19914TIP3    H281158   1.453   3.407  12.856 -0.7764 -0.0708 -1.1014
19915TIP3   OH281159   2.584   4.565  11.448  0.3840 -0.0790 -0.0093
19915TIP3    H181160   2.513   4.508  11.420 -0.3162 -0.0615  1.6328
19915TIP3    H281161   2.543   4.650  11.461  0.8197  0.0631  0.4396
19916TIP3   OH281162   2.531   1.376   5.964 -0.8962  0.4506  0.3189
19916TIP3    H181163   2.562   1.331   5.886 -1.4264  0.6715 -0.0258
19916TIP3    H281164   2.610   1.393   6.015 -0.5168  0.5322 -0.2855
19917TIP3   OH281165   6.547   2.529  15.111  0.2440  0.4564  0.6354
19917TIP3    H181166   6.605   2.465  15.155 -1.2562  0.1835  2.3406
19917TIP3    H281167   6.466   2.526  15.162 -0.8380  1.7505 -0.9288
19918TIP3   OH281168   1.070   5.814  13.831 -0.6177  0.1278  0.4667
19918TIP3    H181169   1.063   5.812  13.927 -2.7383 -1.4590  0.3403
19918TIP3    H281170   0.990   5.857  13.802 -0.7822 -0.8613 -0.6304
19919TIP3   OH281171   5.862   3.714  14.102 -0.4023 -0.3597 -0.1768
19919TIP3    H181172   5.948   3.732  14.142  0.4823 -1.4702 -1.5040
19919TIP3    H281173   5.809   3.790  14.126  1.3806  1.0779 -0.5523
19920TIP3   OH281174   5.626   5.571   2.811  0.0206  0.4450 -0.3453
19920TIP3    H181175   5.656   5.661   2.796 -0.1875  0.6078  0.2026
19920TIP3    H281176   5.537   5.581   2.844  0.6024  0.1259  1.4107
19921TIP3   OH281177   1.510   4.108  16.186 -0.1126  0.1135 -0.2038
19921TIP3    H181178   1.453   4.150  16.121  1.0593  0.8796 -0.7827
19921TIP3    H281179   1.453   4.088  16.259 -1.5361 -1.0001 -1.5611
19922TIP3   OH281180   4.420   4.095  14.899  0.0917  0.4031  0.1616
19922TIP3    H181181   4.391   4.005  14.888 -0.9997  0.8405 -0.8144
19922TIP3    H281182   4.341   4.143  14.926  0.3557  1.2626 -0.5228
19923TIP3   OH281183   3.189   6.581  16.725 -0.3800  0.3110  0.0277
19923TIP3    H181184   3.146   6.557  16.642 -1.0016 -0.2767  0.5076
19923TIP3    H281185   3.280   6.599  16.700 -0.4281 -0.3739 -0.7055
19924TIP3   OH281186   0.032   1.853   4.943  0.3844 -0.0648  0.0225
19924TIP3    H181187   0.015   1.864   5.037  1.1490  0.1954  0.1337
19924TIP3    H281188   0.028   1.758   4.930  0.0884 -0.0903  0.2807
19925TIP3   OH281189   0.364   0.047   4.339  0.2876  0.2424  0.0419
19925TIP3    H181190   0.423   0.121   4.325 -0.8422  1.3507  0.9221
19925TIP3    H281191   0.422  -0.027   4.358  1.4171  1.5484  2.0319
19926TIP3   OH281192   1.774   1.175   2.186 -0.0486 -0.4243 -0.4473
19926TIP3    H181193   1.850   1.210   2.140 -0.8070 -0.2198 -1.5898
19926TIP3    H281194   1.786   1.080   2.184 -0.4714 -0.4737 -1.8424
19927TIP3   OH281195   2.788   6.394   0.228  0.4352 -0.7948  0.3584
19927TIP3    H181196   2.781   6.434   0.141  1.3016 -1.1187  0.1309
19927TIP3    H281197   2.762   6.302   0.214  1.4083 -1.0686  0.2497
19928TIP3   OH281198   5.286   3.075  14.274 -0.3409 -0.2078 -0.0306
19928TIP3    H181199   5.249   3.036  14.354 -0.1690  1.1986  0.7631
19928TIP3    H281200   5.220   3.059  14.207 -0.2217 -1.9534  0.2198
19929TIP3   OH281201   0.264   2.387  11.756 -0.3920 -0.3291 -0.0788
19929TIP3    H181202   0.171   2.395  11.778 -0.1558  0.7219  0.6511
19929TIP3    H281203   0.288   2.474  11.724 -0.0852 -1.1004 -2.0929
19930TIP3   OH281204   2.134   0.550   1.443 -0.1729 -0.5518 -0.8632
19930TIP3    H181205   2.221   0.586   1.462 -0.1010 -1.6725  1.2244
19930TIP3    H281206   2.151   0.459   1.418 -0.7311 -0.7805 -0.4361
19931TIP3   OH281207   5.558   4.100  11.798  0.6740 -0.2337  0.1271
19931TIP3    H181208   5.560   4.147  11.715  0.5766  0.8429  0.7059
19931TIP3    H281209   5.498   4.027  11.784  1.3555 -0.5958 -1.0073
19932TIP3   OH281210   0.175   5.398   4.829  0.0720 -0.6302 -0.2002
19932TIP3    H181211   0.164   5.426   4.739 -0.9561  0.3199  0.1970
19932TIP3    H281212   0.160   5.303   4.827  2.7438 -1.1089 -1.4181
19933TIP3   OH281213   1.559   0.732  13.596  0.3595 -0.2884  0.4767
19933TIP3    H181214   1.471   0.696  13.609 -0.5871  1.8945  0.5277
19933TIP3    H281215   1.617   0.669  13.639 -1.1796 -1.6591  0.6615
19934TIP3   OH281216   3.255   5.002   5.787 -0.3644 -0.1903  0.2447
19934TIP3    H181217   3.160   4.989   5.788 -0.7290  1.3855 -2.5221
19934TIP3    H281218   3.291   4.917   5.761 -1.1924 -0.3521 -0.4155
19935TIP3   OH281219   6.192   4.911   0.021 -0.7817 -0.6050 -0.3176
19935TIP3    H181220   6.235   4.833   0.057  0.9341  0.8921  1.0392
19935TIP3    H281221   6.104   4.909   0.058 -0.2595 -1.1149  0.9374
19936TIP3   OH281222   6.029   0.094  14.369 -0.0519 -0.6734  0.8700
19936TIP3    H181223   5.986   0.135  14.444 -1.2913  0.1909 -0.2643
19936TIP3    H281224   6.101   0.154  14.347 -0.3172 -0.3927  0.7554
19937TIP3   OH281225   5.214   6.419   4.442 -0.3548  0.0691  0.1136
19937TIP3    H181226   5.173   6.497   4.481 -1.1728  1.2067 -2.7296
19937TIP3    H281227   5.144   6.353   4.441 -1.0676  0.7785 -1.3049
19938TIP3   OH281228   2.975   2.727   2.515  1.0639  0.5863 -0.2040
19938TIP3    H181229   2.886   2.760   2.528  1.2062  0.5409  0.9861
19938TIP3    H281230   3.025   2.804   2.485  0.7765  0.7830 -0.1785
19939TIP3   OH281231   1.314   4.965  11.599 -0.2292 -0.0427  0.2480
19939TIP3    H181232   1.319   5.042  11.656  0.1549 -0.2094  0.4406
19939TIP3    H281233   1.333   4.891  11.657 -0.0256 -0.2314 -0.0577
19940TIP3   OH281234   1.491   5.273   4.164  0.1519 -0.1892 -0.0155
19940TIP3    H181235   1.526   5.197   4.118 -0.7919 -1.6805  1.6029
19940TIP3    H281236   1.549   5.282   4.240  0.0438  0.5131 -0.0136
19941TIP3   OH281237   0.017   5.176  14.184  0.0185 -0.1148  0.3204
19941TIP3    H181238  -0.061   5.228  14.166  0.5931  0.2775 -1.1896
19941TIP3    H281239   0.020   5.111  14.114  0.7797 -0.4298  0.6275
19942TIP3   OH281240   5.046   3.847   1.446 -0.3697 -0.3292  0.0899
19942TIP3    H181241   5.065   3.816   1.534  1.3762  0.7234  0.1211
19942TIP3    H281242   4.950   3.853   1.443 -0.4439  0.3652  2.1914
19943TIP3   OH281243   5.167   3.442  13.656 -0.4167  0.2600  0.2426
19943TIP3    H181244   5.120   3.518  13.691 -1.5148 -0.8172  1.1802
19943TIP3    H281245   5.107   3.368  13.670 -0.0253 -0.5620 -2.0192
19944TIP3   OH281246   6.338   6.445  13.457  1.1052 -0.5560 -0.7283
19944TIP3    H181247   6.380   6.491  13.530  0.6302 -0.8478 -0.2602
19944TIP3    H281248   6.245   6.446  13.479  1.1863 -2.7865 -0.1027
19945TIP3   OH281249   3.033   2.046  14.955  0.0234 -0.0448  0.4318
19945TIP3    H181250   3.021   2.121  15.014 -0.6159 -0.1112  0.3895
19945TIP3    H281251   3.113   2.067  14.906 -0.4715  0.8924 -0.0008
19946TIP3   OH281252   5.248   1.630  12.597  0.1256  0.3732  0.8313
19946TIP3    H181253   5.206   1.594  12.675  0.9545 -0.4121  0.9336
19946TIP3    H281254   5.246   1.558  12.533  1.1808  0.3670  0.7955
19947LIG      S81255   3.473   2.719   1.364 -0.2407 -0.1517 -0.3486
19947LIG     F181256   4.485   3.061   1.062 -0.4046  0.2645 -0.6431
19947LIG     F281257   4.347   2.919   1.140 -0.5645  0.5317  0.2403
19947LIG     F381258   4.332   2.981   0.930  0.0247 -0.4635  0.2479
19947LIG     N181259   3.605   3.154   1.368  0.0069  0.1372 -0.3703
19947LIG     N281260   3.439   2.933   1.608 -0.6598  0.5174 -0.5048
19947LIG     C181261   3.452   2.979   1.460  0.1522  0.2226 -0.6957
19947LIG     C281262   3.594   3.026   1.442 -0.7444  1.2575 -0.1463
19947LIG     C381263   3.562   3.160   1.228 -0.1771  0.1006 -0.1516
19947LIG     C481264   3.741   3.210   1.381 -0.1194  0.0133  0.8837
19947LIG     C581265   3.662   3.071   1.145  0.3802 -0.0631  0.2943
19947LIG     C681266   3.846   3.128   1.300 -0.3495 -0.2663  0.7805
19947LIG     C781267   3.800   3.124   1.159  0.4464 -0.3437  0.0298
19947LIG     C881268   3.387   2.877   1.361 -0.1637 -0.0172  0.1998
19947LIG     C981269   3.506   2.803   1.639 -0.8470 -0.1515  0.5569
19947LIG    C1081270   3.448   2.697   1.547  0.0217  0.0302 -0.1214
19947LIG    C1181271   3.880   3.135   1.052  0.6199 -0.0288  0.2802
19947LIG    C1281272   3.300   2.936   1.651  0.0869 -0.0481 -0.4275
19947LIG    C1381273   4.018   3.174   1.088 -0.3291 -0.3680 -0.4221
19947LIG    C1481274   3.857   3.112   0.906 -0.5795 -0.6129  0.4457
19947LIG    C1581275   4.128   3.086   1.066 -0.0564 -0.7276 -0.1404
19947LIG    C1681276   4.044   3.306   1.114  0.0716  0.2148 -0.0513
19947LIG    C1781277   3.898   3.215   0.814 -0.4664 -0.3855  0.2380
19947LIG    C1881278   3.801   2.993   0.849  0.3424  0.4364  0.0036
19947LIG    C1981279   4.257   3.135   1.086  0.3451 -0.2762  0.6150
19947LIG    C2081280   4.174   3.360   1.114 -0.0051 -0.3251 -0.2495
19947LIG    C2181281   3.891   3.198   0.676  0.0955 -0.3580  0.2201
19947LIG    C2281282   3.781   2.986   0.711  0.0095 -0.3203 -0.4751
19947LIG    C2381283   4.283   3.274   1.101 -0.2435  0.3992 -0.6082
19947LIG    C2481284   3.829   3.083   0.631 -0.0611  0.0846 -0.0118
19947LIG    C2581285   4.356   3.026   1.055  1.3304  0.0746 -0.5129
19947LIG     H181286   3.385   3.068   1.458  0.3996  0.5661  1.8963
19947LIG     H281287   3.650   3.043   1.536  0.6644  0.0379 -0.7107
19947LIG     H381288   3.658   2.946   1.399 -0.6223  1.2224  0.1005
19947LIG     H481289   3.574   3.267   1.201 -1.5949  0.7330  1.5701
19947LIG     H581290   3.458   3.126   1.210  0.7722 -3.4162  0.2030
19947LIG     H681291   3.764   3.230   1.488 -1.2117  0.0985  1.1160
19947LIG     H781292   3.743   3.318   1.354 -0.6834  0.1415  1.3295
19947LIG     H881293   3.626   3.065   1.040  2.0288 -0.2633 -0.2981
19947LIG     H981294   3.653   2.967   1.184 -0.4524  0.2431  0.9465
19947LIG    H1081295   3.857   3.027   1.344  0.7485  0.2066  1.6411
19947LIG    H1181296   3.944   3.180   1.305 -0.2325  0.0523 -2.6399
19947LIG    H1281297   3.278   2.866   1.379 -0.1829  0.0192  0.1059
19947LIG    H1381298   3.383   2.925   1.261 -0.8012  3.9963  1.9153
19947LIG    H1481299   3.487   2.769   1.743 -3.5616  0.3837  0.3017
19947LIG    H1581300   3.616   2.796   1.626 -1.1277 -2.1096 -1.2294
19947LIG    H1681301   3.489   2.596   1.566 -1.0222 -0.0350  2.0575
19947LIG    H1781302   3.340   2.693   1.572  0.0045 -3.5899 -0.2408
19947LIG    H1881303   3.230   2.864   1.604  1.4205 -0.8384 -1.2814
19947LIG    H1981304   3.265   3.041   1.644  0.4367  0.0277 -1.1525
19947LIG    H2081305   3.303   2.914   1.760  2.1009  1.2577 -0.1749
19947LIG    H2181306   4.101   2.985   1.037 -0.1705 -0.6580 -0.2795
19947LIG    H2281307   3.975   3.389   1.125 -0.4308 -0.0737 -0.9119
19947LIG    H2381308   3.937   3.313   0.839  0.2987 -0.0296 -2.1473
19947LIG    H2481309   3.772   2.912   0.914 -0.0702  2.0261  1.9266
19947LIG    H2581310   4.184   3.467   1.121  1.9451 -0.5727  1.9010
19947LIG    H2681311   3.935   3.261   0.600 -2.4519  3.0815  1.3240
19947LIG    H2781312   3.732   2.906   0.658  0.8670 -1.5332  0.5060
19947LIG    H2881313   4.384   3.310   1.090  0.1597 -0.6241 -0.3987
19947LIG    H2981314   3.815   3.072   0.525  1.9588  0.4354 -0.3571
   6.76100   6.76100  17.39782
