;;
;; Generated by CHARMM-GUI (http://www.charmm-gui.org) v1.7
;;
;; psf2itp_mol.py
;;
;; Correspondance:
;; jul316@lehigh.edu or wonpil@lehigh.edu
;;
;; GROMACS topology file for LIG
;;


[ moleculetype ]
; name	nrexcl
LIG	     3

[ atoms ]
; nr	type	resnr	residu	atom	cgnr	charge	mass
     1      OG301      1      LIG     O1      1     -0.339    15.9994   ; qtot -0.339
     2      OG311      1      LIG     O2      2     -0.605    15.9994   ; qtot -0.944
     3      OG301      1      LIG     O3      3     -0.389    15.9994   ; qtot -1.333
     4      OG2D1      1      LIG     O4      4     -0.575    15.9994   ; qtot -1.908
     5      NG3P0      1      LIG      N      5     -0.599    14.0070   ; qtot -2.507
     6      CG324      1      LIG     C1      6     -0.098    12.0110   ; qtot -2.605
     7      CG324      1      LIG     C2      7     -0.107    12.0110   ; qtot -2.712
     8      CG321      1      LIG     C3      8     -0.180    12.0110   ; qtot -2.892
     9      CG334      1      LIG     C4      9     -0.350    12.0110   ; qtot -3.242
    10      CG334      1      LIG     C5     10     -0.350    12.0110   ; qtot -3.592
    11      CG321      1      LIG     C6     11      0.035    12.0110   ; qtot -3.557
    12      CG321      1      LIG     C7     12     -0.176    12.0110   ; qtot -3.733
    13      CG301      1      LIG     C8     13      0.291    12.0110   ; qtot -3.442
    14      CG321      1      LIG     C9     14     -0.185    12.0110   ; qtot -3.627
    15     CG2R61      1      LIG    C10     15      0.105    12.0110   ; qtot -3.522
    16     CG2R61      1      LIG    C11     16      0.105    12.0110   ; qtot -3.417
    17     CG2R61      1      LIG    C12     17      0.105    12.0110   ; qtot -3.312
    18      CG321      1      LIG    C13     18     -0.160    12.0110   ; qtot -3.472
    19     CG2R61      1      LIG    C14     19     -0.193    12.0110   ; qtot -3.665
    20     CG2R61      1      LIG    C15     20     -0.193    12.0110   ; qtot -3.858
    21     CG2R61      1      LIG    C16     21     -0.194    12.0110   ; qtot -4.052
    22     CG2R61      1      LIG    C17     22     -0.194    12.0110   ; qtot -4.246
    23     CG2R61      1      LIG    C18     23     -0.194    12.0110   ; qtot -4.440
    24     CG2R61      1      LIG    C19     24     -0.194    12.0110   ; qtot -4.634
    25      CG2O2      1      LIG    C20     25      0.727    12.0110   ; qtot -3.907
    26     CG2R61      1      LIG    C21     26     -0.117    12.0110   ; qtot -4.024
    27     CG2R61      1      LIG    C22     27     -0.117    12.0110   ; qtot -4.141
    28     CG2R61      1      LIG    C23     28     -0.115    12.0110   ; qtot -4.256
    29     CG2R61      1      LIG    C24     29     -0.115    12.0110   ; qtot -4.371
    30     CG2R61      1      LIG    C25     30     -0.115    12.0110   ; qtot -4.486
    31     CG2R61      1      LIG    C26     31     -0.115    12.0110   ; qtot -4.601
    32     CG2R61      1      LIG    C27     32      0.222    12.0110   ; qtot -4.379
    33     CG2R61      1      LIG    C28     33     -0.115    12.0110   ; qtot -4.494
    34     CG2R61      1      LIG    C29     34     -0.115    12.0110   ; qtot -4.609
    35      CG331      1      LIG    C30     35     -0.101    12.0110   ; qtot -4.710
    36       HGP5      1      LIG     H1     36      0.250     1.0080   ; qtot -4.460
    37       HGP5      1      LIG     H2     37      0.250     1.0080   ; qtot -4.210
    38       HGP5      1      LIG     H3     38      0.250     1.0080   ; qtot -3.960
    39       HGP5      1      LIG     H4     39      0.250     1.0080   ; qtot -3.710
    40       HGA2      1      LIG     H5     40      0.090     1.0080   ; qtot -3.620
    41       HGA2      1      LIG     H6     41      0.090     1.0080   ; qtot -3.530
    42       HGP5      1      LIG     H7     42      0.250     1.0080   ; qtot -3.280
    43       HGP5      1      LIG     H8     43      0.250     1.0080   ; qtot -3.030
    44       HGP5      1      LIG     H9     44      0.250     1.0080   ; qtot -2.780
    45       HGP5      1      LIG    H10     45      0.250     1.0080   ; qtot -2.530
    46       HGP5      1      LIG    H11     46      0.250     1.0080   ; qtot -2.280
    47       HGP5      1      LIG    H12     47      0.250     1.0080   ; qtot -2.030
    48       HGA2      1      LIG    H13     48      0.090     1.0080   ; qtot -1.940
    49       HGA2      1      LIG    H14     49      0.090     1.0080   ; qtot -1.850
    50       HGA2      1      LIG    H15     50      0.090     1.0080   ; qtot -1.760
    51       HGA2      1      LIG    H16     51      0.090     1.0080   ; qtot -1.670
    52       HGA2      1      LIG    H17     52      0.090     1.0080   ; qtot -1.580
    53       HGA2      1      LIG    H18     53      0.090     1.0080   ; qtot -1.490
    54       HGA2      1      LIG    H19     54      0.090     1.0080   ; qtot -1.400
    55       HGA2      1      LIG    H20     55      0.090     1.0080   ; qtot -1.310
    56      HGR61      1      LIG    H21     56      0.115     1.0080   ; qtot -1.195
    57      HGR61      1      LIG    H22     57      0.115     1.0080   ; qtot -1.080
    58      HGR61      1      LIG    H23     58      0.115     1.0080   ; qtot -0.965
    59      HGR61      1      LIG    H24     59      0.115     1.0080   ; qtot -0.850
    60      HGR61      1      LIG    H25     60      0.115     1.0080   ; qtot -0.735
    61      HGR61      1      LIG    H26     61      0.115     1.0080   ; qtot -0.620
    62      HGR61      1      LIG    H27     62      0.115     1.0080   ; qtot -0.505
    63      HGR61      1      LIG    H28     63      0.115     1.0080   ; qtot -0.390
    64      HGR61      1      LIG    H29     64      0.115     1.0080   ; qtot -0.275
    65      HGR61      1      LIG    H30     65      0.115     1.0080   ; qtot -0.160
    66      HGR61      1      LIG    H31     66      0.115     1.0080   ; qtot -0.045
    67      HGR61      1      LIG    H32     67      0.115     1.0080   ; qtot  0.070
    68      HGR61      1      LIG    H33     68      0.115     1.0080   ; qtot  0.185
    69      HGR61      1      LIG    H34     69      0.115     1.0080   ; qtot  0.300
    70       HGP1      1      LIG    H35     70      0.430     1.0080   ; qtot  0.730
    71       HGA3      1      LIG    H36     71      0.090     1.0080   ; qtot  0.820
    72       HGA3      1      LIG    H37     72      0.090     1.0080   ; qtot  0.910
    73       HGA3      1      LIG    H38     73      0.090     1.0080   ; qtot  1.000

[ bonds ]
; ai	aj	funct	b0	Kb
    1    11     1
    1    13     1
    2    25     1
    2    70     1
    3    32     1
    3    35     1
    4    25     1
    5     6     1
    5     7     1
    5     9     1
    5    10     1
    6     8     1
    6    36     1
    6    37     1
    7    11     1
    7    38     1
    7    39     1
    8    12     1
    8    40     1
    8    41     1
    9    42     1
    9    43     1
    9    44     1
   10    45     1
   10    46     1
   10    47     1
   11    48     1
   11    49     1
   12    14     1
   12    50     1
   12    51     1
   13    15     1
   13    16     1
   13    17     1
   14    18     1
   14    52     1
   14    53     1
   15    19     1
   15    20     1
   16    21     1
   16    23     1
   17    22     1
   17    24     1
   18    25     1
   18    54     1
   18    55     1
   19    26     1
   19    56     1
   20    27     1
   20    57     1
   21    28     1
   21    58     1
   22    29     1
   22    59     1
   23    30     1
   23    60     1
   24    31     1
   24    61     1
   26    32     1
   26    62     1
   27    32     1
   27    63     1
   28    33     1
   28    64     1
   29    34     1
   29    65     1
   30    33     1
   30    66     1
   31    34     1
   31    67     1
   33    68     1
   34    69     1
   35    71     1
   35    72     1
   35    73     1

[ pairs ]
; ai	aj	funct	c6	c12
    1     5     1 
    1    19     1 
    1    20     1 
    1    21     1 
    1    22     1 
    1    23     1 
    1    24     1 
    1    38     1 
    1    39     1 
    2    14     1 
    2    54     1 
    2    55     1 
    3    19     1 
    3    20     1 
    3    62     1 
    3    63     1 
    4    14     1 
    4    54     1 
    4    55     1 
    4    70     1 
    5    12     1 
    5    40     1 
    5    41     1 
    5    48     1 
    5    49     1 
    6    11     1 
    6    14     1 
    6    38     1 
    6    39     1 
    6    42     1 
    6    43     1 
    6    44     1 
    6    45     1 
    6    46     1 
    6    47     1 
    6    50     1 
    6    51     1 
    7     8     1 
    7    13     1 
    7    36     1 
    7    37     1 
    7    42     1 
    7    43     1 
    7    44     1 
    7    45     1 
    7    46     1 
    7    47     1 
    8     9     1 
    8    10     1 
    8    18     1 
    8    52     1 
    8    53     1 
    9    11     1 
    9    36     1 
    9    37     1 
    9    38     1 
    9    39     1 
    9    45     1 
    9    46     1 
    9    47     1 
   10    11     1 
   10    36     1 
   10    37     1 
   10    38     1 
   10    39     1 
   10    42     1 
   10    43     1 
   10    44     1 
   11    15     1 
   11    16     1 
   11    17     1 
   12    25     1 
   12    36     1 
   12    37     1 
   12    54     1 
   12    55     1 
   13    26     1 
   13    27     1 
   13    28     1 
   13    29     1 
   13    30     1 
   13    31     1 
   13    48     1 
   13    49     1 
   13    56     1 
   13    57     1 
   13    58     1 
   13    59     1 
   13    60     1 
   13    61     1 
   14    40     1 
   14    41     1 
   15    21     1 
   15    22     1 
   15    23     1 
   15    24     1 
   15    32     1 
   15    62     1 
   15    63     1 
   16    19     1 
   16    20     1 
   16    22     1 
   16    24     1 
   16    33     1 
   16    64     1 
   16    66     1 
   17    19     1 
   17    20     1 
   17    21     1 
   17    23     1 
   17    34     1 
   17    65     1 
   17    67     1 
   18    50     1 
   18    51     1 
   18    70     1 
   19    27     1 
   19    57     1 
   20    26     1 
   20    56     1 
   21    30     1 
   21    60     1 
   21    68     1 
   22    31     1 
   22    61     1 
   22    69     1 
   23    28     1 
   23    58     1 
   23    68     1 
   24    29     1 
   24    59     1 
   24    69     1 
   25    52     1 
   25    53     1 
   26    35     1 
   26    63     1 
   27    35     1 
   27    62     1 
   28    66     1 
   29    67     1 
   30    64     1 
   31    65     1 
   32    56     1 
   32    57     1 
   32    71     1 
   32    72     1 
   32    73     1 
   33    58     1 
   33    60     1 
   34    59     1 
   34    61     1 
   36    40     1 
   36    41     1 
   37    40     1 
   37    41     1 
   38    48     1 
   38    49     1 
   39    48     1 
   39    49     1 
   40    50     1 
   40    51     1 
   41    50     1 
   41    51     1 
   50    52     1 
   50    53     1 
   51    52     1 
   51    53     1 
   52    54     1 
   52    55     1 
   53    54     1 
   53    55     1 
   56    62     1 
   57    63     1 
   58    64     1 
   59    65     1 
   60    66     1 
   61    67     1 
   64    68     1 
   65    69     1 
   66    68     1 
   67    69     1 

[ angles ] 
; ai	aj	ak	funct	th0	cth	S0	Kub
   11     1    13     5
   25     2    70     5
   32     3    35     5
    6     5     7     5
    6     5     9     5
    6     5    10     5
    7     5     9     5
    7     5    10     5
    9     5    10     5
    5     6     8     5
    5     6    36     5
    5     6    37     5
    8     6    36     5
    8     6    37     5
   36     6    37     5
    5     7    11     5
    5     7    38     5
    5     7    39     5
   11     7    38     5
   11     7    39     5
   38     7    39     5
    6     8    12     5
    6     8    40     5
    6     8    41     5
   12     8    40     5
   12     8    41     5
   40     8    41     5
    5     9    42     5
    5     9    43     5
    5     9    44     5
   42     9    43     5
   42     9    44     5
   43     9    44     5
    5    10    45     5
    5    10    46     5
    5    10    47     5
   45    10    46     5
   45    10    47     5
   46    10    47     5
    1    11     7     5
    1    11    48     5
    1    11    49     5
    7    11    48     5
    7    11    49     5
   48    11    49     5
    8    12    14     5
    8    12    50     5
    8    12    51     5
   14    12    50     5
   14    12    51     5
   50    12    51     5
    1    13    15     5
    1    13    16     5
    1    13    17     5
   15    13    16     5
   15    13    17     5
   16    13    17     5
   12    14    18     5
   12    14    52     5
   12    14    53     5
   18    14    52     5
   18    14    53     5
   52    14    53     5
   13    15    19     5
   13    15    20     5
   19    15    20     5
   13    16    21     5
   13    16    23     5
   21    16    23     5
   13    17    22     5
   13    17    24     5
   22    17    24     5
   14    18    25     5
   14    18    54     5
   14    18    55     5
   25    18    54     5
   25    18    55     5
   54    18    55     5
   15    19    26     5
   15    19    56     5
   26    19    56     5
   15    20    27     5
   15    20    57     5
   27    20    57     5
   16    21    28     5
   16    21    58     5
   28    21    58     5
   17    22    29     5
   17    22    59     5
   29    22    59     5
   16    23    30     5
   16    23    60     5
   30    23    60     5
   17    24    31     5
   17    24    61     5
   31    24    61     5
    2    25     4     5
    2    25    18     5
    4    25    18     5
   19    26    32     5
   19    26    62     5
   32    26    62     5
   20    27    32     5
   20    27    63     5
   32    27    63     5
   21    28    33     5
   21    28    64     5
   33    28    64     5
   22    29    34     5
   22    29    65     5
   34    29    65     5
   23    30    33     5
   23    30    66     5
   33    30    66     5
   24    31    34     5
   24    31    67     5
   34    31    67     5
    3    32    26     5
    3    32    27     5
   26    32    27     5
   28    33    30     5
   28    33    68     5
   30    33    68     5
   29    34    31     5
   29    34    69     5
   31    34    69     5
    3    35    71     5
    3    35    72     5
    3    35    73     5
   71    35    72     5
   71    35    73     5
   72    35    73     5

[ dihedrals ]
; ai	aj	ak	al	funct	phi0	cp	mult
   13     1    11    48     9
   13     1    11    49     9
   11     1    13    15     9
   11     1    13    16     9
   11     1    13    17     9
   32     3    35    71     9
   32     3    35    72     9
   32     3    35    73     9
    7     5     6     8     9
    7     5     6    36     9
    7     5     6    37     9
    9     5     6    36     9
    9     5     6    37     9
   10     5     6    36     9
   10     5     6    37     9
    6     5     7    11     9
    6     5     7    38     9
    6     5     7    39     9
    9     5     7    11     9
    9     5     7    38     9
    9     5     7    39     9
   10     5     7    11     9
   10     5     7    38     9
   10     5     7    39     9
    6     5     9    42     9
    6     5     9    43     9
    6     5     9    44     9
    7     5     9    42     9
    7     5     9    43     9
    7     5     9    44     9
   10     5     9    42     9
   10     5     9    43     9
   10     5     9    44     9
    6     5    10    45     9
    6     5    10    46     9
    6     5    10    47     9
    7     5    10    45     9
    7     5    10    46     9
    7     5    10    47     9
    9     5    10    45     9
    9     5    10    46     9
    9     5    10    47     9
    8     6     5     9     9
    8     6     5    10     9
    5     6     8    12     9
    5     6     8    40     9
    5     6     8    41     9
   36     6     8    40     9
   36     6     8    41     9
   37     6     8    40     9
   37     6     8    41     9
    5     7    11    48     9
    5     7    11    49     9
   38     7    11    48     9
   38     7    11    49     9
   39     7    11    48     9
   39     7    11    49     9
   12     8     6    36     9
   12     8     6    37     9
    6     8    12    14     9
    6     8    12    50     9
    6     8    12    51     9
   40     8    12    50     9
   40     8    12    51     9
   41     8    12    50     9
   41     8    12    51     9
    7    11     1    13     9
    1    11     7     5     9
    1    11     7    38     9
    1    11     7    39     9
   14    12     8    40     9
   14    12     8    41     9
    8    12    14    18     9
    8    12    14    52     9
    8    12    14    53     9
   50    12    14    52     9
   50    12    14    53     9
   51    12    14    52     9
   51    12    14    53     9
    1    13    15    19     9
    1    13    15    20     9
   16    13    15    19     9
   16    13    15    20     9
   17    13    15    19     9
   17    13    15    20     9
    1    13    16    21     9
    1    13    16    23     9
   15    13    16    21     9
   15    13    16    23     9
   17    13    16    21     9
   17    13    16    23     9
    1    13    17    22     9
    1    13    17    24     9
   15    13    17    22     9
   15    13    17    24     9
   16    13    17    22     9
   16    13    17    24     9
   18    14    12    50     9
   18    14    12    51     9
   12    14    18    25     9
   12    14    18    54     9
   12    14    18    55     9
   52    14    18    54     9
   52    14    18    55     9
   53    14    18    54     9
   53    14    18    55     9
   13    15    19    26     9
   13    15    19    56     9
   20    15    19    26     9
   20    15    19    56     9
   13    15    20    27     9
   13    15    20    57     9
   19    15    20    27     9
   19    15    20    57     9
   13    16    21    28     9
   13    16    21    58     9
   23    16    21    28     9
   23    16    21    58     9
   13    16    23    30     9
   13    16    23    60     9
   21    16    23    30     9
   21    16    23    60     9
   13    17    22    29     9
   13    17    22    59     9
   24    17    22    29     9
   24    17    22    59     9
   13    17    24    31     9
   13    17    24    61     9
   22    17    24    31     9
   22    17    24    61     9
   25    18    14    52     9
   25    18    14    53     9
   15    19    26    32     9
   15    19    26    62     9
   56    19    26    62     9
   15    20    27    32     9
   15    20    27    63     9
   57    20    27    63     9
   16    21    28    33     9
   16    21    28    64     9
   58    21    28    64     9
   17    22    29    34     9
   17    22    29    65     9
   59    22    29    65     9
   16    23    30    33     9
   16    23    30    66     9
   60    23    30    66     9
   17    24    31    34     9
   17    24    31    67     9
   61    24    31    67     9
    4    25     2    70     9
   18    25     2    70     9
    2    25    18    14     9
    2    25    18    54     9
    2    25    18    55     9
    4    25    18    14     9
    4    25    18    54     9
    4    25    18    55     9
   32    26    19    56     9
   19    26    32    27     9
   32    27    20    57     9
   20    27    32    26     9
   33    28    21    58     9
   21    28    33    30     9
   21    28    33    68     9
   64    28    33    68     9
   34    29    22    59     9
   22    29    34    31     9
   22    29    34    69     9
   65    29    34    69     9
   33    30    23    60     9
   23    30    33    28     9
   23    30    33    68     9
   66    30    33    68     9
   34    31    24    61     9
   24    31    34    29     9
   24    31    34    69     9
   67    31    34    69     9
   26    32     3    35     9
   27    32     3    35     9
    3    32    26    19     9
    3    32    26    62     9
   27    32    26    62     9
    3    32    27    20     9
    3    32    27    63     9
   26    32    27    63     9
   30    33    28    64     9
   28    33    30    66     9
   31    34    29    65     9
   29    34    31    67     9

[ dihedrals ]
; ai	aj	ak	al	funct	q0	cq
   25    18     4     2     2
